INSANE! Membrane UpperLeaflet>loPI:POPI:DPPI:PYPI:ERGO=180.0:5.0:3.0:2.0:10.0 LowerLeaflet>PSPI:POPI:POPS:YOPS:POPE:YOPE:POPC:YOPC:ERGO=6.0:14.0:21.0:9.0:9.0:21.0:12.0:48.0:60.0
49348
    1loPI    C1    1  11.054   6.522   9.703  0.1056  0.2133  0.1548
    1loPI    C2    2  11.180   6.453   9.329  0.1252  0.2070  0.1626
    1loPI    C3    3  11.334   6.245   9.634 -0.0160  0.0891  0.1545
    1loPI   PO4    4  10.830   6.584   9.638 -0.4160 -0.0627 -0.0943
    1loPI   GL1    5  10.719   6.598   9.195  0.2521  0.3094  0.2205
    1loPI   GL2    6  10.512   6.721   9.225  0.2444 -0.3283  0.0543
    1loPI   C1A    7  10.988   6.369   8.864  0.1247 -0.3353  0.0569
    1loPI   C2A    8  11.091   6.524   8.534 -0.0808  0.0881  0.2174
    1loPI   C3A    9  11.209   6.471   8.125 -0.0682 -0.1289 -0.1187
    1loPI   C4A   10  11.323   6.642   7.697  0.0451  0.4342 -0.1843
    1loPI   C5A   11  11.568   6.428   7.290 -0.0492 -0.1558  0.2229
    1loPI   C6A   12  11.827   6.315   7.015  0.2122 -0.0077 -0.1636
    1loPI   C1B   13  10.369   7.003   8.951  0.2328 -0.1306 -0.3633
    1loPI   C2B   14  10.472   7.078   8.560  0.3359 -0.1764  0.1082
    1loPI   C3B   15  10.593   7.234   8.179  0.3995 -0.0643 -0.0276
    1loPI   C4B   16  10.422   7.148   7.792  0.1877 -0.0087  0.0928
    2loPI    C1   17   8.412   2.808   9.938  0.1446  0.1047 -0.1007
    2loPI    C2   18   8.614   3.077  10.154 -0.1004  0.1279  0.1041
    2loPI    C3   19   8.226   3.135  10.074 -0.0801 -0.0179 -0.1081
    2loPI   PO4   20   8.526   2.657   9.665 -0.0090 -0.0924 -0.0421
    2loPI   GL1   21   8.721   2.650   9.370  0.2548  0.1199  0.1546
    2loPI   GL2   22   9.090   2.602   9.417 -0.2337 -0.1434  0.3488
    2loPI   C1A   23   8.583   2.747   8.943 -0.0575 -0.1153 -0.0140
    2loPI   C2A   24   8.669   2.753   8.479 -0.1499 -0.1261 -0.1925
    2loPI   C3A   25   8.532   2.917   8.080  0.1967 -0.1885 -0.3632
    2loPI   C4A   26   8.550   2.892   7.662  0.1087  0.0450 -0.1957
    2loPI   C5A   27   8.920   2.724   7.369  0.0547  0.0239 -0.1219
    2loPI   C6A   28   9.175   2.648   7.006 -0.0291  0.2054 -0.0266
    2loPI   C1B   29   8.989   2.451   8.968 -0.1489  0.0438  0.1413
    2loPI   C2B   30   9.044   2.448   8.548  0.1728 -0.0881  0.0636
    2loPI   C3B   31   9.007   2.534   8.154  0.4180 -0.0980 -0.1645
    2loPI   C4B   32   9.027   2.701   7.857 -0.1095 -0.1200  0.2924
    3loPI    C1   33  11.553  11.516   9.772 -0.0632 -0.1416  0.0293
    3loPI    C2   34  11.357  11.400   9.443 -0.1950  0.1067  0.0184
    3loPI    C3   35  11.179  11.378   9.800 -0.1250  0.0281  0.0488
    3loPI   PO4   36  11.623  11.750   9.685  0.0724 -0.6855  0.1125
    3loPI   GL1   37  11.591  11.987   9.367 -0.2338 -0.0839  0.1503
    3loPI   GL2   38  11.759  11.700   9.181  0.0663  0.2133 -0.3697
    3loPI   C1A   39  11.668  12.324   8.939 -0.1741  0.3112  0.5222
    3loPI   C2A   40  11.865  12.319   8.416  0.1280  0.0381 -0.0586
    3loPI   C3A   41  12.046  12.244   7.971  0.2150  0.0138  0.1643
    3loPI   C4A   42  11.859  11.885   7.570 -0.0273 -0.2724 -0.0596
    3loPI   C5A   43  12.179  11.571   7.396  0.4529  0.1482  0.0727
    3loPI   C6A   44  12.388  11.837   7.167  0.4824  0.3135  0.3137
    3loPI   C1B   45  11.595  11.833   8.705  0.4120  0.2638  0.1020
    3loPI   C2B   46  11.499  11.855   8.384 -0.1787 -0.3560 -0.0044
    3loPI   C3B   47  11.250  11.975   7.953 -0.0256  0.1132 -0.1132
    3loPI   C4B   48  11.019  12.217   7.557  0.3246  0.0481 -0.0398
    4loPI    C1   49  15.171  19.182   9.284  0.0841 -0.0990 -0.1120
    4loPI    C2   50  15.483  19.425   9.343 -0.2485  0.3012  0.0505
    4loPI    C3   51  15.348  19.198   9.643  0.0483 -0.0808 -0.0952
    4loPI   PO4   52  15.312  18.983   9.131 -0.2383 -0.0927  0.0443
    4loPI   GL1   53  15.722  18.829   8.965  0.0879 -0.0045 -0.0432
    4loPI   GL2   54  15.692  18.948   8.723  0.0720  0.3215 -0.6066
    4loPI   C1A   55  15.799  18.455   8.707 -0.0546 -0.1109  0.3980
    4loPI   C2A   56  15.764  18.369   8.381  0.1500  0.1683 -0.0643
    4loPI   C3A   57  15.634  18.221   7.972  0.0014 -0.0247  0.0091
    4loPI   C4A   58  15.533  18.313   7.511  0.2144 -0.1437  0.1337
    4loPI   C5A   59  15.488  18.439   7.053  0.2740 -0.1927 -0.1864
    4loPI   C6A   60  15.308  18.620   6.742 -0.0503  0.0890  0.2040
    4loPI   C1B   61  15.738  18.883   8.262  0.2742 -0.2535 -0.0917
    4loPI   C2B   62  15.922  18.639   8.030  0.2022  0.2106  0.3186
    4loPI   C3B   63  16.076  18.630   7.619  0.0895  0.0173 -0.0603
    4loPI   C4B   64  16.354  18.531   7.152  0.0624 -0.0302 -0.2509
    5loPI    C1   65   9.843   9.389   9.986  0.1992  0.0147  0.0981
    5loPI    C2   66   9.967   9.700  10.204 -0.0601  0.1609  0.0415
    5loPI    C3   67   9.663   9.475  10.333  0.0207  0.0287  0.0033
    5loPI   PO4   68   9.801   9.545   9.781 -0.0609  0.2777  0.1658
    5loPI   GL1   69   9.702   9.615   9.347  0.1910 -0.1769 -0.0770
    5loPI   GL2   70   9.783   9.372   9.157  0.0315  0.0758 -0.2233
    5loPI   C1A   71   9.816   9.997   9.100  0.0755  0.1871  0.0747
    5loPI   C2A   72   9.924  10.170   8.729 -0.0828 -0.2375 -0.0321
    5loPI   C3A   73  10.060  10.083   8.322  0.0352 -0.2735 -0.1185
    5loPI   C4A   74  10.224  10.135   7.900 -0.1628  0.0770 -0.4781
    5loPI   C5A   75  10.628  10.219   7.929 -0.1980  0.0523  0.0214
    5loPI   C6A   76  10.784  10.580   8.024  0.3559  0.0413 -0.0961
    5loPI   C1B   77   9.779   9.565   8.793  0.1600  0.2866 -0.0642
    5loPI   C2B   78   9.798   9.621   8.349 -0.1107  0.1336 -0.1787
    5loPI   C3B   79   9.950   9.508   7.926  0.2876  0.0677 -0.1029
    5loPI   C4B   80   9.937   9.292   7.632 -0.0535  0.0353  0.0501
    6loPI    C1   81   2.786   3.110   9.682  0.0135 -0.0182 -0.0751
    6loPI    C2   82   2.975   2.946   9.994 -0.0784 -0.2380 -0.1326
    6loPI    C3   83   2.694   3.224  10.054  0.3147  0.1538 -0.0501
    6loPI   PO4   84   2.771   2.901   9.521 -0.0521 -0.5770 -0.2768
    6loPI   GL1   85   2.646   2.828   9.103 -0.3601  0.1223 -0.2561
    6loPI   GL2   86   2.324   2.911   9.136  0.1439 -0.0190  0.3599
    6loPI   C1A   87   2.519   2.844   8.681 -0.1180  0.4321 -0.1966
    6loPI   C2A   88   2.431   2.940   8.280  0.1340 -0.5972 -0.0772
    6loPI   C3A   89   2.435   3.126   7.844 -0.1250 -0.0850  0.1860
    6loPI   C4A   90   2.283   3.077   7.391 -0.0055 -0.1478 -0.0531
    6loPI   C5A   91   2.069   2.910   7.096 -0.2964  0.1542 -0.2625
    6loPI   C6A   92   2.079   3.040   6.629  0.3003  0.1649 -0.1009
    6loPI   C1B   93   1.893   2.866   9.071 -0.1316  0.3489  0.1354
    6loPI   C2B   94   1.635   2.752   8.740  0.1538 -0.2336  0.0856
    6loPI   C3B   95   1.822   2.716   8.367  0.2779 -0.1203 -0.0887
    6loPI   C4B   96   1.630   2.465   7.931 -0.0415  0.1574  0.2159
    7loPI    C1   97  18.567  10.943   9.598 -0.2397 -0.0078 -0.1121
    7loPI    C2   98  18.420  10.990   9.967  0.0099  0.3401 -0.0523
    7loPI    C3   99  18.243  11.171   9.657 -0.2932 -0.0781 -0.1323
    7loPI   PO4  100  18.649  10.647   9.629  0.1249 -0.1411  0.1464
    7loPI   GL1  101  18.472  10.533   9.291 -0.1363  0.0613  0.0593
    7loPI   GL2  102  18.618  10.238   9.040  0.1424 -0.0783  0.0263
    7loPI   C1A  103  18.206  10.666   8.898 -0.0526 -0.1491  0.0224
    7loPI   C2A  104  18.285  10.626   8.576 -0.0770  0.1247  0.1209
    7loPI   C3A  105  18.115  10.577   8.181  0.0157 -0.2718 -0.0132
    7loPI   C4A  106  18.102  10.628   7.728 -0.0348  0.1477 -0.0372
    7loPI   C5A  107  18.152  10.330   7.372  0.2002  0.2417  0.1125
    7loPI   C6A  108  18.040  10.351   6.986  0.1539 -0.4116 -0.0445
    7loPI   C1B  109  18.583  10.232   8.660  0.0987  0.3590  0.1875
    7loPI   C2B  110  18.468  10.242   8.258 -0.2413  0.1963 -0.2714
    7loPI   C3B  111  18.415  10.150   7.779 -0.1691  0.1007 -0.1818
    7loPI   C4B  112  18.591  10.137   7.360 -0.1880  0.0758  0.0859
    8loPI    C1  113   7.906  14.797   9.824 -0.0629 -0.3351 -0.0206
    8loPI    C2  114   8.146  14.777  10.144  0.0293  0.0398 -0.0621
    8loPI    C3  115   7.750  14.742  10.189  0.0310  0.2249  0.1130
    8loPI   PO4  116   7.983  14.664   9.577 -0.0419 -0.1145 -0.1317
    8loPI   GL1  117   7.752  14.729   9.216 -0.2122  0.0847  0.1693
    8loPI   GL2  118   7.779  15.039   9.066  0.0801  0.1229  0.0388
    8loPI   C1A  119   7.752  14.375   8.874  0.0464  0.0305  0.3238
    8loPI   C2A  120   7.660  14.268   8.433 -0.2370 -0.1686  0.0629
    8loPI   C3A  121   7.688  14.336   7.934  0.2598  0.1966 -0.0201
    8loPI   C4A  122   7.622  14.429   7.481  0.2058  0.0728 -0.0516
    8loPI   C5A  123   7.570  14.682   7.044 -0.0234  0.2148  0.3412
    8loPI   C6A  124   7.721  14.770   6.623  0.0830  0.1014 -0.1048
    8loPI   C1B  125   7.657  15.154   8.635  0.1788 -0.2378 -0.0078
    8loPI   C2B  126   7.595  15.294   8.179  0.0071  0.1239  0.0611
    8loPI   C3B  127   7.919  15.212   7.947 -0.1656  0.0855  0.4864
    8loPI   C4B  128   8.151  15.159   7.516  0.0396  0.2338 -0.0955
    9loPI    C1  129   1.723   6.625   9.648 -0.1199 -0.1594  0.0476
    9loPI    C2  130   1.788   6.440   9.997  0.0992 -0.2150 -0.0214
    9loPI    C3  131   1.592   6.251   9.705 -0.0671 -0.1756  0.0636
    9loPI   PO4  132   1.942   6.813   9.652 -0.1484 -0.0127 -0.1296
    9loPI   GL1  133   2.023   7.050   9.375  0.3528  0.0435 -0.1803
    9loPI   GL2  134   1.770   6.835   9.172  0.3136 -0.1354  0.2234
    9loPI   C1A  135   2.300   7.329   9.159  0.2819 -0.0783  0.2938
    9loPI   C2A  136   2.384   7.644   8.845  0.1117 -0.2799  0.1427
    9loPI   C3A  137   2.655   7.568   8.514  0.0762  0.1229  0.2511
    9loPI   C4A  138   2.787   7.649   8.149 -0.0428 -0.1262 -0.0602
    9loPI   C5A  139   2.939   7.841   7.771  0.4061 -0.0251 -0.0158
    9loPI   C6A  140   3.015   7.996   7.334 -0.1499 -0.0286 -0.0807
    9loPI   C1B  141   1.630   6.878   8.775 -0.1756 -0.1002 -0.1145
    9loPI   C2B  142   1.627   6.684   8.316 -0.0173 -0.1688 -0.1675
    9loPI   C3B  143   1.763   6.607   7.901  0.3426  0.2486 -0.0409
    9loPI   C4B  144   1.765   6.457   7.461  0.1081  0.2303 -0.2121
   10loPI    C1  145   0.366  14.203  10.216  0.0875  0.1605  0.0581
   10loPI    C2  146   0.087  14.235  10.502 -0.1027  0.4129 -0.1505
   10loPI    C3  147   0.471  14.310  10.587 -0.0725 -0.0613  0.1692
   10loPI   PO4  148   0.274  14.107  10.016  0.2499 -0.1120 -0.2561
   10loPI   GL1  149  -0.032  14.137   9.666  0.0332 -0.1783  0.1143
   10loPI   GL2  150  -0.370  14.171   9.540 -0.1194  0.1254 -0.0192
   10loPI   C1A  151  -0.049  13.914   9.279  0.1701 -0.3249 -0.0963
   10loPI   C2A  152  -0.156  13.845   8.894 -0.3806  0.0351 -0.1762
   10loPI   C3A  153  -0.282  13.866   8.453  0.2310  0.0313 -0.1232
   10loPI   C4A  154  -0.420  13.824   7.937  0.1396 -0.0049 -0.0185
   10loPI   C5A  155  -0.679  13.752   7.538 -0.1758  0.3491 -0.1058
   10loPI   C6A  156  -0.884  13.593   7.155  0.0141  0.1498 -0.0887
   10loPI   C1B  157  -0.441  14.319   9.139  0.1583 -0.3006  0.1808
   10loPI   C2B  158  -0.253  14.306   8.688 -0.2161  0.3115 -0.1568
   10loPI   C3B  159  -0.505  14.317   8.334 -0.2192  0.0164  0.0508
   10loPI   C4B  160  -0.536  14.323   7.937 -0.0572  0.0723  0.0435
   11loPI    C1  161   8.806   0.020  10.105  0.0702  0.1326  0.1568
   11loPI    C2  162   8.528  -0.137  10.346  0.0908  0.0302  0.1143
   11loPI    C3  163   8.863  -0.341  10.267  0.0699  0.0489 -0.0263
   11loPI   PO4  164   8.724   0.103   9.907 -0.0566 -0.0101  0.2237
   11loPI   GL1  165   8.680  -0.024   9.427 -0.3163 -0.0258 -0.1823
   11loPI   GL2  166   8.278  -0.028   9.317  0.0897  0.1231  0.0545
   11loPI   C1A  167   8.619   0.496   9.251 -0.2862 -0.0657 -0.2144
   11loPI   C2A  168   8.461   0.745   9.017  0.2253 -0.1075 -0.0698
   11loPI   C3A  169   8.228   0.537   8.659 -0.3590 -0.0578  0.2133
   11loPI   C4A  170   8.267   0.560   8.258 -0.0280  0.5372  0.1050
   11loPI   C5A  171   8.349   0.583   7.745  0.0316 -0.4399  0.0718
   11loPI   C6A  172   8.403   0.484   7.335 -0.2258  0.0401  0.0279
   11loPI   C1B  173   8.521   0.102   8.969 -0.0609 -0.1896 -0.0663
   11loPI   C2B  174   8.572   0.046   8.562  0.2596  0.2546  0.2173
   11loPI   C3B  175   8.566   0.124   8.185  0.2184  0.0379  0.2158
   11loPI   C4B  176   8.579   0.127   7.656 -0.1267 -0.1571  0.0624
   12loPI    C1  177   3.508   9.720   9.859  0.3967 -0.0830  0.0200
   12loPI    C2  178   3.584  10.003  10.131  0.1001  0.0669 -0.0495
   12loPI    C3  179   3.323   9.711  10.213  0.1093  0.0376 -0.1239
   12loPI   PO4  180   3.415   9.847   9.627 -0.1530  0.2059 -0.1473
   12loPI   GL1  181   3.545  10.016   9.282 -0.2360 -0.0648  0.0549
   12loPI   GL2  182   3.815  10.204   9.287 -0.1776  0.1697  0.0558
   12loPI   C1A  183   3.581  10.031   8.836 -0.2144 -0.1484 -0.1109
   12loPI   C2A  184   3.792   9.897   8.486  0.0519 -0.0912  0.0273
   12loPI   C3A  185   3.583  10.104   8.138 -0.1004  0.1371 -0.0645
   12loPI   C4A  186   3.368   9.882   7.752 -0.0403 -0.1422 -0.0621
   12loPI   C5A  187   3.247   9.659   7.463  0.2370  0.1841  0.1560
   12loPI   C6A  188   2.859   9.503   7.272 -0.2498 -0.0686  0.0128
   12loPI   C1B  189   4.105  10.291   8.867  0.1448 -0.3590  0.2289
   12loPI   C2B  190   4.008  10.338   8.506  0.1076 -0.0062 -0.0338
   12loPI   C3B  191   4.026  10.323   8.042  0.1757 -0.1152  0.2546
   12loPI   C4B  192   3.817  10.488   7.638  0.0336  0.0147  0.2256
   13loPI    C1  193  14.125  14.647  10.113  0.2085  0.2657 -0.1149
   13loPI    C2  194  13.738  14.661  10.217  0.1144  0.0795 -0.4274
   13loPI    C3  195  13.997  14.448  10.436 -0.0099 -0.0076 -0.3637
   13loPI   PO4  196  14.149  14.614   9.926  0.0686  0.4129  0.3090
   13loPI   GL1  197  14.398  14.626   9.711 -0.0654  0.1773 -0.0922
   13loPI   GL2  198  14.194  14.458   9.462 -0.3093  0.3324  0.0126
   13loPI   C1A  199  14.519  14.831   9.315 -0.0478  0.0130 -0.0983
   13loPI   C2A  200  14.420  14.829   8.942 -0.0356  0.4143 -0.0462
   13loPI   C3A  201  14.189  14.896   8.510 -0.0032 -0.1636 -0.0889
   13loPI   C4A  202  14.138  14.944   8.025 -0.1624 -0.1503 -0.0541
   13loPI   C5A  203  14.287  15.318   7.710 -0.2724 -0.2099 -0.0284
   13loPI   C6A  204  14.415  15.726   7.599  0.1918  0.0469 -0.0206
   13loPI   C1B  205  14.361  14.313   9.143 -0.0762  0.1216 -0.3967
   13loPI   C2B  206  14.409  14.426   8.700  0.1070 -0.3063  0.2798
   13loPI   C3B  207  14.469  14.567   8.213  0.1552 -0.1783 -0.3151
   13loPI   C4B  208  14.394  14.547   7.880 -0.0591  0.1176  0.2001
   14loPI    C1  209   4.845  17.185   9.852 -0.0002  0.0342 -0.2015
   14loPI    C2  210   4.953  17.397  10.173  0.0136  0.1498 -0.2819
   14loPI    C3  211   4.657  17.129  10.200  0.3276 -0.1830 -0.0542
   14loPI   PO4  212   5.111  17.088   9.765 -0.4297  0.1270  0.1699
   14loPI   GL1  213   5.188  17.001   9.314  0.2130  0.0109 -0.0341
   14loPI   GL2  214   5.219  16.663   9.139 -0.3574 -0.1400 -0.3006
   14loPI   C1A  215   4.968  17.137   8.931 -0.0243 -0.0232  0.0172
   14loPI   C2A  216   5.003  17.163   8.417  0.0801  0.0594 -0.0753
   14loPI   C3A  217   5.290  17.232   8.215 -0.0986  0.0078  0.1873
   14loPI   C4A  218   5.698  17.337   7.933  0.0663  0.3446  0.0866
   14loPI   C5A  219   5.770  17.640   7.718 -0.1707  0.1533  0.2492
   14loPI   C6A  220   5.977  17.954   7.474  0.1998  0.2013 -0.0308
   14loPI   C1B  221   5.444  16.460   8.718 -0.0753  0.0489  0.2656
   14loPI   C2B  222   5.479  16.248   8.335  0.1528 -0.0124  0.2413
   14loPI   C3B  223   5.260  15.920   8.034 -0.0833  0.0502  0.0706
   14loPI   C4B  224   5.289  15.837   7.587 -0.5690 -0.2183 -0.0271
   15loPI    C1  225   7.020   3.718   9.311 -0.2489  0.0876 -0.0923
   15loPI    C2  226   6.748   4.005   9.374 -0.0815  0.2132  0.0717
   15loPI    C3  227   6.919   3.821   9.685 -0.0575  0.0594 -0.0316
   15loPI   PO4  228   7.288   3.854   9.176 -0.1451 -0.0878 -0.0503
   15loPI   GL1  229   7.436   3.988   8.733  0.0563 -0.1141  0.0249
   15loPI   GL2  230   7.656   3.797   8.788 -0.0737  0.1530 -0.2304
   15loPI   C1A  231   7.339   3.769   8.313  0.4199  0.1269  0.0516
   15loPI   C2A  232   7.316   3.806   7.887 -0.0296 -0.0767 -0.3464
   15loPI   C3A  233   6.984   3.868   7.672  0.3364  0.2744  0.1641
   15loPI   C4A  234   6.657   4.070   7.458 -0.0203 -0.0282  0.3227
   15loPI   C5A  235   6.771   4.394   7.238  0.0097 -0.0246  0.0869
   15loPI   C6A  236   7.258   4.446   6.934  0.4780  0.2877  0.1592
   15loPI   C1B  237   7.783   3.528   8.524  0.0425 -0.0658 -0.2867
   15loPI   C2B  238   7.768   3.628   8.075 -0.0673  0.1024  0.2381
   15loPI   C3B  239   7.846   3.697   7.695  0.3510 -0.2882 -0.2260
   15loPI   C4B  240   7.548   3.746   7.456 -0.1561 -0.2882 -0.2076
   16loPI    C1  241  13.476  17.552  10.185  0.0533 -0.0070  0.0669
   16loPI    C2  242  13.706  17.874  10.242  0.2353 -0.1092 -0.0754
   16loPI    C3  243  13.308  17.913  10.222  0.2509  0.0953 -0.0174
   16loPI   PO4  244  13.579  17.485   9.975  0.2028 -0.0133  0.0494
   16loPI   GL1  245  13.747  17.652   9.481 -0.2479  0.1275  0.1620
   16loPI   GL2  246  13.625  18.003   9.280 -0.0156  0.1220 -0.0127
   16loPI   C1A  247  13.697  17.546   9.025 -0.4208  0.0267 -0.2041
   16loPI   C2A  248  13.829  17.471   8.498 -0.1419  0.0850  0.2625
   16loPI   C3A  249  13.898  17.220   8.197  0.0326 -0.1781 -0.1586
   16loPI   C4A  250  14.130  17.163   7.848  0.2649 -0.0899  0.0504
   16loPI   C5A  251  14.071  17.283   7.387  0.1632  0.1124 -0.0644
   16loPI   C6A  252  13.806  17.154   7.018 -0.0387 -0.1239 -0.0628
   16loPI   C1B  253  13.507  17.986   8.835 -0.2623 -0.0128 -0.0651
   16loPI   C2B  254  13.614  17.936   8.359  0.0336 -0.0132 -0.0137
   16loPI   C3B  255  13.851  17.809   8.018  0.0426 -0.1359 -0.3038
   16loPI   C4B  256  13.754  17.502   7.674 -0.2686 -0.2498 -0.2493
   17loPI    C1  257   8.892   3.501  10.007 -0.0471 -0.2807  0.0178
   17loPI    C2  258   8.669   3.696   9.739  0.1259  0.0598  0.1157
   17loPI    C3  259   8.500   3.547  10.069 -0.0412 -0.1289 -0.0527
   17loPI   PO4  260   9.070   3.363   9.901  0.1686 -0.0635  0.0437
   17loPI   GL1  261   9.101   3.400   9.478  0.3470 -0.0678 -0.2382
   17loPI   GL2  262   9.211   3.066   9.516  0.1732  0.1592 -0.3218
   17loPI   C1A  263   9.078   3.524   9.057  0.1597  0.0178  0.1000
   17loPI   C2A  264   9.154   3.414   8.617  0.1320 -0.0777  0.1916
   17loPI   C3A  265   9.127   3.565   8.404  0.1530  0.1991 -0.1650
   17loPI   C4A  266   9.070   3.561   8.077 -0.1047  0.4827  0.3959
   17loPI   C5A  267   9.290   3.683   7.733 -0.0893  0.2420 -0.0932
   17loPI   C6A  268   9.299   3.565   7.305  0.3823  0.2093 -0.1647
   17loPI   C1B  269   9.035   3.008   9.066  0.1468 -0.0258 -0.4182
   17loPI   C2B  270   9.075   2.958   8.617 -0.3862 -0.0792  0.0464
   17loPI   C3B  271   9.029   3.073   8.109  0.2633 -0.1682  0.1476
   17loPI   C4B  272   9.066   3.242   7.650 -0.3049 -0.0382 -0.1871
   18loPI    C1  273  13.812  12.758  10.085  0.1508 -0.4214 -0.2134
   18loPI    C2  274  13.685  12.391  10.182 -0.0755 -0.2607  0.1187
   18loPI    C3  275  13.660  12.688  10.449  0.2544 -0.0373 -0.0916
   18loPI   PO4  276  13.790  12.748   9.848 -0.3535  0.0806  0.3080
   18loPI   GL1  277  13.817  12.799   9.466  0.1189  0.1832  0.3587
   18loPI   GL2  278  13.739  13.193   9.599  0.2755 -0.0014  0.0984
   18loPI   C1A  279  13.901  12.927   9.077  0.2317  0.0215  0.0163
   18loPI   C2A  280  13.933  13.037   8.626  0.2601  0.1586 -0.2397
   18loPI   C3A  281  13.922  13.181   8.227  0.0778 -0.0590  0.2450
   18loPI   C4A  282  14.157  12.987   7.887 -0.1236  0.1588 -0.1589
   18loPI   C5A  283  14.095  12.780   7.503  0.0740 -0.1146  0.0743
   18loPI   C6A  284  14.353  12.892   7.083 -0.0837 -0.2088 -0.0372
   18loPI   C1B  285  13.819  13.454   9.216  0.0920 -0.0903 -0.3156
   18loPI   C2B  286  13.659  13.751   8.894 -0.2445  0.1638 -0.0602
   18loPI   C3B  287  13.877  13.714   8.459 -0.4065  0.1034 -0.1523
   18loPI   C4B  288  13.780  13.912   8.131  0.2393  0.0092  0.1839
   19loPI    C1  289  14.543  10.468   9.515 -0.0348 -0.3175 -0.0494
   19loPI    C2  290  14.268  10.301   9.277  0.1663 -0.2397 -0.3413
   19loPI    C3  291  14.657  10.269   9.187  0.2494 -0.2640  0.0144
   19loPI   PO4  292  14.479  10.768   9.602  0.1561  0.0089 -0.1088
   19loPI   GL1  293  14.388  10.881   9.228  0.1233 -0.1785 -0.3756
   19loPI   GL2  294  14.260  11.251   9.184 -0.1089  0.2518  0.0633
   19loPI   C1A  295  14.396  10.620   8.774  0.0514  0.0813 -0.1294
   19loPI   C2A  296  14.397  10.282   8.509  0.0077 -0.1233  0.1082
   19loPI   C3A  297  14.349  10.379   7.965 -0.0686 -0.0988 -0.0273
   19loPI   C4A  298  14.365  10.540   7.600  0.1736  0.3621 -0.0676
   19loPI   C5A  299  14.261  10.414   7.284 -0.0348  0.1214 -0.1019
   19loPI   C6A  300  14.294  10.069   7.063  0.0418  0.0528 -0.2297
   19loPI   C1B  301  14.316  11.213   8.768  0.0559 -0.1925 -0.0214
   19loPI   C2B  302  14.422  11.249   8.278 -0.3378 -0.0586  0.0659
   19loPI   C3B  303  14.801  11.493   8.191 -0.0556 -0.0354 -0.2344
   19loPI   C4B  304  15.006  11.814   8.021 -0.2140 -0.1453 -0.0303
   20loPI    C1  305  12.104   9.689   9.928  0.0823 -0.1299 -0.1483
   20loPI    C2  306  12.498   9.737   9.876  0.0606  0.1123 -0.1031
   20loPI    C3  307  12.268  10.053   9.962 -0.1372 -0.0354 -0.0817
   20loPI   PO4  308  12.075   9.526   9.621 -0.2153 -0.0514  0.0786
   20loPI   GL1  309  12.191   9.396   9.171  0.1220 -0.0527  0.1375
   20loPI   GL2  310  11.907   9.407   9.101 -0.1806  0.2634  0.0345
   20loPI   C1A  311  12.398   9.223   8.876 -0.0551  0.0686 -0.2007
   20loPI   C2A  312  12.499   9.043   8.421 -0.2779  0.0325  0.0798
   20loPI   C3A  313  12.602   9.074   7.954 -0.1213  0.3554 -0.2246
   20loPI   C4A  314  12.692   9.136   7.581  0.1184  0.2255  0.0203
   20loPI   C5A  315  12.779   9.307   7.142 -0.0816  0.0407  0.1412
   20loPI   C6A  316  13.066   9.362   6.839 -0.2722 -0.1344  0.0378
   20loPI   C1B  317  11.844   9.692   8.734  0.1344  0.4370 -0.1659
   20loPI   C2B  318  11.492   9.816   8.408  0.1462 -0.1543 -0.0731
   20loPI   C3B  319  11.395   9.781   7.948  0.0015 -0.3064  0.0244
   20loPI   C4B  320  11.564  10.146   7.759  0.0928 -0.0496  0.3155
   21loPI    C1  321  17.410   0.560   9.534  0.1445  0.0219  0.0529
   21loPI    C2  322  17.514   0.907   9.364  0.1898 -0.0059  0.0237
   21loPI    C3  323  17.784   0.697   9.572  0.1655 -0.0293  0.0317
   21loPI   PO4  324  17.290   0.458   9.331 -0.0543 -0.0396 -0.2801
   21loPI   GL1  325  17.279   0.636   8.960 -0.0890  0.2111 -0.0660
   21loPI   GL2  326  17.406   0.986   8.902  0.0024 -0.2582  0.0809
   21loPI   C1A  327  17.210   0.449   8.648 -0.1193  0.0571 -0.0450
   21loPI   C2A  328  17.053   0.521   8.233 -0.2896  0.0412 -0.1775
   21loPI   C3A  329  16.979   0.505   7.871 -0.0577 -0.0852  0.1328
   21loPI   C4A  330  16.946   0.378   7.414  0.0781  0.1184 -0.2451
   21loPI   C5A  331  17.183   0.188   6.946  0.1554  0.0795 -0.1569
   21loPI   C6A  332  17.374   0.446   6.608  0.2119 -0.2782 -0.2077
   21loPI   C1B  333  17.490   0.929   8.438  0.0540  0.0777 -0.2979
   21loPI   C2B  334  17.409   0.802   8.091  0.1789 -0.0156  0.2536
   21loPI   C3B  335  17.298   0.737   7.580  0.3061  0.2508 -0.0475
   21loPI   C4B  336  17.205   0.819   7.139 -0.1015  0.1626 -0.0951
   22loPI    C1  337   3.507   8.633   9.917  0.0912 -0.3861  0.2382
   22loPI    C2  338   3.512   8.923  10.192 -0.1175 -0.0354 -0.1180
   22loPI    C3  339   3.283   8.600  10.247 -0.0143 -0.0576  0.2027
   22loPI   PO4  340   3.519   8.796   9.633  0.0075  0.2570 -0.1206
   22loPI   GL1  341   3.411   8.942   9.359  0.2718  0.0612  0.2001
   22loPI   GL2  342   3.145   8.751   9.285 -0.6186 -0.0170  0.0154
   22loPI   C1A  343   3.388   9.058   8.926  0.0606 -0.0353  0.0970
   22loPI   C2A  344   3.492   9.065   8.515 -0.0770 -0.0956  0.1428
   22loPI   C3A  345   3.193   8.964   8.119  0.1312 -0.0122 -0.1217
   22loPI   C4A  346   3.200   8.840   7.731 -0.0554  0.1148 -0.0365
   22loPI   C5A  347   3.355   8.606   7.421  0.0443 -0.1366 -0.1520
   22loPI   C6A  348   3.455   8.121   7.153  0.3042  0.0584 -0.2539
   22loPI   C1B  349   2.873   8.703   8.929 -0.0640  0.0335  0.0430
   22loPI   C2B  350   2.867   8.629   8.478 -0.1223  0.1566  0.1482
   22loPI   C3B  351   3.044   8.369   8.166 -0.1508  0.1697 -0.0191
   22loPI   C4B  352   3.252   7.974   8.132 -0.0804 -0.1177 -0.1271
   23loPI    C1  353   1.209  16.093  10.059 -0.1457 -0.1061 -0.0601
   23loPI    C2  354   1.543  15.874  10.041 -0.1291 -0.0839 -0.0262
   23loPI    C3  355   1.487  16.128  10.345 -0.2266 -0.1677  0.0267
   23loPI   PO4  356   1.158  16.148   9.809 -0.2185 -0.1651 -0.2158
   23loPI   GL1  357   0.824  16.238   9.516  0.1794 -0.0448  0.0804
   23loPI   GL2  358   1.047  16.272   9.224 -0.2050  0.3279  0.0938
   23loPI   C1A  359   0.575  16.133   9.229 -0.1133 -0.2661  0.3213
   23loPI   C2A  360   0.606  15.898   8.841  0.0672 -0.1537 -0.0354
   23loPI   C3A  361   0.578  15.994   8.416 -0.0086 -0.0230  0.2411
   23loPI   C4A  362   0.642  16.035   7.945 -0.3124 -0.0257  0.2601
   23loPI   C5A  363   0.612  16.265   7.512  0.3897 -0.0541 -0.1468
   23loPI   C6A  364   0.604  16.080   7.131  0.1758 -0.3400 -0.1022
   23loPI   C1B  365   1.033  16.616   8.885 -0.0572 -0.1014 -0.1766
   23loPI   C2B  366   0.667  16.794   8.655  0.2380  0.2035 -0.0493
   23loPI   C3B  367   0.592  17.031   8.283  0.0651 -0.0174  0.3328
   23loPI   C4B  368   0.774  17.079   7.827  0.0703 -0.0066  0.0292
   24loPI    C1  369   7.693  10.116   9.811  0.0880 -0.0813 -0.3313
   24loPI    C2  370   8.091  10.147   9.781  0.1279  0.1462  0.2823
   24loPI    C3  371   7.929   9.955  10.092 -0.2462 -0.1830 -0.1028
   24loPI   PO4  372   7.658  10.119   9.577 -0.0117 -0.2553  0.0972
   24loPI   GL1  373   7.917  10.062   9.237 -0.1197  0.2116 -0.0641
   24loPI   GL2  374   7.670   9.823   9.011 -0.0969 -0.3110  0.0390
   24loPI   C1A  375   7.844  10.185   8.792 -0.2247 -0.4460  0.4446
   24loPI   C2A  376   8.001  10.384   8.636 -0.2754  0.0981  0.1436
   24loPI   C3A  377   7.876  10.539   8.267  0.1565 -0.0931 -0.0655
   24loPI   C4A  378   7.982  10.812   7.872 -0.0984 -0.0852  0.0458
   24loPI   C5A  379   8.344  11.103   7.687 -0.3850  0.0005 -0.3681
   24loPI   C6A  380   8.601  11.268   7.269 -0.5682 -0.1439  0.0683
   24loPI   C1B  381   7.948   9.727   8.582  0.1033 -0.0253  0.3645
   24loPI   C2B  382   8.053   9.403   8.403  0.2870  0.1167 -0.1796
   24loPI   C3B  383   8.188   9.207   8.113  0.0106 -0.1210  0.2057
   24loPI   C4B  384   7.898   9.221   7.821 -0.1416 -0.0802 -0.0669
   25loPI    C1  385  19.174   9.586   9.747 -0.1306 -0.0445  0.1885
   25loPI    C2  386  19.139   9.721  10.122 -0.2874  0.0541  0.1397
   25loPI    C3  387  19.178   9.329  10.053 -0.0193  0.0550  0.2717
   25loPI   PO4  388  19.043   9.714   9.614  0.4620  0.2547  0.1321
   25loPI   GL1  389  19.050   9.868   9.222 -0.0060  0.1267 -0.1878
   25loPI   GL2  390  19.266   9.992   9.214  0.0574 -0.1110  0.1168
   25loPI   C1A  391  18.785   9.834   8.858  0.0107  0.1162  0.1633
   25loPI   C2A  392  18.804   9.768   8.455 -0.0095  0.0426 -0.0352
   25loPI   C3A  393  18.492   9.749   8.041 -0.1368 -0.0726  0.0438
   25loPI   C4A  394  18.604   9.625   7.592  0.0401  0.0411  0.0722
   25loPI   C5A  395  18.882   9.734   7.175  0.0510  0.1464 -0.1293
   25loPI   C6A  396  18.776   9.485   6.816 -0.0405 -0.0457 -0.2125
   25loPI   C1B  397  19.308   9.818   8.777 -0.1780  0.0484  0.0204
   25loPI   C2B  398  19.390   9.933   8.351 -0.0262  0.0858 -0.0573
   25loPI   C3B  399  19.450  10.125   7.930 -0.2774 -0.1169 -0.0023
   25loPI   C4B  400  19.882  10.312   7.759 -0.3707 -0.3002  0.1643
   26loPI    C1  401  19.365  10.313  10.174 -0.0442  0.0190 -0.0548
   26loPI    C2  402  19.566  10.451  10.491  0.1643 -0.2104 -0.0846
   26loPI    C3  403  19.283  10.676  10.320  0.1403 -0.0329  0.1837
   26loPI   PO4  404  19.570  10.273   9.975  0.2478  0.0160  0.0850
   26loPI   GL1  405  19.625  10.265   9.471  0.5348 -0.2717  0.0061
   26loPI   GL2  406  19.571  10.525   9.501  0.0039  0.0080  0.0171
   26loPI   C1A  407  19.968  10.427   9.238  0.0052  0.2263  0.1921
   26loPI   C2A  408  20.084  10.647   8.816 -0.0120  0.2095  0.0964
   26loPI   C3A  409  20.121  10.775   8.372  0.0198  0.3586 -0.1968
   26loPI   C4A  410  20.106  10.750   7.969 -0.0130 -0.0804  0.2628
   26loPI   C5A  411  20.048  10.811   7.554  0.2697 -0.0079  0.0506
   26loPI   C6A  412  19.722  10.753   7.181  0.1136  0.0626 -0.0039
   26loPI   C1B  413  19.622  10.696   8.999  0.1833 -0.4715  0.0970
   26loPI   C2B  414  19.584  10.837   8.569 -0.1745  0.1082  0.1347
   26loPI   C3B  415  19.520  10.924   8.112 -0.0566 -0.1978  0.0788
   26loPI   C4B  416  19.596  10.909   7.762  0.3887 -0.2163  0.2100
   27loPI    C1  417  13.267  14.389  10.250  0.2487  0.1265  0.1504
   27loPI    C2  418  13.241  14.016  10.390  0.0548  0.1877  0.2813
   27loPI    C3  419  13.544  14.251  10.504  0.2298  0.0407  0.1243
   27loPI   PO4  420  13.307  14.405  10.022  0.0921  0.2414 -0.1373
   27loPI   GL1  421  13.233  14.334   9.651  0.2236 -0.1322  0.1358
   27loPI   GL2  422  13.079  14.585   9.639 -0.3780  0.2622  0.1783
   27loPI   C1A  423  13.339  14.554   9.245  0.2162 -0.0059 -0.2028
   27loPI   C2A  424  13.121  14.660   8.795  0.0348 -0.1018  0.0358
   27loPI   C3A  425  12.982  14.570   8.341  0.3745  0.2815 -0.1367
   27loPI   C4A  426  13.021  14.789   7.946 -0.0301 -0.0928 -0.1864
   27loPI   C5A  427  12.912  14.767   7.503 -0.2556 -0.1616  0.1278
   27loPI   C6A  428  12.875  14.771   6.996  0.3176 -0.0116  0.1505
   27loPI   C1B  429  12.918  14.341   9.282 -0.2669  0.0630 -0.1950
   27loPI   C2B  430  12.802  14.165   8.935  0.0479 -0.0799  0.0917
   27loPI   C3B  431  12.885  14.104   8.589 -0.2946 -0.0302  0.1067
   27loPI   C4B  432  12.866  14.150   8.100  0.2193  0.1183  0.0615
   28loPI    C1  433   3.370  13.134   9.440  0.1057  0.3787  0.0116
   28loPI    C2  434   3.743  13.138   9.583  0.0462 -0.1986  0.2097
   28loPI    C3  435   3.452  13.331   9.779  0.1982  0.0840  0.1635
   28loPI   PO4  436   3.377  13.209   9.244  0.1826  0.2282 -0.2001
   28loPI   GL1  437   3.580  13.338   8.879  0.0600  0.0189  0.0812
   28loPI   GL2  438   3.366  13.557   8.669  0.0086  0.0902 -0.0400
   28loPI   C1A  439   3.759  13.295   8.469 -0.0968  0.2135  0.2960
   28loPI   C2A  440   3.679  13.196   7.937 -0.2252  0.0673 -0.2609
   28loPI   C3A  441   3.620  13.036   7.655 -0.1044  0.0417  0.0825
   28loPI   C4A  442   3.529  12.821   7.191  0.0549  0.0947  0.0117
   28loPI   C5A  443   3.627  12.428   7.047  0.1211  0.0779  0.0839
   28loPI   C6A  444   3.862  12.089   7.150 -0.0093 -0.0832  0.0410
   28loPI   C1B  445   3.476  13.650   8.190 -0.2740  0.3843 -0.2073
   28loPI   C2B  446   3.589  13.870   7.809  0.0963 -0.0531  0.0080
   28loPI   C3B  447   3.797  13.508   7.571  0.1025  0.0267  0.1290
   28loPI   C4B  448   3.875  13.264   7.196 -0.1412 -0.0578 -0.3233
   29loPI    C1  449  10.897   8.891   9.700  0.1059  0.2781 -0.1781
   29loPI    C2  450  10.522   8.965   9.582 -0.0175  0.1530  0.1246
   29loPI    C3  451  10.663   9.134   9.915  0.0790 -0.0715  0.1998
   29loPI   PO4  452  11.010   8.970   9.462 -0.1373  0.1586 -0.0877
   29loPI   GL1  453  10.977   8.765   9.067 -0.0966 -0.3628  0.3704
   29loPI   GL2  454  10.803   8.995   8.952 -0.0714 -0.0231 -0.0416
   29loPI   C1A  455  10.956   8.727   8.584 -0.0275 -0.2635 -0.2338
   29loPI   C2A  456  10.939   8.777   8.156 -0.0350  0.1888 -0.1087
   29loPI   C3A  457  11.108   9.054   7.927 -0.3533  0.0651 -0.2180
   29loPI   C4A  458  11.317   9.358   7.616  0.0362  0.3220  0.1066
   29loPI   C5A  459  11.699   9.429   7.513  0.0487  0.0553  0.0316
   29loPI   C6A  460  12.164   9.324   7.581 -0.1165 -0.1114 -0.1742
   29loPI   C1B  461  11.049   9.283   8.699 -0.3410  0.0945  0.0096
   29loPI   C2B  462  11.244   9.398   8.247 -0.1605 -0.3910 -0.1100
   29loPI   C3B  463  11.754   9.457   8.220 -0.0660 -0.4770 -0.0943
   29loPI   C4B  464  12.198   9.336   8.168  0.3933  0.3279  0.0153
   30loPI    C1  465   3.195   6.102   9.727 -0.1167 -0.0057  0.1724
   30loPI    C2  466   3.552   6.105   9.907  0.0707 -0.0418 -0.1895
   30loPI    C3  467   3.222   6.030  10.120  0.2654  0.0847  0.1671
   30loPI   PO4  468   3.262   6.049   9.490  0.1736 -0.1662  0.3549
   30loPI   GL1  469   3.301   6.175   9.173 -0.0278 -0.2448 -0.1594
   30loPI   GL2  470   3.494   6.456   9.266  0.1986 -0.4552  0.1741
   30loPI   C1A  471   3.292   6.232   8.788  0.0606  0.0838  0.0469
   30loPI   C2A  472   3.441   6.065   8.372 -0.0035  0.3377 -0.0569
   30loPI   C3A  473   3.399   5.941   7.972  0.0992 -0.2343 -0.2818
   30loPI   C4A  474   3.458   5.887   7.587  0.1749  0.1614 -0.2249
   30loPI   C5A  475   3.571   5.622   7.236  0.1545  0.0858  0.1798
   30loPI   C6A  476   3.389   5.627   6.886 -0.0605  0.1643 -0.0808
   30loPI   C1B  477   3.547   6.646   8.892 -0.1011  0.2684  0.2487
   30loPI   C2B  478   3.597   6.688   8.374 -0.1012 -0.0445 -0.1546
   30loPI   C3B  479   3.970   6.752   7.995  0.1853 -0.0984 -0.1429
   30loPI   C4B  480   4.140   6.797   7.645 -0.1422  0.1496  0.1685
   31loPI    C1  481   9.321   5.203   9.505 -0.0472 -0.1691 -0.0450
   31loPI    C2  482   9.558   5.064   9.794 -0.0650  0.0223  0.0634
   31loPI    C3  483   9.205   5.227   9.887 -0.1418 -0.0615 -0.0795
   31loPI   PO4  484   9.457   5.027   9.268  0.1000 -0.1442 -0.0879
   31loPI   GL1  485   9.667   5.041   8.729 -0.0695  0.0036 -0.3054
   31loPI   GL2  486   9.604   5.347   8.840 -0.2417  0.3698  0.0288
   31loPI   C1A  487   9.619   5.012   8.301 -0.0469  0.0523  0.0574
   31loPI   C2A  488   9.773   5.002   7.955 -0.1352  0.1872  0.1430
   31loPI   C3A  489   9.698   4.984   7.504  0.1318 -0.2881 -0.2152
   31loPI   C4A  490   9.602   4.909   7.123 -0.2797 -0.0189  0.2473
   31loPI   C5A  491   9.472   4.766   6.730 -0.5195  0.3159 -0.2243
   31loPI   C6A  492   9.402   4.647   6.279  0.1711  0.1523  0.1573
   31loPI   C1B  493  10.004   5.307   8.580  0.0212 -0.0192 -0.1840
   31loPI   C2B  494  10.180   5.375   8.108 -0.1056  0.0276 -0.0596
   31loPI   C3B  495  10.010   5.426   7.739 -0.3987 -0.0626 -0.3445
   31loPI   C4B  496   9.807   5.493   7.463 -0.1657 -0.0934 -0.1938
   32loPI    C1  497   6.575   2.274   9.609 -0.1900  0.1124  0.2171
   32loPI    C2  498   6.876   2.024   9.690 -0.0691  0.1244 -0.1758
   32loPI    C3  499   6.504   1.883   9.653 -0.0317  0.0314 -0.2025
   32loPI   PO4  500   6.674   2.391   9.391  0.0491 -0.1519 -0.3739
   32loPI   GL1  501   6.441   2.467   9.084  0.1777 -0.0523  0.1494
   32loPI   GL2  502   6.330   2.083   9.170  0.2257 -0.2390 -0.0191
   32loPI   C1A  503   6.595   2.483   8.674  0.2655  0.2506 -0.3280
   32loPI   C2A  504   6.676   2.368   8.345  0.0949 -0.3808 -0.2768
   32loPI   C3A  505   6.886   2.403   7.939 -0.1576 -0.1399  0.2151
   32loPI   C4A  506   6.941   2.421   7.511  0.2884 -0.3663 -0.0018
   32loPI   C5A  507   7.056   2.158   7.178  0.1670  0.1512 -0.0667
   32loPI   C6A  508   7.420   2.040   7.032  0.1081  0.0120  0.1445
   32loPI   C1B  509   6.371   2.075   8.682 -0.2364 -0.2905 -0.2196
   32loPI   C2B  510   6.695   1.870   8.464  0.3530  0.0515  0.0138
   32loPI   C3B  511   6.751   1.849   8.041 -0.3095  0.0826  0.0136
   32loPI   C4B  512   6.834   1.880   7.590 -0.1913  0.0967 -0.0782
   33loPI    C1  513  11.018   2.468   9.826  0.0552 -0.0402 -0.0832
   33loPI    C2  514  10.680   2.526   9.620  0.0949  0.0461 -0.1242
   33loPI    C3  515  10.755   2.743   9.947  0.2898  0.3041 -0.3341
   33loPI   PO4  516  11.220   2.463   9.574  0.2371 -0.2010  0.2531
   33loPI   GL1  517  11.108   2.531   9.187 -0.1420  0.1390 -0.0873
   33loPI   GL2  518  11.324   2.350   9.097  0.1167 -0.0393  0.0896
   33loPI   C1A  519  11.144   2.812   8.866 -0.6177  0.2089 -0.1255
   33loPI   C2A  520  11.299   2.854   8.475 -0.3901  0.1288  0.1555
   33loPI   C3A  521  11.160   2.752   8.138  0.0395  0.2417  0.1137
   33loPI   C4A  522  11.436   2.649   7.704  0.0453 -0.4279 -0.0452
   33loPI   C5A  523  11.557   2.618   7.290 -0.0176  0.0129  0.1648
   33loPI   C6A  524  11.705   2.598   6.845  0.0752  0.2607 -0.1297
   33loPI   C1B  525  11.469   2.428   8.672  0.0250  0.1442 -0.2234
   33loPI   C2B  526  11.327   2.279   8.377 -0.0183  0.1235  0.1051
   33loPI   C3B  527  11.329   2.202   8.002 -0.0465 -0.0789  0.1448
   33loPI   C4B  528  11.338   2.194   7.537 -0.3146 -0.1806 -0.1203
   34loPI    C1  529   3.318  11.748   9.724  0.2163 -0.0132 -0.2189
   34loPI    C2  530   3.631  11.952   9.869  0.0968 -0.0507  0.0987
   34loPI    C3  531   3.312  11.883  10.101 -0.0583 -0.1989 -0.1544
   34loPI   PO4  532   3.347  11.636   9.453  0.2439 -0.2875 -0.1394
   34loPI   GL1  533   3.573  11.677   9.058 -0.1404 -0.3215  0.1971
   34loPI   GL2  534   3.427  11.407   8.994  0.0959  0.2026  0.1296
   34loPI   C1A  535   3.099  11.845   8.806  0.1321 -0.0531  0.2506
   34loPI   C2A  536   3.098  11.924   8.434  0.0736  0.0439  0.0225
   34loPI   C3A  537   2.970  11.904   8.013  0.0745 -0.0568  0.0973
   34loPI   C4A  538   2.803  11.866   7.727  0.0794 -0.3998  0.0273
   34loPI   C5A  539   2.754  11.905   7.277 -0.4329  0.2885  0.0115
   34loPI   C6A  540   3.027  11.834   7.002  0.0709 -0.2778 -0.0295
   34loPI   C1B  541   3.428  11.549   8.582  0.1988 -0.2414  0.1242
   34loPI   C2B  542   3.418  11.578   8.122  0.0583  0.3600  0.1000
   34loPI   C3B  543   3.312  11.647   7.697  0.1338 -0.1810  0.3979
   34loPI   C4B  544   3.252  11.988   7.482 -0.1208  0.3216 -0.2225
   35loPI    C1  545   0.314   9.291   9.932  0.0846 -0.3086  0.3508
   35loPI    C2  546   0.595   9.564  10.011 -0.1046  0.0603 -0.1925
   35loPI    C3  547   0.235   9.593  10.182  0.0532 -0.1889  0.1974
   35loPI   PO4  548   0.283   9.342   9.693 -0.3301  0.0265 -0.0250
   35loPI   GL1  549   0.068   9.546   9.348 -0.2541 -0.1376 -0.1873
   35loPI   GL2  550  -0.185   9.375   9.193  0.1329  0.0231 -0.3371
   35loPI   C1A  551   0.334   9.484   8.987  0.0506  0.0868 -0.1529
   35loPI   C2A  552   0.374   9.769   8.591  0.0757 -0.2748 -0.1011
   35loPI   C3A  553   0.464   9.961   8.149 -0.1957 -0.3080  0.1006
   35loPI   C4A  554   0.430   9.769   7.721 -0.0427  0.0658 -0.0942
   35loPI   C5A  555   0.030   9.791   7.449 -0.2115 -0.0671  0.0299
   35loPI   C6A  556  -0.093   9.396   7.118 -0.1222 -0.0442  0.2293
   35loPI   C1B  557  -0.306   9.369   8.760  0.1517 -0.0398  0.0580
   35loPI   C2B  558  -0.245   9.340   8.332 -0.1711  0.4266  0.3119
   35loPI   C3B  559  -0.353   9.755   7.980  0.0031 -0.3089 -0.1380
   35loPI   C4B  560  -0.484  10.127   7.962 -0.1324  0.3964  0.0247
   36loPI    C1  561   1.201   7.570   9.634 -0.0498  0.0351  0.1252
   36loPI    C2  562   1.427   7.875   9.758  0.0134  0.1264 -0.2050
   36loPI    C3  563   1.514   7.502   9.874  0.0511  0.2109  0.0450
   36loPI   PO4  564   1.199   7.562   9.393 -0.0621 -0.3117  0.2517
   36loPI   GL1  565   0.967   7.362   9.080  0.0362 -0.4504  0.2259
   36loPI   GL2  566   1.272   7.145   9.089  0.1172 -0.1137 -0.0650
   36loPI   C1A  567   0.880   7.164   8.703 -0.4147  0.4306  0.0267
   36loPI   C2A  568   0.698   7.120   8.318 -0.1177 -0.2774  0.0013
   36loPI   C3A  569   0.730   7.092   7.850  0.0772  0.1820 -0.2961
   36loPI   C4A  570   0.486   6.887   7.613  0.0605 -0.0427  0.2912
   36loPI   C5A  571   0.492   6.565   7.343  0.1415  0.0262 -0.3381
   36loPI   C6A  572   0.214   6.275   7.279  0.0381  0.0846 -0.0908
   36loPI   C1B  573   1.393   7.277   8.570 -0.2232  0.1335 -0.3501
   36loPI   C2B  574   1.685   7.159   8.237  0.0100 -0.3450 -0.2861
   36loPI   C3B  575   1.827   7.091   7.834 -0.0084 -0.0390  0.0121
   36loPI   C4B  576   2.068   7.031   7.401  0.0530 -0.2461 -0.0309
   37loPI    C1  577   5.035   2.567   9.423  0.4910  0.0126  0.0584
   37loPI    C2  578   4.766   2.466   9.701  0.1580 -0.1702 -0.3196
   37loPI    C3  579   4.819   2.850   9.605 -0.1638 -0.1498 -0.4271
   37loPI   PO4  580   4.987   2.446   9.225 -0.1235 -0.0215 -0.0227
   37loPI   GL1  581   4.979   2.504   8.799  0.0004 -0.2033  0.3230
   37loPI   GL2  582   5.103   2.849   8.973 -0.0283  0.0513  0.2673
   37loPI   C1A  583   5.080   2.705   8.501  0.0478  0.3514 -0.0299
   37loPI   C2A  584   4.934   2.675   8.073  0.0649 -0.0733 -0.1035
   37loPI   C3A  585   4.950   2.749   7.663 -0.0019 -0.1249 -0.4200
   37loPI   C4A  586   4.875   2.585   7.240  0.1974  0.1605 -0.2514
   37loPI   C5A  587   5.031   2.253   6.941 -0.2255  0.0941  0.1420
   37loPI   C6A  588   5.332   2.115   6.654 -0.1224 -0.1722  0.0056
   37loPI   C1B  589   4.868   3.133   8.593  0.1571 -0.1292  0.2970
   37loPI   C2B  590   4.695   3.078   8.149 -0.4195 -0.0503  0.0467
   37loPI   C3B  591   4.468   2.850   7.776 -0.0353 -0.0515 -0.1714
   37loPI   C4B  592   4.390   2.525   7.414  0.3941  0.2832  0.0599
   38loPI    C1  593  17.139  10.285   9.879 -0.1254 -0.0780  0.1758
   38loPI    C2  594  17.476  10.179  10.067  0.1115  0.0140 -0.1871
   38loPI    C3  595  17.347  10.557  10.085  0.0400 -0.0157 -0.0686
   38loPI   PO4  596  17.215  10.208   9.617 -0.0634 -0.1165  0.1546
   38loPI   GL1  597  16.963  10.106   9.243  0.1491  0.0694  0.3182
   38loPI   GL2  598  16.773  10.191   9.178  0.1885  0.0817 -0.2718
   38loPI   C1A  599  17.176   9.735   8.993 -0.1996 -0.4743 -0.0825
   38loPI   C2A  600  17.209   9.786   8.540 -0.0629 -0.0434 -0.4514
   38loPI   C3A  601  17.109   9.355   8.341 -0.0766 -0.2436 -0.0267
   38loPI   C4A  602  16.786   9.085   8.017  0.0471 -0.2694  0.1488
   38loPI   C5A  603  16.419   9.070   7.774  0.0705  0.0775  0.1765
   38loPI   C6A  604  16.068   9.107   7.576  0.2518  0.1572  0.0963
   38loPI   C1B  605  16.928  10.176   8.757 -0.1650 -0.1316  0.0147
   38loPI   C2B  606  16.792  10.172   8.461 -0.2135  0.1962  0.0169
   38loPI   C3B  607  16.767  10.185   8.065 -0.0561 -0.0485 -0.1882
   38loPI   C4B  608  16.613   9.989   7.627  0.3449 -0.4303  0.0697
   39loPI    C1  609  16.402   7.128   9.161 -0.0009  0.1310  0.0207
   39loPI    C2  610  16.688   7.370   9.302  0.0027  0.1029  0.0620
   39loPI    C3  611  16.572   7.051   9.515  0.1094 -0.0213 -0.0645
   39loPI   PO4  612  16.271   7.319   9.000  0.1694  0.1222 -0.0840
   39loPI   GL1  613  16.364   7.578   8.656  0.1486 -0.0505 -0.1196
   39loPI   GL2  614  16.260   7.826   8.593  0.0194 -0.0803  0.0036
   39loPI   C1A  615  16.481   7.461   8.291 -0.1886 -0.2280  0.1077
   39loPI   C2A  616  16.716   7.684   7.988 -0.0623 -0.1386  0.0909
   39loPI   C3A  617  16.796   7.647   7.553 -0.2445 -0.1651 -0.0741
   39loPI   C4A  618  16.884   7.426   7.230 -0.2811  0.3559 -0.2245
   39loPI   C5A  619  16.747   7.214   6.896  0.0044  0.0932 -0.1427
   39loPI   C6A  620  16.474   7.236   6.630  0.1656 -0.0468  0.0813
   39loPI   C1B  621  16.111   7.770   8.251 -0.0705  0.2217 -0.0531
   39loPI   C2B  622  16.234   7.907   7.954  0.0603 -0.0893  0.2245
   39loPI   C3B  623  16.324   7.594   7.750 -0.0826  0.1311 -0.0742
   39loPI   C4B  624  16.484   7.199   7.543  0.1014  0.0110 -0.1968
   40loPI    C1  625  13.920  13.236  10.188 -0.2960  0.0150 -0.0634
   40loPI    C2  626  14.007  13.480  10.493  0.2303 -0.1260 -0.0906
   40loPI    C3  627  13.899  13.101  10.564 -0.0812 -0.0363 -0.0686
   40loPI   PO4  628  13.840  13.420  10.012  0.1798 -0.0318  0.1850
   40loPI   GL1  629  13.930  13.688   9.680  0.0178  0.0251  0.2895
   40loPI   GL2  630  14.328  13.620   9.634 -0.0666  0.1186 -0.0076
   40loPI   C1A  631  14.109  13.887   9.272 -0.3545  0.1529 -0.0743
   40loPI   C2A  632  14.209  13.938   8.816 -0.1266  0.1491 -0.2975
   40loPI   C3A  633  14.368  13.974   8.474 -0.0599  0.0871 -0.2202
   40loPI   C4A  634  14.278  14.159   8.065  0.1354  0.2203 -0.1640
   40loPI   C5A  635  14.305  14.032   7.678 -0.1062  0.2630 -0.1374
   40loPI   C6A  636  14.469  13.800   7.348 -0.1724 -0.0120 -0.1519
   40loPI   C1B  637  14.637  13.656   9.348 -0.1261 -0.3095  0.2457
   40loPI   C2B  638  14.676  13.722   8.872  0.0693 -0.0759 -0.0725
   40loPI   C3B  639  14.753  13.678   8.354 -0.0759 -0.1755  0.2168
   40loPI   C4B  640  14.663  13.738   7.845 -0.0031 -0.0851  0.1249
   41loPI    C1  641  16.571  13.678  10.338  0.0636  0.2269  0.0408
   41loPI    C2  642  16.397  13.721  10.695 -0.1568  0.1191 -0.0517
   41loPI    C3  643  16.706  13.472  10.653 -0.0736  0.1982  0.0815
   41loPI   PO4  644  16.662  13.867  10.230 -0.1985  0.0621  0.0627
   41loPI   GL1  645  16.813  14.191   9.915 -0.0445 -0.1841  0.0271
   41loPI   GL2  646  16.529  14.301  10.077  0.3097  0.1401  0.1063
   41loPI   C1A  647  16.703  13.972   9.613 -0.0339 -0.1143 -0.0694
   41loPI   C2A  648  16.446  13.878   9.358  0.1557 -0.2658  0.0372
   41loPI   C3A  649  16.507  13.848   8.969  0.0257 -0.0215  0.2023
   41loPI   C4A  650  16.607  13.655   8.504 -0.2737 -0.3476  0.2314
   41loPI   C5A  651  16.696  13.762   8.040  0.0411 -0.0201  0.2040
   41loPI   C6A  652  16.878  13.744   7.696 -0.1049  0.3189 -0.2599
   41loPI   C1B  653  16.283  14.286   9.757 -0.0809  0.0616  0.4031
   41loPI   C2B  654  16.342  14.484   9.265 -0.1642 -0.2090 -0.1512
   41loPI   C3B  655  16.373  14.598   8.960  0.2104  0.0623  0.0574
   41loPI   C4B  656  16.390  14.647   8.489  0.2213  0.1903  0.1224
   42loPI    C1  657   8.386  17.470  10.024 -0.0805  0.0602 -0.1107
   42loPI    C2  658   8.313  17.154  10.257  0.1924  0.0771  0.0008
   42loPI    C3  659   8.438  17.497  10.420  0.6063  0.0213 -0.1876
   42loPI   PO4  660   8.591  17.461   9.785  0.2664  0.0235 -0.1545
   42loPI   GL1  661   8.809  17.682   9.486 -0.1081  0.0181  0.0265
   42loPI   GL2  662   8.670  17.434   9.303 -0.1034  0.1598  0.1087
   42loPI   C1A  663   9.020  17.756   9.119  0.1050 -0.3751 -0.2959
   42loPI   C2A  664   9.144  17.995   8.822  0.3581 -0.0539 -0.0170
   42loPI   C3A  665   9.136  18.019   8.414 -0.0033  0.0628  0.2040
   42loPI   C4A  666   9.293  18.041   7.973  0.2021  0.1170  0.0624
   42loPI   C5A  667   9.621  17.823   7.758 -0.0107 -0.4586  0.0884
   42loPI   C6A  668  10.051  17.715   7.745  0.0500 -0.1209  0.0941
   42loPI   C1B  669   8.706  17.452   8.868  0.1065  0.1323  0.1986
   42loPI   C2B  670   8.873  17.640   8.551  0.1886  0.2542 -0.0147
   42loPI   C3B  671   8.888  17.656   8.130 -0.0294 -0.1664  0.0023
   42loPI   C4B  672   8.795  17.608   7.676  0.2974  0.1388  0.2206
   43loPI    C1  673   9.143  12.072  10.264  0.0714  0.1828  0.3801
   43loPI    C2  674   9.516  11.984  10.378  0.0815  0.1049  0.2872
   43loPI    C3  675   9.252  11.691  10.313  0.1128  0.1403 -0.0150
   43loPI   PO4  676   9.179  12.311  10.156 -0.2244 -0.0984  0.0608
   43loPI   GL1  677   9.342  12.467   9.703  0.2275 -0.1846  0.0647
   43loPI   GL2  678   9.196  12.758   9.770  0.1445 -0.0689 -0.2856
   43loPI   C1A  679   9.492  12.500   9.228  0.4526  0.3970  0.0351
   43loPI   C2A  680   9.784  12.492   8.886 -0.1627 -0.5262  0.0978
   43loPI   C3A  681   9.930  12.474   8.503 -0.1176  0.0478 -0.2381
   43loPI   C4A  682   9.917  12.391   8.141 -0.3919  0.0242 -0.1352
   43loPI   C5A  683   9.597  12.415   7.861  0.0561  0.0741 -0.1927
   43loPI   C6A  684   9.236  12.235   7.758  0.0397  0.1018 -0.0342
   43loPI   C1B  685   9.099  12.816   9.289  0.3736  0.1140 -0.0166
   43loPI   C2B  686   9.155  12.716   8.868  0.0613  0.0546 -0.3582
   43loPI   C3B  687   9.196  12.910   8.485 -0.0348 -0.1591  0.0169
   43loPI   C4B  688   9.194  12.867   8.046  0.0136  0.0535 -0.1741
   44loPI    C1  689   6.644  16.300   9.748 -0.0456  0.1518 -0.0592
   44loPI    C2  690   6.980  16.084   9.726 -0.0271  0.1797 -0.0510
   44loPI    C3  691   6.779  16.106  10.071 -0.1240  0.0327 -0.0973
   44loPI   PO4  692   6.449  16.231   9.658  0.4019 -0.1349 -0.0630
   44loPI   GL1  693   6.541  16.023   9.212  0.2655  0.2746 -0.1645
   44loPI   GL2  694   6.233  16.119   9.206  0.1067  0.3388 -0.3157
   44loPI   C1A  695   6.787  16.097   8.784 -0.2161  0.2082 -0.2845
   44loPI   C2A  696   6.982  16.302   8.493  0.0153  0.1455 -0.0760
   44loPI   C3A  697   6.934  16.544   8.137  0.0131 -0.1436  0.2625
   44loPI   C4A  698   7.094  16.563   7.673 -0.0726  0.1600 -0.3084
   44loPI   C5A  699   6.737  16.631   7.413 -0.1302 -0.4940 -0.1638
   44loPI   C6A  700   6.382  16.928   7.407  0.0383 -0.0724  0.0132
   44loPI   C1B  701   6.283  16.121   8.790  0.1137 -0.2360 -0.1860
   44loPI   C2B  702   6.440  16.021   8.372 -0.2851 -0.3865 -0.2972
   44loPI   C3B  703   6.387  16.034   7.933 -0.1866 -0.1200 -0.3270
   44loPI   C4B  704   6.247  15.815   7.548 -0.0010  0.1526  0.3587
   45loPI    C1  705  16.518  11.737  10.076 -0.2793 -0.0611 -0.0742
   45loPI    C2  706  16.278  11.669  10.389 -0.2204 -0.0440 -0.0254
   45loPI    C3  707  16.652  11.799  10.447 -0.1180 -0.3026 -0.0897
   45loPI   PO4  708  16.328  11.846   9.858  0.2907  0.3705 -0.0637
   45loPI   GL1  709  16.329  12.018   9.533 -0.0993  0.0958  0.1343
   45loPI   GL2  710  16.557  11.928   9.258  0.0141 -0.2975 -0.2406
   45loPI   C1A  711  16.048  12.003   9.228  0.1491 -0.0778 -0.2104
   45loPI   C2A  712  15.926  12.066   8.789  0.1976  0.0861 -0.3334
   45loPI   C3A  713  15.705  12.200   8.490 -0.2876 -0.1415 -0.1877
   45loPI   C4A  714  15.624  12.122   8.083  0.3274  0.2981 -0.5622
   45loPI   C5A  715  15.410  12.288   7.711 -0.0731  0.1304  0.0613
   45loPI   C6A  716  15.056  12.464   7.407 -0.0567 -0.2534  0.1324
   45loPI   C1B  717  16.425  12.164   8.905 -0.1064  0.3817  0.0516
   45loPI   C2B  718  16.325  12.153   8.534 -0.5805  0.0173  0.3833
   45loPI   C3B  719  16.053  12.374   8.212  0.0431 -0.2102 -0.0725
   45loPI   C4B  720  16.283  12.846   8.022 -0.1705  0.1854 -0.2032
   46loPI    C1  721  14.494   5.031   9.308 -0.1599 -0.0415 -0.0564
   46loPI    C2  722  14.305   5.186   9.625  0.1920  0.3891 -0.0469
   46loPI    C3  723  14.695   5.100   9.647  0.0684 -0.2437 -0.1480
   46loPI   PO4  724  14.419   5.166   9.139 -0.2995 -0.1127 -0.1307
   46loPI   GL1  725  14.689   5.101   8.734  0.0509 -0.0291 -0.0471
   46loPI   GL2  726  14.363   5.014   8.673  0.1800  0.0885  0.3324
   46loPI   C1A  727  14.971   5.141   8.529  0.0462 -0.0473  0.0521
   46loPI   C2A  728  15.071   5.143   8.074 -0.0849  0.1554  0.1166
   46loPI   C3A  729  14.934   5.309   7.639 -0.1880 -0.0905  0.1524
   46loPI   C4A  730  14.832   5.332   7.236 -0.0335  0.0665  0.3327
   46loPI   C5A  731  14.717   5.639   6.917 -0.0128 -0.0327  0.1844
   46loPI   C6A  732  14.700   6.079   6.847  0.1213  0.0265 -0.1256
   46loPI   C1B  733  14.588   5.098   8.227  0.3068  0.5218 -0.0047
   46loPI   C2B  734  14.485   5.128   7.806  0.0413 -0.1727  0.2144
   46loPI   C3B  735  14.312   5.198   7.321 -0.0597 -0.1398 -0.1370
   46loPI   C4B  736  14.213   5.247   7.001 -0.0273 -0.1058  0.0262
   47loPI    C1  737  14.285   1.886   9.756  0.1618  0.0138  0.2322
   47loPI    C2  738  13.900   1.840   9.852  0.1986 -0.0694  0.3423
   47loPI    C3  739  14.159   1.979  10.123  0.2118  0.1671  0.2111
   47loPI   PO4  740  14.292   1.965   9.541  0.0393  0.1600  0.2683
   47loPI   GL1  741  14.442   1.879   9.230  0.4074 -0.0961  0.1463
   47loPI   GL2  742  14.677   2.085   9.103 -0.2325 -0.2241 -0.0080
   47loPI   C1A  743  14.267   2.030   8.872 -0.0603 -0.2007  0.0432
   47loPI   C2A  744  14.310   1.934   8.366 -0.0404 -0.2779 -0.1288
   47loPI   C3A  745  14.038   1.796   8.064 -0.0079  0.1400  0.1135
   47loPI   C4A  746  14.096   1.687   7.565  0.4240  0.0578 -0.0906
   47loPI   C5A  747  13.886   1.402   7.437  0.0875  0.2496  0.2733
   47loPI   C6A  748  13.636   1.094   7.237 -0.0553 -0.1739 -0.2598
   47loPI   C1B  749  14.701   2.132   8.622  0.0201  0.0530  0.2876
   47loPI   C2B  750  14.707   2.036   8.192  0.0597  0.0747  0.2422
   47loPI   C3B  751  14.789   2.262   7.825 -0.3513  0.2903 -0.0908
   47loPI   C4B  752  15.067   2.374   7.492 -0.4204 -0.1025  0.2168
   48loPI    C1  753  10.954   3.297  10.308 -0.0746 -0.0788 -0.0349
   48loPI    C2  754  11.161   2.960  10.245 -0.0678 -0.0298 -0.2853
   48loPI    C3  755  11.021   3.044  10.610  0.0188 -0.2532 -0.1993
   48loPI   PO4  756  10.794   3.226   9.984  0.1506 -0.0922 -0.0272
   48loPI   GL1  757  10.682   3.271   9.554 -0.0742  0.2049 -0.1260
   48loPI   GL2  758  10.505   3.040   9.627 -0.0504 -0.2303  0.0971
   48loPI   C1A  759  10.823   2.901   9.281 -0.3490  0.0613 -0.0201
   48loPI   C2A  760  10.596   2.602   9.029 -0.0428  0.0345 -0.0966
   48loPI   C3A  761  10.485   2.390   8.790 -0.0391 -0.1576 -0.0066
   48loPI   C4A  762  10.301   2.468   8.401  0.1079 -0.0179  0.0535
   48loPI   C5A  763  10.279   2.484   8.013 -0.0353  0.1185  0.2732
   48loPI   C6A  764  10.298   2.613   7.666  0.0991  0.3109 -0.0064
   48loPI   C1B  765  10.331   2.915   9.282 -0.0456 -0.3826 -0.2291
   48loPI   C2B  766  10.331   2.953   8.790  0.0324  0.0217 -0.2100
   48loPI   C3B  767  10.367   2.985   8.337  0.0318 -0.1113 -0.1804
   48loPI   C4B  768  10.650   2.813   8.055  0.1840  0.3206  0.2088
   49loPI    C1  769   6.798   8.515   9.654 -0.0086  0.0740 -0.2036
   49loPI    C2  770   6.659   8.179   9.487 -0.0303  0.0142 -0.0665
   49loPI    C3  771   6.715   8.198   9.883  0.5007 -0.0175 -0.1325
   49loPI   PO4  772   6.933   8.566   9.511  0.0383 -0.0512 -0.1851
   49loPI   GL1  773   6.988   8.653   9.083 -0.1747  0.0029 -0.2073
   49loPI   GL2  774   7.060   8.332   9.039  0.0269 -0.1703  0.0865
   49loPI   C1A  775   7.100   8.931   8.733  0.0890  0.0740  0.2590
   49loPI   C2A  776   7.137   9.152   8.284 -0.1126  0.2146 -0.0053
   49loPI   C3A  777   7.250   9.253   7.907  0.1675  0.3204 -0.0011
   49loPI   C4A  778   7.238   9.076   7.471 -0.0019 -0.0467  0.3026
   49loPI   C5A  779   6.976   8.978   7.077 -0.0229 -0.3111  0.1497
   49loPI   C6A  780   6.639   8.717   6.965  0.1329  0.2809 -0.0029
   49loPI   C1B  781   7.197   8.350   8.610 -0.0646 -0.3431 -0.0085
   49loPI   C2B  782   7.216   8.640   8.254  0.1184  0.2071  0.0036
   49loPI   C3B  783   6.996   8.799   7.869  0.3223 -0.0648 -0.0011
   49loPI   C4B  784   6.788   9.202   7.623 -0.2001  0.0141  0.0093
   50loPI    C1  785   2.411   0.038  10.033 -0.0504 -0.0121 -0.0070
   50loPI    C2  786   2.502  -0.334   9.917  0.0305 -0.0105  0.0507
   50loPI    C3  787   2.420  -0.259  10.301 -0.3160 -0.0308 -0.0162
   50loPI   PO4  788   2.312   0.164   9.850 -0.1669  0.1567 -0.0738
   50loPI   GL1  789   1.992   0.208   9.587 -0.0487 -0.2315 -0.0943
   50loPI   GL2  790   1.889  -0.088   9.626  0.0279  0.0506 -0.1109
   50loPI   C1A  791   1.796   0.325   9.063  0.0465  0.4566 -0.1506
   50loPI   C2A  792   1.841   0.266   8.625  0.0179  0.0355 -0.2247
   50loPI   C3A  793   2.075   0.343   8.299 -0.2302 -0.0184  0.0767
   50loPI   C4A  794   2.131   0.328   7.855  0.0184  0.0827 -0.1196
   50loPI   C5A  795   2.016  -0.030   7.518  0.4178  0.1560  0.0907
   50loPI   C6A  796   1.892  -0.426   7.311 -0.0674 -0.1341 -0.3321
   50loPI   C1B  797   1.746  -0.091   9.247 -0.3274  0.3086  0.1504
   50loPI   C2B  798   1.704  -0.125   8.876 -0.1256  0.1423 -0.3927
   50loPI   C3B  799   1.755  -0.287   8.516 -0.0241  0.0305  0.1134
   50loPI   C4B  800   1.812  -0.046   8.174 -0.3211  0.1180 -0.0248
   51loPI    C1  801  17.117   8.458   9.575 -0.0913 -0.2480  0.0776
   51loPI    C2  802  17.403   8.722   9.483 -0.0923 -0.2441  0.0854
   51loPI    C3  803  17.297   8.667   9.865 -0.2809 -0.0594  0.0617
   51loPI   PO4  804  17.164   8.263   9.443 -0.1185  0.2094 -0.1683
   51loPI   GL1  805  17.266   8.137   9.011  0.1643 -0.1212 -0.0934
   51loPI   GL2  806  17.316   8.428   9.018  0.1680 -0.1179 -0.1994
   51loPI   C1A  807  17.135   8.212   8.569 -0.0293 -0.1473  0.1257
   51loPI   C2A  808  17.059   8.119   8.155 -0.1601 -0.2332  0.1026
   51loPI   C3A  809  17.087   8.087   7.717  0.0883  0.0014 -0.1533
   51loPI   C4A  810  17.239   7.877   7.284 -0.0171 -0.2212  0.1244
   51loPI   C5A  811  17.339   7.607   7.027  0.0365 -0.0471 -0.0718
   51loPI   C6A  812  17.144   7.479   6.616  0.1670 -0.0176 -0.2928
   51loPI   C1B  813  17.584   8.411   8.683 -0.0744  0.1107 -0.1197
   51loPI   C2B  814  17.541   8.274   8.238  0.0174 -0.1823 -0.0129
   51loPI   C3B  815  17.605   8.194   7.774  0.2323  0.3051 -0.0308
   51loPI   C4B  816  17.715   8.332   7.465 -0.0772  0.1285  0.3758
   52loPI    C1  817   9.400   3.799   9.670 -0.0993 -0.0187  0.0482
   52loPI    C2  818   9.093   4.051   9.625  0.2326  0.3661 -0.1268
   52loPI    C3  819   9.198   3.927   9.990 -0.2021  0.1312 -0.0750
   52loPI   PO4  820   9.566   3.931   9.560  0.1967 -0.0693  0.1008
   52loPI   GL1  821   9.862   3.930   9.297  0.2195 -0.0954  0.0422
   52loPI   GL2  822  10.084   4.224   9.213  0.2190 -0.0437 -0.0961
   52loPI   C1A  823   9.653   3.643   9.020  0.0132  0.0257 -0.3450
   52loPI   C2A  824   9.581   3.640   8.631  0.0735  0.1004 -0.0738
   52loPI   C3A  825   9.582   3.709   8.225  0.1339  0.0996  0.1628
   52loPI   C4A  826   9.811   3.913   8.006 -0.2484  0.2955 -0.1974
   52loPI   C5A  827   9.866   4.003   7.533 -0.1014  0.2328  0.1461
   52loPI   C6A  828   9.664   3.866   7.200  0.0673 -0.3211 -0.2636
   52loPI   C1B  829  10.210   4.347   8.807 -0.0671  0.1995 -0.1569
   52loPI   C2B  830  10.026   4.256   8.323  0.3003  0.2515  0.0015
   52loPI   C3B  831  10.215   3.821   8.227  0.0745 -0.1386 -0.0432
   52loPI   C4B  832  10.283   3.710   7.777  0.0285 -0.2414  0.0262
   53loPI    C1  833  12.350   1.394  10.021 -0.0260  0.0306  0.3239
   53loPI    C2  834  12.602   1.087  10.073  0.1513  0.0648 -0.2542
   53loPI    C3  835  12.744   1.460  10.037 -0.0399  0.1785  0.1134
   53loPI   PO4  836  12.100   1.233   9.830 -0.1382  0.0559 -0.0193
   53loPI   GL1  837  12.122   1.153   9.382  0.1319  0.0865 -0.1443
   53loPI   GL2  838  12.279   0.825   9.537  0.0574 -0.2060 -0.1201
   53loPI   C1A  839  12.081   1.087   9.031  0.2075 -0.0032 -0.0163
   53loPI   C2A  840  12.060   1.066   8.525 -0.1435  0.4741  0.0146
   53loPI   C3A  841  11.997   0.964   8.059  0.0709  0.2668  0.0694
   53loPI   C4A  842  12.235   1.210   7.705  0.0363 -0.0468  0.1465
   53loPI   C5A  843  12.531   1.242   7.434 -0.3998 -0.2522 -0.5649
   53loPI   C6A  844  12.864   1.310   7.234 -0.0086  0.3871  0.0054
   53loPI   C1B  845  12.514   0.542   9.367  0.0240  0.0988 -0.3051
   53loPI   C2B  846  12.681   0.510   8.986  0.1097 -0.0651  0.0063
   53loPI   C3B  847  12.486   0.675   8.719 -0.2008  0.0972  0.2748
   53loPI   C4B  848  12.628   0.467   8.356  0.3133 -0.0285 -0.0819
   54loPI    C1  849   1.592  12.441  10.120  0.0862  0.0420 -0.0405
   54loPI    C2  850   1.965  12.413  10.261  0.0243  0.0343  0.1231
   54loPI    C3  851   1.654  12.349  10.504 -0.0832 -0.0016 -0.0229
   54loPI   PO4  852   1.647  12.447   9.881  0.4574 -0.3962  0.3627
   54loPI   GL1  853   1.449  12.615   9.551  0.1459 -0.3366 -0.1166
   54loPI   GL2  854   1.223  12.839   9.564 -0.0740  0.0590 -0.2277
   54loPI   C1A  855   1.261  12.591   9.066 -0.3627 -0.1468 -0.0540
   54loPI   C2A  856   1.247  12.534   8.678  0.3043 -0.0390 -0.0267
   54loPI   C3A  857   1.114  12.513   8.278 -0.2250  0.0899  0.0116
   54loPI   C4A  858   0.998  12.682   7.848  0.0250  0.2035 -0.1323
   54loPI   C5A  859   0.970  12.584   7.409  0.0019 -0.0255  0.0740
   54loPI   C6A  860   1.208  12.399   7.169  0.2252 -0.3215  0.1011
   54loPI   C1B  861   0.932  12.744   9.392  0.3061  0.1094 -0.1743
   54loPI   C2B  862   0.729  12.590   9.098  0.0043  0.0493  0.2137
   54loPI   C3B  863   0.702  12.575   8.622 -0.1959 -0.0979 -0.4255
   54loPI   C4B  864   0.686  12.689   8.252 -0.0442 -0.2458 -0.1746
   55loPI    C1  865   6.311   4.786   9.368  0.0145 -0.1230 -0.0041
   55loPI    C2  866   6.236   5.078   9.631  0.0157 -0.0499 -0.0844
   55loPI    C3  867   6.085   4.712   9.690  0.0171 -0.0342  0.0183
   55loPI   PO4  868   6.241   4.799   9.109  0.1127 -0.0895 -0.3171
   55loPI   GL1  869   6.074   4.519   8.778 -0.2754  0.0128 -0.2592
   55loPI   GL2  870   5.906   4.285   8.795  0.0198 -0.1038  0.1166
   55loPI   C1A  871   6.059   4.610   8.422 -0.0658 -0.0381 -0.0490
   55loPI   C2A  872   6.179   4.691   8.015  0.0819 -0.4096  0.2294
   55loPI   C3A  873   6.062   4.834   7.680  0.2756  0.1633 -0.2770
   55loPI   C4A  874   6.160   5.037   7.404 -0.3149  0.0743 -0.0205
   55loPI   C5A  875   6.400   5.354   7.094  0.0694  0.2786  0.1686
   55loPI   C6A  876   6.463   5.647   6.685 -0.2988  0.0412  0.1057
   55loPI   C1B  877   5.724   4.245   8.373  0.2472 -0.0322 -0.4175
   55loPI   C2B  878   5.670   4.491   7.945  0.0596 -0.0742 -0.2715
   55loPI   C3B  879   5.376   4.495   7.506  0.1339 -0.1135  0.0793
   55loPI   C4B  880   5.019   4.665   7.378  0.0327  0.3545 -0.2094
   56loPI    C1  881  15.173  11.067   9.887  0.1200  0.2449 -0.0188
   56loPI    C2  882  15.491  11.050  10.129  0.1439  0.2630 -0.0489
   56loPI    C3  883  15.183  10.800  10.184  0.3097  0.0153 -0.2274
   56loPI   PO4  884  15.175  11.352   9.793  0.4574 -0.1730 -0.3939
   56loPI   GL1  885  15.093  11.597   9.452 -0.1379 -0.0538  0.1087
   56loPI   GL2  886  15.424  11.732   9.338 -0.1511 -0.3491  0.2268
   56loPI   C1A  887  15.177  11.358   8.987 -0.0744  0.0886  0.0995
   56loPI   C2A  888  15.185  11.254   8.544 -0.1879 -0.0754 -0.0429
   56loPI   C3A  889  14.972  11.048   8.170  0.5151 -0.0814  0.1196
   56loPI   C4A  890  14.924  11.311   7.740  0.0951  0.0878  0.2537
   56loPI   C5A  891  14.957  11.484   7.467  0.2223  0.0736  0.3249
   56loPI   C6A  892  15.157  11.948   7.402  0.1042  0.1853  0.1698
   56loPI   C1B  893  15.711  11.481   9.199  0.0357 -0.1260  0.1525
   56loPI   C2B  894  15.668  11.106   8.969  0.1183  0.4763  0.0744
   56loPI   C3B  895  15.291  10.858   8.875 -0.0304 -0.0238 -0.3302
   56loPI   C4B  896  15.154  10.652   8.505  0.1255 -0.2895 -0.3346
   57loPI    C1  897   9.018   9.043   9.951 -0.1089  0.0364 -0.0429
   57loPI    C2  898   9.413   9.100   9.972 -0.0899  0.0779 -0.4438
   57loPI    C3  899   9.176   9.240  10.262  0.1702  0.2166 -0.2939
   57loPI   PO4  900   9.018   8.968   9.689  0.2321 -0.5022 -0.0750
   57loPI   GL1  901   9.002   8.826   9.186 -0.1374 -0.2699 -0.4042
   57loPI   GL2  902   8.670   8.947   9.208  0.1496 -0.1467  0.0508
   57loPI   C1A  903   9.184   8.769   8.781 -0.0343  0.0941  0.0115
   57loPI   C2A  904   9.095   8.504   8.578  0.2401 -0.1625  0.1330
   57loPI   C3A  905   9.086   8.392   8.133  0.1437  0.2897  0.0059
   57loPI   C4A  906   9.187   8.428   7.718 -0.1062 -0.1403 -0.2832
   57loPI   C5A  907   9.004   8.472   7.312 -0.0837 -0.0560  0.1197
   57loPI   C6A  908   9.029   8.612   6.903  0.0851 -0.1855 -0.0914
   57loPI   C1B  909   8.664   8.984   8.869 -0.3159 -0.0072  0.1709
   57loPI   C2B  910   8.740   8.820   8.432  0.1039  0.0356 -0.0770
   57loPI   C3B  911   8.649   8.906   7.972  0.1409 -0.0982  0.1691
   57loPI   C4B  912   8.332   9.042   7.668 -0.0715 -0.2535  0.0308
   58loPI    C1  913   9.429   1.780   9.808 -0.0306 -0.0711  0.4154
   58loPI    C2  914   9.073   1.858   9.644  0.1468 -0.0840  0.0112
   58loPI    C3  915   9.134   1.930  10.033 -0.2747 -0.0231  0.0716
   58loPI   PO4  916   9.671   1.907   9.698 -0.2229 -0.0243 -0.0820
   58loPI   GL1  917   9.764   2.040   9.282  0.0500 -0.1715 -0.2125
   58loPI   GL2  918   9.346   1.972   9.255  0.1505  0.0864 -0.0190
   58loPI   C1A  919   9.805   1.817   8.917 -0.1759  0.0987 -0.2384
   58loPI   C2A  920   9.523   1.663   8.669 -0.0313 -0.2499 -0.0839
   58loPI   C3A  921   9.509   1.725   8.349  0.1475 -0.1436 -0.0995
   58loPI   C4A  922   9.601   1.671   7.919 -0.0011  0.2574 -0.0800
   58loPI   C5A  923   9.677   1.931   7.571 -0.0690 -0.1438 -0.2304
   58loPI   C6A  924   9.801   1.876   7.128  0.0366  0.1627 -0.2504
   58loPI   C1B  925   9.440   2.162   8.837  0.0378  0.1055  0.0388
   58loPI   C2B  926   9.438   2.192   8.398 -0.1681  0.0129 -0.1571
   58loPI   C3B  927   9.408   2.161   7.966 -0.1869  0.4415  0.3166
   58loPI   C4B  928   9.263   2.301   7.650  0.1226  0.0889  0.0873
   59loPI    C1  929   2.205   2.593   9.783 -0.2539  0.0386 -0.0585
   59loPI    C2  930   2.544   2.762   9.911 -0.1128 -0.1380 -0.1930
   59loPI    C3  931   2.308   2.567  10.169 -0.1438  0.0367 -0.0876
   59loPI   PO4  932   2.243   2.653   9.529 -0.1226  0.0093 -0.1779
   59loPI   GL1  933   2.271   2.434   9.152  0.0761 -0.4203 -0.0364
   59loPI   GL2  934   2.476   2.345   8.857  0.0964 -0.1567 -0.2395
   59loPI   C1A  935   2.054   2.482   8.750  0.1993  0.0606  0.3787
   59loPI   C2A  936   2.242   2.465   8.337 -0.2579  0.0166 -0.1776
   59loPI   C3A  937   2.156   2.618   7.901  0.1987 -0.1556 -0.1408
   59loPI   C4A  938   1.962   2.530   7.524  0.1092 -0.1014 -0.1391
   59loPI   C5A  939   1.792   2.445   7.157 -0.0064  0.2343 -0.1520
   59loPI   C6A  940   1.758   2.566   6.704 -0.3094 -0.3748  0.0522
   59loPI   C1B  941   2.384   2.026   8.551  0.2836  0.1552 -0.0061
   59loPI   C2B  942   2.585   2.047   8.158  0.1958  0.0852 -0.2401
   59loPI   C3B  943   2.532   2.131   7.808 -0.0303  0.0396  0.2004
   59loPI   C4B  944   2.418   2.357   7.469  0.0802 -0.1218  0.1486
   60loPI    C1  945  15.870   4.256   9.962  0.3093 -0.0791  0.0194
   60loPI    C2  946  15.664   4.358  10.289  0.1868 -0.1053 -0.0490
   60loPI    C3  947  15.822   3.992  10.258  0.0627 -0.1561 -0.0870
   60loPI   PO4  948  15.702   4.257   9.733  0.0361 -0.0519  0.0751
   60loPI   GL1  949  15.910   4.234   9.334  0.0727  0.0977  0.1616
   60loPI   GL2  950  16.147   4.256   9.089  0.0160 -0.2420  0.2849
   60loPI   C1A  951  15.750   3.938   9.036  0.0411  0.0132 -0.4232
   60loPI   C2A  952  15.855   3.720   8.628 -0.5891 -0.0115 -0.2714
   60loPI   C3A  953  15.886   3.387   8.144 -0.1608  0.1346 -0.0804
   60loPI   C4A  954  15.681   3.368   7.764 -0.0708 -0.0681 -0.3038
   60loPI   C5A  955  15.670   3.220   7.323 -0.1200 -0.3303  0.0199
   60loPI   C6A  956  15.792   3.460   6.970 -0.3212  0.2010  0.3465
   60loPI   C1B  957  16.227   4.021   8.730 -0.1670 -0.1530  0.1814
   60loPI   C2B  958  16.098   3.892   8.269 -0.2226  0.3023  0.0425
   60loPI   C3B  959  16.007   3.763   7.869 -0.0780 -0.0419  0.0292
   60loPI   C4B  960  15.966   3.609   7.466 -0.1521 -0.0329 -0.0313
   61loPI    C1  961  16.275  14.963  10.954  0.3021  0.0370  0.0783
   61loPI    C2  962  16.349  14.580  10.865 -0.2015 -0.1584  0.4536
   61loPI    C3  963  16.461  14.728  11.219  0.1452  0.0980  0.2438
   61loPI   PO4  964  16.255  15.064  10.560 -0.2657 -0.2790 -0.2636
   61loPI   GL1  965  16.220  14.830  10.099 -0.1016 -0.0251 -0.0531
   61loPI   GL2  966  16.073  15.129  10.088 -0.0794 -0.3386  0.0197
   61loPI   C1A  967  16.569  14.694   9.791  0.2823 -0.0919  0.0117
   61loPI   C2A  968  16.570  14.862   9.414  0.0032  0.0022  0.1662
   61loPI   C3A  969  16.466  15.108   9.033 -0.1971  0.0115  0.0981
   61loPI   C4A  970  16.433  15.159   8.578  0.0584 -0.0043 -0.0633
   61loPI   C5A  971  16.414  15.136   8.208 -0.1627 -0.1209 -0.0312
   61loPI   C6A  972  16.221  15.277   7.765  0.0069  0.0192 -0.1514
   61loPI   C1B  973  16.067  15.220   9.719 -0.0226 -0.0351  0.3630
   61loPI   C2B  974  15.832  15.387   9.406 -0.0656  0.1264  0.1608
   61loPI   C3B  975  15.782  15.835   9.249 -0.1308  0.2619 -0.1963
   61loPI   C4B  976  15.443  16.108   9.058  0.0357  0.1977  0.1433
   62loPI    C1  977   3.310   0.916   9.951 -0.0548  0.1559  0.0112
   62loPI    C2  978   3.628   0.758  10.136 -0.0980  0.3033  0.2160
   62loPI    C3  979   3.260   0.639  10.235 -0.1030 -0.0274 -0.1745
   62loPI   PO4  980   3.488   0.946   9.656  0.2190 -0.0526  0.1131
   62loPI   GL1  981   3.375   0.734   9.286  0.1911  0.2393  0.1002
   62loPI   GL2  982   3.189   0.910   9.219  0.1441  0.0399  0.2813
   62loPI   C1A  983   3.356   0.846   8.755 -0.5364 -0.0493 -0.0586
   62loPI   C2A  984   3.282   0.887   8.268 -0.0070  0.0523 -0.0461
   62loPI   C3A  985   3.301   0.727   7.837 -0.1481  0.2978  0.0499
   62loPI   C4A  986   3.352   0.650   7.403  0.0602 -0.1751 -0.1578
   62loPI   C5A  987   3.423   0.547   7.015 -0.0343  0.0172 -0.4612
   62loPI   C6A  988   3.320   0.760   6.584  0.1149 -0.1819 -0.2217
   62loPI   C1B  989   2.908   1.022   8.884 -0.3863  0.0368 -0.0016
   62loPI   C2B  990   2.867   1.110   8.439 -0.3470  0.2062  0.0569
   62loPI   C3B  991   2.852   1.080   8.018  0.1493  0.1906  0.2939
   62loPI   C4B  992   2.492   1.183   7.719 -0.2610 -0.0659 -0.0070
   63loPI    C1  993   1.716  13.714  10.088  0.1827  0.3377  0.0596
   63loPI    C2  994   2.106  13.735  10.000  0.1396 -0.0141 -0.2358
   63loPI    C3  995   1.980  13.499  10.298  0.1482  0.0702 -0.1651
   63loPI   PO4  996   1.573  13.617   9.790  0.0214  0.0848 -0.3791
   63loPI   GL1  997   1.580  13.206   9.632  0.0388  0.2335  0.0751
   63loPI   GL2  998   1.823  12.907   9.532 -0.0090 -0.1507  0.2290
   63loPI   C1A  999   1.559  13.458   9.181  0.2942 -0.1458 -0.3152
   63loPI   C2A 1000   1.603  13.487   8.790  0.0533 -0.4670  0.2495
   63loPI   C3A 1001   1.509  13.754   8.479 -0.2431  0.5053 -0.1156
   63loPI   C4A 1002   1.519  13.864   8.285 -0.1509 -0.2160 -0.0424
   63loPI   C5A 1003   1.531  14.086   7.843  0.0681  0.2412 -0.1686
   63loPI   C6A 1004   1.358  13.980   7.559 -0.2803 -0.0037 -0.1509
   63loPI   C1B 1005   1.591  12.991   9.083 -0.2528  0.0242 -0.2009
   63loPI   C2B 1006   1.356  13.013   8.695  0.0781 -0.2558  0.1893
   63loPI   C3B 1007   1.462  13.039   8.341  0.0982 -0.0782  0.0533
   63loPI   C4B 1008   1.482  13.162   7.868  0.0233 -0.1965  0.2197
   64loPI    C1 1009  12.927  17.530  10.344  0.1568 -0.0304  0.0315
   64loPI    C2 1010  12.735  17.248  10.553  0.2901 -0.1169  0.0387
   64loPI    C3 1011  12.941  17.533  10.743  0.2645 -0.0918  0.0286
   64loPI   PO4 1012  13.002  17.373  10.113  0.1529 -0.1786 -0.0383
   64loPI   GL1 1013  13.138  17.348   9.652 -0.0654 -0.1831  0.0696
   64loPI   GL2 1014  13.399  17.286   9.534  0.1447  0.1415  0.1941
   64loPI   C1A 1015  12.902  17.175   9.262  0.2159  0.0289  0.1660
   64loPI   C2A 1016  13.012  17.012   8.724  0.1339  0.0979  0.1500
   64loPI   C3A 1017  12.930  17.216   8.269  0.3567 -0.1569  0.2007
   64loPI   C4A 1018  12.760  17.360   7.903 -0.1383  0.0613 -0.3256
   64loPI   C5A 1019  12.526  17.340   7.509  0.1150 -0.1032  0.1004
   64loPI   C6A 1020  12.322  17.362   7.042 -0.1621 -0.1532 -0.1665
   64loPI   C1B 1021  13.416  17.153   9.178  0.2970 -0.4037  0.1496
   64loPI   C2B 1022  13.478  17.120   8.735 -0.1711 -0.0776 -0.2296
   64loPI   C3B 1023  13.375  16.998   8.326  0.2290 -0.2214 -0.2893
   64loPI   C4B 1024  13.199  17.035   7.894  0.0963 -0.3073 -0.0857
   65loPI    C1 1025  17.814   4.171   9.896  0.0541  0.2030 -0.0582
   65loPI    C2 1026  18.096   4.225  10.175  0.2149 -0.0977 -0.1576
   65loPI    C3 1027  17.763   4.021  10.264  0.0773  0.1587 -0.0730
   65loPI   PO4 1028  17.949   4.119   9.720 -0.0794  0.2136 -0.0165
   65loPI   GL1 1029  17.907   4.409   9.326 -0.1771  0.1477  0.3334
   65loPI   GL2 1030  18.173   4.052   9.242  0.1205 -0.2725 -0.2137
   65loPI   C1A 1031  17.873   4.504   8.934  0.0159  0.1512 -0.0256
   65loPI   C2A 1032  17.978   4.424   8.445  0.2072 -0.0782  0.3465
   65loPI   C3A 1033  18.076   4.463   8.004  0.0282  0.2809 -0.0347
   65loPI   C4A 1034  18.025   4.386   7.546  0.1702 -0.1250  0.2033
   65loPI   C5A 1035  17.615   4.289   7.271 -0.1993 -0.0616  0.0813
   65loPI   C6A 1036  17.412   3.941   7.049 -0.0800  0.0432 -0.0229
   65loPI   C1B 1037  18.186   4.094   8.799 -0.1034 -0.2396 -0.1276
   65loPI   C2B 1038  18.277   3.961   8.397  0.1120  0.3823 -0.1225
   65loPI   C3B 1039  18.184   3.965   7.932  0.0848  0.3679 -0.1381
   65loPI   C4B 1040  18.376   3.938   7.612 -0.1254 -0.0569  0.3302
   66loPI    C1 1041   3.862   7.818   9.958 -0.1309 -0.2332  0.0086
   66loPI    C2 1042   4.226   7.958   9.870 -0.1929 -0.2172 -0.2299
   66loPI    C3 1043   4.078   8.004  10.238  0.0065 -0.1381 -0.1582
   66loPI   PO4 1044   3.695   7.904   9.662 -0.1649  0.0213 -0.1558
   66loPI   GL1 1045   3.465   7.835   9.138 -0.2203  0.1630 -0.1003
   66loPI   GL2 1046   3.634   7.494   9.018 -0.1570  0.3126 -0.0688
   66loPI   C1A 1047   3.656   8.039   8.811 -0.1761 -0.1350 -0.1224
   66loPI   C2A 1048   3.816   8.041   8.372 -0.1305 -0.0607 -0.3618
   66loPI   C3A 1049   4.209   8.018   8.154  0.1430  0.1153  0.5234
   66loPI   C4A 1050   4.191   7.719   7.753 -0.3147 -0.0156 -0.2770
   66loPI   C5A 1051   4.433   7.687   7.306  0.0422  0.0833  0.1154
   66loPI   C6A 1052   4.726   7.811   7.063  0.4963 -0.0012  0.1238
   66loPI   C1B 1053   3.728   7.606   8.567  0.4757 -0.3056  0.2161
   66loPI   C2B 1054   3.702   7.710   8.001 -0.1062 -0.0461  0.1815
   66loPI   C3B 1055   3.771   7.639   7.610 -0.2466  0.0379  0.0067
   66loPI   C4B 1056   3.567   7.603   7.294  0.1484  0.0616 -0.0096
   67loPI    C1 1057  16.066  11.146  10.152  0.1137  0.0959  0.0322
   67loPI    C2 1058  16.323  10.841  10.119  0.1686  0.1608 -0.1539
   67loPI    C3 1059  16.026  10.825  10.386  0.2869  0.0283 -0.0288
   67loPI   PO4 1060  16.276  11.283   9.874  0.1142 -0.0458 -0.2415
   67loPI   GL1 1061  16.338  11.521   9.426 -0.1242  0.0514  0.0465
   67loPI   GL2 1062  16.628  11.404   9.291 -0.1303  0.0705  0.1405
   67loPI   C1A 1063  16.154  11.566   8.985  0.1837 -0.5072  0.5174
   67loPI   C2A 1064  16.078  11.705   8.514 -0.0175 -0.1002 -0.2377
   67loPI   C3A 1065  15.823  11.595   8.104  0.0984 -0.0127  0.3161
   67loPI   C4A 1066  15.885  11.397   7.771 -0.0729  0.1580  0.0390
   67loPI   C5A 1067  15.815  11.028   7.548 -0.1322  0.2805  0.2548
   67loPI   C6A 1068  15.551  10.761   7.256  0.0462 -0.2114  0.3022
   67loPI   C1B 1069  16.600  11.511   8.762  0.0595 -0.1979  0.0486
   67loPI   C2B 1070  16.579  11.612   8.356 -0.0401  0.1296 -0.1964
   67loPI   C3B 1071  16.248  11.776   8.005 -0.0264 -0.2226 -0.0705
   67loPI   C4B 1072  15.985  12.104   7.745 -0.3722  0.1780  0.1795
   68loPI    C1 1073  12.459  18.215  10.008 -0.0217  0.0475 -0.0301
   68loPI    C2 1074  12.651  17.933  10.216 -0.1546  0.0056  0.0371
   68loPI    C3 1075  12.260  17.994  10.276 -0.1224  0.2180  0.0377
   68loPI   PO4 1076  12.524  18.187   9.783 -0.0032 -0.0683  0.4641
   68loPI   GL1 1077  12.501  18.180   9.464 -0.2118  0.0494  0.1268
   68loPI   GL2 1078  12.219  18.286   9.380  0.0266 -0.0371 -0.4438
   68loPI   C1A 1079  12.698  18.159   9.011  0.0048  0.1856 -0.0104
   68loPI   C2A 1080  13.042  18.007   8.741 -0.0005  0.0727  0.2191
   68loPI   C3A 1081  13.042  17.823   8.243 -0.0406 -0.1322  0.0372
   68loPI   C4A 1082  13.309  17.961   8.029 -0.0846  0.1592  0.4972
   68loPI   C5A 1083  13.492  18.121   7.700 -0.0500  0.0848 -0.2337
   68loPI   C6A 1084  13.579  18.203   7.254  0.4700  0.1111  0.1240
   68loPI   C1B 1085  12.214  17.984   9.082  0.1747  0.0432  0.1501
   68loPI   C2B 1086  12.240  18.063   8.779 -0.1216  0.1854 -0.3418
   68loPI   C3B 1087  12.573  18.177   8.502  0.0470  0.1545  0.0650
   68loPI   C4B 1088  12.625  18.485   8.263  0.1512 -0.1455  0.1434
   69loPI    C1 1089  16.218   3.156   9.559 -0.2912  0.1996  0.1763
   69loPI    C2 1090  16.071   2.904   9.832  0.0119  0.1734  0.3203
   69loPI    C3 1091  16.420   3.087   9.897  0.2739 -0.1152 -0.2086
   69loPI   PO4 1092  15.957   3.276   9.484  0.0324  0.1261  0.1424
   69loPI   GL1 1093  15.897   3.337   9.128  0.5467  0.0990  0.2491
   69loPI   GL2 1094  15.606   3.379   8.940 -0.5319 -0.1851 -0.3922
   69loPI   C1A 1095  16.102   3.242   8.695 -0.3445  0.2077 -0.2265
   69loPI   C2A 1096  16.445   3.064   8.309 -0.0697 -0.1107 -0.3303
   69loPI   C3A 1097  16.532   2.930   7.950 -0.0083  0.1658  0.1605
   69loPI   C4A 1098  16.588   2.993   7.613 -0.1187  0.1525 -0.0713
   69loPI   C5A 1099  16.423   2.689   7.182 -0.1906 -0.2779 -0.0522
   69loPI   C6A 1100  16.186   2.377   7.106  0.1244 -0.0620  0.1320
   69loPI   C1B 1101  15.513   3.278   8.539  0.1897  0.1286  0.0447
   69loPI   C2B 1102  15.286   3.159   8.131 -0.1285  0.0062  0.4072
   69loPI   C3B 1103  15.254   3.135   7.682  0.0837  0.1194 -0.1329
   69loPI   C4B 1104  15.332   2.843   7.292  0.0437 -0.0973  0.0955
   70loPI    C1 1105   1.267   3.628  10.274 -0.2332  0.0472 -0.0556
   70loPI    C2 1106   0.884   3.682  10.174 -0.2809 -0.0532  0.0695
   70loPI    C3 1107   1.041   3.886  10.480 -0.2190  0.0279 -0.0156
   70loPI   PO4 1108   1.349   3.583  10.001 -0.1251  0.0704  0.2100
   70loPI   GL1 1109   1.437   3.592   9.568 -0.2251  0.1094  0.0573
   70loPI   GL2 1110   1.166   3.728   9.454 -0.4891  0.1444  0.1455
   70loPI   C1A 1111   1.582   3.606   9.115 -0.1729 -0.0449  0.4264
   70loPI   C2A 1112   1.712   3.523   8.751  0.0751 -0.0203  0.0815
   70loPI   C3A 1113   1.790   3.596   8.386 -0.1939  0.0174  0.3039
   70loPI   C4A 1114   1.784   3.554   7.913  0.0261  0.1123  0.0368
   70loPI   C5A 1115   1.465   3.324   7.640 -0.1046 -0.2178  0.0218
   70loPI   C6A 1116   1.190   3.299   7.334  0.4377 -0.2748 -0.0129
   70loPI   C1B 1117   1.103   3.620   8.982  0.1838 -0.2761 -0.3468
   70loPI   C2B 1118   1.167   3.609   8.484 -0.1677  0.2576 -0.1668
   70loPI   C3B 1119   1.305   3.645   8.012  0.1783  0.2532  0.1267
   70loPI   C4B 1120   1.344   3.802   7.624  0.1019 -0.3445 -0.2500
   71loPI    C1 1121  10.543  13.102  10.109  0.0046  0.1807 -0.0598
   71loPI    C2 1122  10.221  13.322  10.018  0.0257  0.1389 -0.2394
   71loPI    C3 1123  10.234  13.118  10.362 -0.0463  0.3176 -0.1296
   71loPI   PO4 1124  10.582  13.012   9.833 -0.0661  0.0757  0.1544
   71loPI   GL1 1125  10.816  13.182   9.400  0.1694 -0.2770 -0.1082
   71loPI   GL2 1126  10.851  13.050   9.050  0.1157 -0.0106 -0.1555
   71loPI   C1A 1127  10.385  12.942   9.195  0.3226 -0.0069 -0.1501
   71loPI   C2A 1128  10.216  12.797   8.798  0.2059 -0.1078  0.1046
   71loPI   C3A 1129  10.214  12.846   8.334  0.0128  0.0837 -0.0767
   71loPI   C4A 1130  10.296  12.832   7.923 -0.0869  0.1090  0.1157
   71loPI   C5A 1131  10.439  12.993   7.566 -0.0147  0.1410 -0.0641
   71loPI   C6A 1132  10.773  12.750   7.511  0.0742  0.2246 -0.0911
   71loPI   C1B 1133  10.869  12.733   8.626 -0.1792 -0.3985  0.0295
   71loPI   C2B 1134  10.582  12.566   8.388  0.2381 -0.0913  0.0926
   71loPI   C3B 1135  10.464  12.384   7.913  0.0522  0.0258 -0.1573
   71loPI   C4B 1136  10.531  12.287   7.461  0.0328  0.3233 -0.1672
   72loPI    C1 1137   8.905   6.249   9.439 -0.3342  0.2120  0.0572
   72loPI    C2 1138   9.068   6.180   9.798 -0.0288  0.2069 -0.0792
   72loPI    C3 1139   8.726   6.000   9.696  0.1857 -0.2537 -0.0114
   72loPI   PO4 1140   8.907   6.567   9.373  0.0393  0.1324 -0.0761
   72loPI   GL1 1141   9.072   6.758   9.126  0.2283  0.0732  0.0534
   72loPI   GL2 1142   8.877   6.811   8.923  0.3862 -0.0730 -0.1403
   72loPI   C1A 1143   9.420   6.800   8.902 -0.3947  0.1310 -0.1987
   72loPI   C2A 1144   9.581   6.878   8.466  0.1647 -0.1296 -0.1500
   72loPI   C3A 1145   9.627   7.015   8.018 -0.0145 -0.2615 -0.0126
   72loPI   C4A 1146   9.607   6.994   7.522  0.0209  0.1812 -0.3579
   72loPI   C5A 1147   9.633   6.872   7.049 -0.0089 -0.0418  0.1987
   72loPI   C6A 1148   9.721   6.494   6.776  0.2719 -0.1783  0.1600
   72loPI   C1B 1149   8.950   6.794   8.458 -0.0561 -0.0496  0.1903
   72loPI   C2B 1150   8.889   6.915   8.028 -0.0412 -0.1766  0.3844
   72loPI   C3B 1151   9.076   7.045   7.600 -0.3672 -0.1649  0.1259
   72loPI   C4B 1152   9.267   7.179   7.215  0.4057  0.0873 -0.3182
   73loPI    C1 1153   5.085  10.267  10.171  0.1587  0.0089 -0.1514
   73loPI    C2 1154   4.963  10.352  10.543  0.0452  0.0436 -0.1959
   73loPI    C3 1155   5.050   9.975  10.442 -0.0220  0.0189 -0.1623
   73loPI   PO4 1156   4.969  10.391  10.004 -0.2840  0.1504  0.1254
   73loPI   GL1 1157   4.847  10.523   9.604 -0.2834  0.1421 -0.1874
   73loPI   GL2 1158   4.828  10.214   9.369 -0.2247  0.0849  0.0001
   73loPI   C1A 1159   4.624  10.622   9.231  0.2814  0.1039  0.2222
   73loPI   C2A 1160   4.505  10.648   8.759 -0.1363 -0.0302 -0.4011
   73loPI   C3A 1161   4.470  10.579   8.303 -0.0556  0.0789 -0.0570
   73loPI   C4A 1162   4.701  10.859   8.149  0.4374 -0.1309  0.0574
   73loPI   C5A 1163   4.844  10.958   7.825  0.0442 -0.0064  0.3505
   73loPI   C6A 1164   5.114  10.822   7.486  0.1382  0.4307  0.4013
   73loPI   C1B 1165   4.542  10.169   9.077  0.2931  0.0124  0.1614
   73loPI   C2B 1166   4.618  10.179   8.614  0.0247  0.0336 -0.1055
   73loPI   C3B 1167   4.548  10.040   8.173 -0.0020  0.0869  0.0101
   73loPI   C4B 1168   4.408  10.022   7.719  0.4214 -0.3776 -0.0221
   74loPI    C1 1169  18.132  11.625   9.919 -0.2276 -0.0026 -0.1903
   74loPI    C2 1170  17.884  11.604  10.233 -0.2056 -0.1675 -0.1830
   74loPI    C3 1171  18.175  11.879  10.225 -0.0469 -0.3249  0.0581
   74loPI   PO4 1172  17.951  11.610   9.741  0.0771 -0.0024  0.0168
   74loPI   GL1 1173  17.925  11.848   9.264 -0.0706 -0.2728 -0.1775
   74loPI   GL2 1174  18.030  12.017   9.455 -0.0492 -0.0363 -0.0517
   74loPI   C1A 1175  17.982  11.877   8.880  0.3409 -0.1161 -0.1152
   74loPI   C2A 1176  18.041  11.813   8.445 -0.2044 -0.0759 -0.1323
   74loPI   C3A 1177  17.966  11.762   8.072 -0.0162  0.3120  0.2949
   74loPI   C4A 1178  17.985  11.927   7.548 -0.1243  0.3122  0.3568
   74loPI   C5A 1179  18.291  11.953   7.318  0.3064 -0.1366  0.2879
   74loPI   C6A 1180  18.675  11.882   7.026  0.2661  0.2455 -0.1391
   74loPI   C1B 1181  18.393  12.140   9.144  0.4103  0.0738  0.2630
   74loPI   C2B 1182  18.402  12.172   8.754  0.1584 -0.0057  0.2316
   74loPI   C3B 1183  18.382  12.154   8.302  0.3063  0.2413  0.0849
   74loPI   C4B 1184  18.387  12.189   7.810  0.0123 -0.2242  0.0585
   75loPI    C1 1185   9.662  14.395   9.639 -0.1660  0.0105  0.1231
   75loPI    C2 1186   9.743  14.067   9.853 -0.0896  0.0115  0.0958
   75loPI    C3 1187   9.728  14.424  10.032  0.1945  0.0417  0.0631
   75loPI   PO4 1188   9.697  14.364   9.460 -0.1930 -0.1068  0.2217
   75loPI   GL1 1189   9.433  14.447   9.038 -0.1728  0.1048 -0.1252
   75loPI   GL2 1190   9.626  14.069   9.026  0.0077 -0.0814 -0.2600
   75loPI   C1A 1191   9.156  14.327   8.819  0.1024 -0.1755  0.0232
   75loPI   C2A 1192   9.094  14.347   8.440 -0.0035 -0.1268  0.0216
   75loPI   C3A 1193   9.188  14.224   8.046 -0.0073  0.3467  0.0672
   75loPI   C4A 1194   9.011  14.175   7.637 -0.0096 -0.3587 -0.5124
   75loPI   C5A 1195   8.733  13.952   7.462 -0.0826  0.0196  0.1144
   75loPI   C6A 1196   8.914  13.526   7.248  0.1795 -0.0887  0.3001
   75loPI   C1B 1197   9.601  14.216   8.638 -0.0625 -0.1026  0.2182
   75loPI   C2B 1198   9.767  14.260   8.299  0.2869  0.0191 -0.1890
   75loPI   C3B 1199   9.914  14.104   7.930  0.2547 -0.0091  0.3100
   75loPI   C4B 1200  10.306  14.168   7.820 -0.0194 -0.0822  0.2804
   76loPI    C1 1201  14.350  18.183   9.915 -0.3398  0.3489 -0.0053
   76loPI    C2 1202  14.168  18.121  10.265 -0.0651  0.2634  0.1251
   76loPI    C3 1203  14.255  18.494  10.148 -0.4088  0.3127  0.0153
   76loPI   PO4 1204  14.321  18.085   9.709  0.0456  0.1925  0.0414
   76loPI   GL1 1205  14.098  18.106   9.323  0.1845  0.2058 -0.0602
   76loPI   GL2 1206  14.205  17.880   9.272  0.1058 -0.1451  0.0102
   76loPI   C1A 1207  13.905  18.270   8.958  0.0639  0.0187  0.0753
   76loPI   C2A 1208  13.837  18.372   8.495  0.2062  0.0658  0.0828
   76loPI   C3A 1209  13.868  18.444   8.102  0.2457  0.0438  0.0319
   76loPI   C4A 1210  13.965  18.278   7.730  0.3126 -0.0289  0.4365
   76loPI   C5A 1211  14.077  18.007   7.381  0.1369 -0.1353 -0.0325
   76loPI   C6A 1212  14.399  17.646   7.320 -0.0668 -0.0097  0.3056
   76loPI   C1B 1213  14.053  17.833   8.799  0.5926  0.3439 -0.0460
   76loPI   C2B 1214  14.157  17.999   8.449 -0.0956 -0.1455  0.2383
   76loPI   C3B 1215  14.349  18.223   8.127  0.2166 -0.0238 -0.0308
   76loPI   C4B 1216  14.371  18.606   7.886 -0.0588 -0.0370  0.1397
   77loPI    C1 1217  15.640   8.954   9.732  0.0839  0.1036 -0.1709
   77loPI    C2 1218  15.725   9.163  10.062  0.0072  0.0449 -0.1134
   77loPI    C3 1219  15.937   8.836   9.972 -0.0136  0.0244 -0.0881
   77loPI   PO4 1220  15.624   9.074   9.548 -0.0165 -0.3603  0.3289
   77loPI   GL1 1221  15.764   9.225   9.187 -0.0108 -0.0492 -0.0156
   77loPI   GL2 1222  15.764   9.513   9.340  0.1370 -0.1663  0.0256
   77loPI   C1A 1223  15.881   9.157   8.775  0.1548  0.0828 -0.2246
   77loPI   C2A 1224  15.948   9.168   8.258 -0.3355 -0.1767 -0.0607
   77loPI   C3A 1225  15.831   9.296   7.954 -0.0177  0.0783 -0.2933
   77loPI   C4A 1226  15.735   9.487   7.647 -0.1384 -0.0146  0.1493
   77loPI   C5A 1227  15.470   9.733   7.377  0.0927 -0.0930 -0.0750
   77loPI   C6A 1228  15.732  10.085   7.240  0.2445 -0.5438 -0.3278
   77loPI   C1B 1229  15.758   9.601   8.879 -0.0250 -0.4107 -0.2412
   77loPI   C2B 1230  15.601   9.506   8.520  0.3334 -0.0186 -0.0332
   77loPI   C3B 1231  15.314   9.550   8.190  0.3027  0.2461 -0.1562
   77loPI   C4B 1232  15.259   9.492   7.740 -0.1873 -0.1726 -0.0788
   78loPI    C1 1233   6.586  11.752   9.879  0.3175 -0.2017 -0.3042
   78loPI    C2 1234   6.537  11.498  10.184 -0.2420 -0.0132 -0.2254
   78loPI    C3 1235   6.702  11.857  10.247 -0.1299 -0.0699 -0.1938
   78loPI   PO4 1236   6.698  11.561   9.658 -0.0359 -0.1275  0.0154
   78loPI   GL1 1237   6.442  11.391   9.356 -0.0516  0.3952  0.0857
   78loPI   GL2 1238   6.412  11.093   9.285  0.1257 -0.2308 -0.2729
   78loPI   C1A 1239   6.648  11.484   8.956 -0.0742  0.0189  0.1282
   78loPI   C2A 1240   6.571  11.510   8.500  0.0235 -0.0339 -0.0784
   78loPI   C3A 1241   6.741  11.549   8.003  0.0165  0.2396 -0.0663
   78loPI   C4A 1242   6.930  11.229   7.708  0.0188  0.0381 -0.5285
   78loPI   C5A 1243   7.215  11.039   7.443 -0.1116 -0.1724  0.3681
   78loPI   C6A 1244   7.672  10.772   7.502 -0.0396 -0.4432  0.0398
   78loPI   C1B 1245   6.300  11.123   8.838 -0.1165  0.0453  0.3559
   78loPI   C2B 1246   6.017  11.359   8.430 -0.0866  0.1765 -0.3377
   78loPI   C3B 1247   6.000  11.379   8.010 -0.1686  0.0688 -0.2678
   78loPI   C4B 1248   6.287  11.678   7.814 -0.2794  0.1007  0.2297
   79loPI    C1 1249  18.977   4.336   9.781  0.1969 -0.2713  0.0093
   79loPI    C2 1250  19.195   4.160  10.066  0.1998 -0.2204  0.0387
   79loPI    C3 1251  18.800   4.206  10.115  0.2547  0.1151  0.1960
   79loPI   PO4 1252  19.135   4.262   9.582 -0.2457 -0.0948  0.1225
   79loPI   GL1 1253  19.375   4.274   9.296 -0.1474  0.2444  0.0181
   79loPI   GL2 1254  19.727   4.395   9.240 -0.0033  0.0890  0.0813
   79loPI   C1A 1255  19.265   4.310   8.873  0.1165  0.1218  0.3423
   79loPI   C2A 1256  19.137   4.247   8.407  0.0893  0.3167 -0.1949
   79loPI   C3A 1257  19.074   4.315   7.981 -0.1651 -0.1072  0.1123
   79loPI   C4A 1258  19.189   4.107   7.614 -0.0452  0.2547 -0.1262
   79loPI   C5A 1259  19.327   4.292   7.199 -0.1165  0.1249  0.1472
   79loPI   C6A 1260  19.311   4.547   6.840 -0.0256  0.1579 -0.2002
   79loPI   C1B 1261  19.713   4.505   8.840  0.2523  0.0991 -0.1832
   79loPI   C2B 1262  19.537   4.516   8.486  0.2104 -0.1505  0.0602
   79loPI   C3B 1263  19.560   4.561   8.093 -0.0644 -0.0998  0.0736
   79loPI   C4B 1264  19.573   4.380   7.661 -0.1293  0.0108  0.2520
   80loPI    C1 1265  19.328  12.153  10.467 -0.1645  0.1603  0.4443
   80loPI    C2 1266  19.720  12.166  10.545  0.0351 -0.1723 -0.3983
   80loPI    C3 1267  19.483  11.922  10.755  0.3088 -0.1183 -0.0157
   80loPI   PO4 1268  19.410  12.135  10.174 -0.3495  0.2424  0.1967
   80loPI   GL1 1269  19.520  12.192   9.751  0.0970  0.0811 -0.0240
   80loPI   GL2 1270  19.422  12.486   9.799 -0.0865 -0.3241 -0.1478
   80loPI   C1A 1271  19.277  12.424   9.359 -0.0533 -0.3087  0.2421
   80loPI   C2A 1272  19.277  12.497   8.954  0.2053 -0.1447 -0.0474
   80loPI   C3A 1273  19.196  12.553   8.532 -0.1897 -0.2547  0.2431
   80loPI   C4A 1274  19.098  12.552   8.092  0.1625 -0.0662  0.1444
   80loPI   C5A 1275  18.871  12.364   7.669  0.1662  0.1481  0.2356
   80loPI   C6A 1276  18.766  12.013   7.526 -0.2449  0.0803  0.0639
   80loPI   C1B 1277  19.332  12.897   9.563  0.0077 -0.2971 -0.1210
   80loPI   C2B 1278  19.408  13.042   9.180 -0.1364  0.6852 -0.0455
   80loPI   C3B 1279  19.282  13.022   8.784  0.0144  0.2673 -0.1950
   80loPI   C4B 1280  19.040  12.984   8.317 -0.3450  0.0910  0.1217
   81loPI    C1 1281  14.582   6.163   9.807  0.0270  0.1405  0.1211
   81loPI    C2 1282  14.846   6.001  10.059  0.0350 -0.1064 -0.0424
   81loPI    C3 1283  14.456   5.991  10.145  0.0697  0.1923  0.1634
   81loPI   PO4 1284  14.637   6.040   9.574  0.0396  0.0043 -0.1896
   81loPI   GL1 1285  14.740   6.127   9.216  0.0331 -0.0647  0.3882
   81loPI   GL2 1286  14.923   5.833   9.094  0.0443 -0.0483  0.1683
   81loPI   C1A 1287  14.894   6.310   8.835  0.0066  0.1860 -0.0508
   81loPI   C2A 1288  14.986   6.206   8.382  0.1455 -0.2181 -0.0147
   81loPI   C3A 1289  14.991   6.132   7.985  0.2569  0.3284 -0.2594
   81loPI   C4A 1290  14.756   6.229   7.573 -0.0348  0.2700  0.1948
   81loPI   C5A 1291  14.430   6.161   7.394  0.1871  0.1591  0.2949
   81loPI   C6A 1292  14.127   6.306   7.139 -0.1663  0.3216 -0.2671
   81loPI   C1B 1293  14.881   5.542   8.780 -0.0140  0.0233  0.0123
   81loPI   C2B 1294  14.835   5.548   8.283  0.2586  0.2172  0.1797
   81loPI   C3B 1295  15.199   5.676   7.984  0.3900 -0.1183 -0.4261
   81loPI   C4B 1296  15.468   5.537   7.718  0.1253  0.0550  0.0762
   82loPI    C1 1297  18.067   6.846   9.725 -0.1190  0.0654 -0.1124
   82loPI    C2 1298  17.983   6.533   9.491  0.1233 -0.0094 -0.1016
   82loPI    C3 1299  17.926   6.507   9.886  0.2996 -0.0995 -0.0809
   82loPI   PO4 1300  18.091   7.036   9.587 -0.2034  0.2714  0.2652
   82loPI   GL1 1301  18.032   7.081   9.098 -0.1073  0.2450  0.1568
   82loPI   GL2 1302  18.056   6.830   8.918 -0.1519  0.0470 -0.1756
   82loPI   C1A 1303  18.032   7.260   8.771  0.2559 -0.3937 -0.0582
   82loPI   C2A 1304  18.065   7.417   8.413 -0.1469 -0.0977 -0.1524
   82loPI   C3A 1305  18.113   7.583   7.969 -0.1297  0.3943  0.1756
   82loPI   C4A 1306  17.964   7.852   7.602 -0.0123 -0.0578  0.2035
   82loPI   C5A 1307  17.756   7.801   7.240 -0.1073 -0.0880 -0.0643
   82loPI   C6A 1308  17.608   8.099   6.873 -0.0565  0.1119 -0.0935
   82loPI   C1B 1309  18.168   6.835   8.506 -0.1588 -0.1901  0.0326
   82loPI   C2B 1310  18.308   6.901   8.057 -0.1187  0.1146 -0.2890
   82loPI   C3B 1311  18.327   7.195   7.601 -0.2612  0.1008 -0.0324
   82loPI   C4B 1312  17.954   7.286   7.318 -0.0018 -0.1936 -0.4100
   83loPI    C1 1313   3.207  18.479   9.940 -0.0828 -0.1320  0.1992
   83loPI    C2 1314   3.269  18.736  10.240 -0.0038  0.0923 -0.0062
   83loPI    C3 1315   3.537  18.706   9.945 -0.2284  0.0981 -0.2134
   83loPI   PO4 1316   2.955  18.463   9.862  0.0422  0.0897 -0.3291
   83loPI   GL1 1317   2.869  18.306   9.456  0.3221 -0.0530  0.1653
   83loPI   GL2 1318   3.224  18.182   9.456  0.0751  0.3478  0.1902
   83loPI   C1A 1319   2.908  18.425   9.017  0.2671 -0.0705 -0.1960
   83loPI   C2A 1320   3.048  18.464   8.581 -0.3472 -0.0160 -0.1512
   83loPI   C3A 1321   3.102  18.461   8.063  0.1306 -0.3449 -0.2147
   83loPI   C4A 1322   3.076  18.407   7.681 -0.1767 -0.0149 -0.3474
   83loPI   C5A 1323   3.217  18.093   7.251  0.0109 -0.1265  0.1956
   83loPI   C6A 1324   3.386  17.684   7.080 -0.0136 -0.1348  0.2469
   83loPI   C1B 1325   3.345  18.178   8.977 -0.0709 -0.0305 -0.2398
   83loPI   C2B 1326   3.516  17.931   8.601  0.2052 -0.1393 -0.1148
   83loPI   C3B 1327   3.444  18.022   8.241  0.1870  0.0573 -0.2745
   83loPI   C4B 1328   3.554  18.160   7.918  0.2523  0.2964 -0.1639
   84loPI    C1 1329  15.476   9.554   9.815 -0.0453  0.1064  0.0609
   84loPI    C2 1330  15.252   9.341  10.068  0.0090 -0.0236  0.0006
   84loPI    C3 1331  15.476   9.644  10.205 -0.0592 -0.0122  0.0885
   84loPI   PO4 1332  15.285   9.604   9.614 -0.1597 -0.1885  0.2128
   84loPI   GL1 1333  15.265   9.460   9.196  0.2761  0.2808 -0.4052
   84loPI   GL2 1334  15.379   9.812   9.088 -0.0644  0.1497 -0.1848
   84loPI   C1A 1335  15.207   9.311   8.784 -0.0748  0.0962  0.1570
   84loPI   C2A 1336  15.461   9.031   8.493 -0.0550  0.1167 -0.1584
   84loPI   C3A 1337  15.426   9.080   7.992  0.1335  0.2681  0.1819
   84loPI   C4A 1338  15.461   9.048   7.495  0.0634  0.1776 -0.2172
   84loPI   C5A 1339  15.485   9.269   7.270 -0.1848 -0.4095  0.2274
   84loPI   C6A 1340  15.526   9.295   6.854  0.0695 -0.2697 -0.3620
   84loPI   C1B 1341  15.250   9.879   8.668 -0.0059 -0.0411 -0.0688
   84loPI   C2B 1342  15.283  10.083   8.191  0.0454  0.0587  0.0591
   84loPI   C3B 1343  15.079  10.038   7.850 -0.0077 -0.2381 -0.1326
   84loPI   C4B 1344  15.278  10.307   7.492 -0.0637 -0.1878 -0.3615
   85loPI    C1 1345   0.774   0.941  10.013  0.0576 -0.0441  0.1177
   85loPI    C2 1346   0.943   1.303   9.987 -0.0862  0.0127 -0.0513
   85loPI    C3 1347   0.682   1.224  10.281 -0.1438  0.0841 -0.0831
   85loPI   PO4 1348   0.685   0.934   9.710  0.1706  0.2143  0.1215
   85loPI   GL1 1349   0.821   1.233   9.503 -0.0646  0.4022 -0.1054
   85loPI   GL2 1350   0.757   1.028   9.183  0.0411  0.0868 -0.2692
   85loPI   C1A 1351   0.681   1.533   9.185 -0.0399  0.2876 -0.0846
   85loPI   C2A 1352   0.463   1.433   8.856  0.1008 -0.1565  0.0226
   85loPI   C3A 1353   0.401   1.328   8.404 -0.1525 -0.3128 -0.0274
   85loPI   C4A 1354   0.495   1.415   7.940 -0.1979 -0.0161  0.1851
   85loPI   C5A 1355   0.518   1.202   7.575 -0.0423  0.4149  0.0456
   85loPI   C6A 1356   0.592   1.194   7.118  0.1841  0.1910  0.2692
   85loPI   C1B 1357   0.779   1.068   8.697 -0.0186 -0.1911 -0.2774
   85loPI   C2B 1358   0.949   1.177   8.292 -0.1680  0.1208 -0.1863
   85loPI   C3B 1359   1.066   1.312   7.866 -0.0416 -0.3053  0.2811
   85loPI   C4B 1360   1.357   1.396   7.532 -0.2044  0.1642  0.1897
   86loPI    C1 1361  18.555  12.232  10.277  0.0833  0.0307  0.0626
   86loPI    C2 1362  18.796  12.342  10.575  0.0803 -0.3102  0.1958
   86loPI    C3 1363  18.457  12.147  10.655 -0.1304 -0.0338 -0.0057
   86loPI   PO4 1364  18.540  12.511  10.141 -0.0396 -0.0448 -0.0495
   86loPI   GL1 1365  18.646  12.539   9.741  0.0937 -0.1435  0.2229
   86loPI   GL2 1366  18.708  12.355   9.471  0.0976 -0.2283  0.0087
   86loPI   C1A 1367  18.725  12.861   9.537  0.2218 -0.1694  0.1860
   86loPI   C2A 1368  18.914  13.027   9.178 -0.0299  0.1412  0.4788
   86loPI   C3A 1369  18.748  12.973   8.743  0.2054  0.0710  0.1283
   86loPI   C4A 1370  18.498  13.040   8.419 -0.1664  0.3250  0.0630
   86loPI   C5A 1371  18.346  13.063   8.039  0.1772  0.0410 -0.0757
   86loPI   C6A 1372  18.148  12.980   7.631  0.0481 -0.1298 -0.1437
   86loPI   C1B 1373  18.786  12.563   9.025 -0.1204  0.1809 -0.1601
   86loPI   C2B 1374  18.690  12.531   8.590  0.1037 -0.1909  0.0997
   86loPI   C3B 1375  18.642  12.576   8.111 -0.4534 -0.0639 -0.1453
   86loPI   C4B 1376  18.442  12.642   7.643 -0.1734  0.5072  0.3564
   87loPI    C1 1377   7.177  11.699   9.996  0.1843 -0.0351 -0.4390
   87loPI    C2 1378   6.953  11.368  10.013 -0.0458  0.1333 -0.0285
   87loPI    C3 1379   7.325  11.366  10.161 -0.0469  0.0593 -0.0266
   87loPI   PO4 1380   7.225  11.721   9.732  0.0882  0.0171 -0.1526
   87loPI   GL1 1381   7.005  11.653   9.298  0.3175 -0.2481 -0.0594
   87loPI   GL2 1382   7.071  11.917   9.177  0.2246 -0.0609  0.2734
   87loPI   C1A 1383   7.115  11.511   8.872  0.1306  0.0108  0.0242
   87loPI   C2A 1384   7.042  11.507   8.413  0.1975  0.0188  0.2938
   87loPI   C3A 1385   7.198  11.418   8.081 -0.1813 -0.0182  0.1377
   87loPI   C4A 1386   7.142  11.714   7.723 -0.1742 -0.0914 -0.1740
   87loPI   C5A 1387   7.271  12.147   7.618  0.0033 -0.0668  0.0070
   87loPI   C6A 1388   7.475  12.478   7.323 -0.1260 -0.2565 -0.1539
   87loPI   C1B 1389   7.234  12.049   8.860  0.0393 -0.1274  0.0568
   87loPI   C2B 1390   7.620  12.361   8.697 -0.0710  0.3083  0.0822
   87loPI   C3B 1391   7.949  12.536   8.440  0.2418 -0.0008 -0.1590
   87loPI   C4B 1392   8.074  12.572   8.056 -0.0241 -0.0108  0.1527
   88loPI    C1 1393  18.545   7.034   9.788 -0.2590  0.1424  0.0163
   88loPI    C2 1394  18.509   6.637   9.756 -0.1108  0.1346 -0.0645
   88loPI    C3 1395  18.518   6.809  10.117  0.1084  0.0361 -0.0214
   88loPI   PO4 1396  18.769   7.116   9.610 -0.0392  0.1433 -0.2244
   88loPI   GL1 1397  18.929   7.085   9.127  0.0247  0.1351  0.1572
   88loPI   GL2 1398  19.056   7.273   9.207 -0.1549 -0.0672  0.1513
   88loPI   C1A 1399  19.064   7.048   8.701  0.2568  0.1171  0.2353
   88loPI   C2A 1400  19.097   7.084   8.251  0.1689 -0.0328  0.3568
   88loPI   C3A 1401  19.065   7.023   7.783  0.2705 -0.2339 -0.0654
   88loPI   C4A 1402  18.931   6.965   7.383 -0.0631 -0.0657  0.0016
   88loPI   C5A 1403  19.094   6.806   7.011 -0.3574 -0.1992  0.0719
   88loPI   C6A 1404  19.508   6.668   6.988 -0.1817  0.1450  0.1431
   88loPI   C1B 1405  19.140   7.532   8.797 -0.0556  0.1507 -0.0343
   88loPI   C2B 1406  19.363   7.512   8.475  0.0003 -0.1454 -0.1601
   88loPI   C3B 1407  19.253   7.534   8.005  0.2404 -0.2980  0.1872
   88loPI   C4B 1408  19.423   7.727   7.537  0.1012 -0.0931 -0.1203
   89loPI    C1 1409  14.817   8.862   9.862  0.2382 -0.0013  0.1494
   89loPI    C2 1410  14.664   8.681  10.184 -0.1174 -0.1994 -0.1235
   89loPI    C3 1411  14.538   9.046  10.081  0.0573 -0.1010  0.0055
   89loPI   PO4 1412  14.873   8.701   9.627 -0.2049  0.0244  0.0024
   89loPI   GL1 1413  14.850   8.667   9.306  0.0862  0.0475  0.2660
   89loPI   GL2 1414  15.002   8.513   9.134  0.1810  0.2370 -0.1060
   89loPI   C1A 1415  14.878   8.993   8.968  0.0030 -0.0254 -0.1114
   89loPI   C2A 1416  14.881   8.996   8.461 -0.0719 -0.1239  0.1714
   89loPI   C3A 1417  14.920   9.087   8.059 -0.1214  0.4734  0.0925
   89loPI   C4A 1418  14.784   9.033   7.631  0.1228  0.0386 -0.1189
   89loPI   C5A 1419  14.941   9.058   7.291  0.0942 -0.0147  0.2875
   89loPI   C6A 1420  15.017   9.400   7.035 -0.1438  0.0252  0.4241
   89loPI   C1B 1421  14.821   8.559   8.755 -0.3985  0.0410  0.0228
   89loPI   C2B 1422  14.782   8.493   8.276  0.1942 -0.3385  0.0978
   89loPI   C3B 1423  14.762   8.602   7.847  0.0113  0.0306  0.3238
   89loPI   C4B 1424  14.759   8.383   7.513 -0.0700 -0.1353  0.0066
   90loPI    C1 1425   5.459   4.354   9.116  0.3062 -0.0474  0.0662
   90loPI    C2 1426   5.293   4.230   8.774 -0.0838  0.2447  0.1427
   90loPI    C3 1427   5.459   3.965   9.023 -0.0762 -0.0066 -0.1247
   90loPI   PO4 1428   5.191   4.530   9.231 -0.3564  0.0643  0.0541
   90loPI   GL1 1429   4.745   4.418   8.944  0.0118 -0.1678 -0.0775
   90loPI   GL2 1430   4.928   4.720   8.756 -0.1549  0.2669 -0.0569
   90loPI   C1A 1431   4.908   4.172   8.480 -0.1372  0.3402 -0.0874
   90loPI   C2A 1432   4.921   3.985   8.089  0.0634  0.1960 -0.1621
   90loPI   C3A 1433   4.743   3.815   7.764  0.3472  0.1760 -0.0271
   90loPI   C4A 1434   4.350   3.677   7.558 -0.3271 -0.3280 -0.1505
   90loPI   C5A 1435   4.028   3.601   7.307 -0.0727 -0.0830  0.1354
   90loPI   C6A 1436   3.623   3.613   6.995  0.0225  0.0276  0.0013
   90loPI   C1B 1437   4.673   4.831   8.331 -0.5680  0.1467  0.2592
   90loPI   C2B 1438   4.734   4.896   7.858 -0.1232  0.1750 -0.1322
   90loPI   C3B 1439   4.909   5.209   7.517  0.1631  0.1295 -0.0844
   90loPI   C4B 1440   4.590   5.360   7.084  0.2199  0.1012  0.0065
   91loPI    C1 1441  15.252  12.977  10.014 -0.0514 -0.0269  0.0470
   91loPI    C2 1442  15.078  13.055  10.366 -0.2411 -0.0175 -0.0475
   91loPI    C3 1443  15.397  13.267  10.249 -0.3166  0.1333  0.0174
   91loPI   PO4 1444  15.255  12.725  10.047  0.1672 -0.1027  0.1060
   91loPI   GL1 1445  15.036  12.633   9.646  0.2536 -0.2107  0.1356
   91loPI   GL2 1446  15.334  12.773   9.508 -0.1223 -0.3427  0.0515
   91loPI   C1A 1447  14.828  12.726   9.317  0.0717  0.4694 -0.0844
   91loPI   C2A 1448  14.920  12.744   8.971 -0.1947 -0.0155 -0.0383
   91loPI   C3A 1449  14.857  12.628   8.638  0.0666 -0.1045  0.0017
   91loPI   C4A 1450  14.615  12.602   8.173 -0.2210 -0.1018  0.0447
   91loPI   C5A 1451  14.601  12.728   7.783 -0.4169 -0.1493  0.1262
   91loPI   C6A 1452  14.764  12.854   7.426  0.1026  0.2379 -0.1257
   91loPI   C1B 1453  15.486  12.643   9.185 -0.2159 -0.1965 -0.0475
   91loPI   C2B 1454  15.715  12.614   8.758  0.1447 -0.1572  0.1595
   91loPI   C3B 1455  15.685  12.634   8.214 -0.0734 -0.1767 -0.4323
   91loPI   C4B 1456  15.896  12.600   7.789  0.0775 -0.3447 -0.1210
   92loPI    C1 1457  13.223   5.910   9.669 -0.1141 -0.1549  0.1155
   92loPI    C2 1458  13.617   5.844   9.674 -0.0663  0.0937 -0.1323
   92loPI    C3 1459  13.458   6.126   9.909 -0.0894  0.0331 -0.0748
   92loPI   PO4 1460  13.205   5.964   9.273 -0.1752  0.0537 -0.0749
   92loPI   GL1 1461  13.106   5.789   8.878 -0.0239  0.1057 -0.0240
   92loPI   GL2 1462  13.442   5.676   8.770 -0.1935  0.0497 -0.1706
   92loPI   C1A 1463  13.187   6.184   8.667  0.0463  0.1695  0.0223
   92loPI   C2A 1464  13.441   6.510   8.525  0.0174  0.1144  0.3086
   92loPI   C3A 1465  13.578   6.664   8.203  0.1824 -0.1162 -0.1483
   92loPI   C4A 1466  13.682   6.722   7.753  0.1618  0.0592  0.0435
   92loPI   C5A 1467  13.771   6.589   7.456  0.0520 -0.1988 -0.0108
   92loPI   C6A 1468  13.998   6.762   7.049  0.0644 -0.0373  0.1812
   92loPI   C1B 1469  13.157   5.797   8.388 -0.1729  0.2606  0.3137
   92loPI   C2B 1470  13.145   5.736   8.101  0.1155  0.0081 -0.0932
   92loPI   C3B 1471  13.015   5.844   7.679 -0.0042 -0.2164  0.0755
   92loPI   C4B 1472  12.882   5.988   7.271 -0.0745 -0.3027 -0.3999
   93loPI    C1 1473   5.966   7.494   9.977  0.2944 -0.0696  0.2142
   93loPI    C2 1474   5.691   7.243  10.123  0.1555  0.1214  0.2852
   93loPI    C3 1475   5.678   7.631  10.219  0.2132  0.2042 -0.0315
   93loPI   PO4 1476   5.962   7.465   9.715  0.0934 -0.1130 -0.1562
   93loPI   GL1 1477   5.822   7.502   9.248 -0.2424  0.1346  0.3951
   93loPI   GL2 1478   5.851   7.183   9.328 -0.1328 -0.0467 -0.1624
   93loPI   C1A 1479   5.678   7.475   8.795 -0.1268 -0.0787 -0.2645
   93loPI   C2A 1480   5.798   7.642   8.406 -0.0598  0.2657 -0.2361
   93loPI   C3A 1481   5.524   7.706   8.095  0.0524 -0.1077  0.1090
   93loPI   C4A 1482   5.434   7.621   7.731  0.0898  0.0142  0.0391
   93loPI   C5A 1483   5.527   7.543   7.272  0.0947 -0.2293 -0.2366
   93loPI   C6A 1484   5.760   7.734   7.013  0.1290 -0.2679  0.1845
   93loPI   C1B 1485   6.094   7.246   8.886  0.1269 -0.2915  0.0111
   93loPI   C2B 1486   6.140   7.300   8.445 -0.1559  0.0066  0.3414
   93loPI   C3B 1487   6.196   7.478   8.167 -0.0671  0.2200 -0.3254
   93loPI   C4B 1488   6.456   7.453   7.725 -0.0598 -0.5146  0.0685
   94loPI    C1 1489   1.416  19.356  10.240  0.0916  0.0373  0.1540
   94loPI    C2 1490   1.402  19.036  10.001 -0.3732  0.0513  0.1544
   94loPI    C3 1491   1.506  18.994  10.385 -0.1557 -0.0532  0.0859
   94loPI   PO4 1492   1.456  19.547  10.105  0.1118  0.2980 -0.2585
   94loPI   GL1 1493   1.443  19.618   9.706 -0.1387 -0.1656 -0.0974
   94loPI   GL2 1494   1.394  19.319   9.580  0.1393 -0.1565  0.1801
   94loPI   C1A 1495   1.510  19.877   9.481 -0.0720  0.0007 -0.1118
   94loPI   C2A 1496   1.694  20.154   9.272  0.0801  0.0331 -0.1746
   94loPI   C3A 1497   1.625  20.303   8.930 -0.2845  0.3213  0.2830
   94loPI   C4A 1498   1.564  20.078   8.489  0.0549  0.1918 -0.5032
   94loPI   C5A 1499   1.643  19.943   7.999  0.4230  0.1005 -0.1346
   94loPI   C6A 1500   1.680  19.777   7.651 -0.1578 -0.2236 -0.0455
   94loPI   C1B 1501   1.310  19.043   9.149 -0.1231 -0.1629 -0.0010
   94loPI   C2B 1502   1.159  19.133   8.672  0.0023 -0.1885 -0.3532
   94loPI   C3B 1503   1.311  19.071   8.234  0.0881 -0.0921  0.2901
   94loPI   C4B 1504   1.427  18.911   7.882 -0.2887 -0.3173  0.0601
   95loPI    C1 1505  17.120  14.341  10.560  0.2759  0.0131  0.2876
   95loPI    C2 1506  17.067  13.945  10.538  0.1459  0.0460 -0.0488
   95loPI    C3 1507  17.039  14.131  10.891 -0.3519 -0.1689  0.0341
   95loPI   PO4 1508  16.964  14.413  10.325  0.3874 -0.2672  0.2434
   95loPI   GL1 1509  17.014  14.746  10.053 -0.2055 -0.2591  0.0173
   95loPI   GL2 1510  17.145  14.532   9.832  0.2881 -0.0722 -0.1070
   95loPI   C1A 1511  16.983  14.995   9.604  0.0673 -0.0168 -0.0800
   95loPI   C2A 1512  17.072  14.921   9.178 -0.2981  0.0487  0.1116
   95loPI   C3A 1513  16.899  14.752   8.791 -0.0406 -0.0121  0.1417
   95loPI   C4A 1514  16.873  14.914   8.329  0.1581 -0.1636 -0.3178
   95loPI   C5A 1515  16.779  14.739   8.008  0.1775 -0.0698  0.3366
   95loPI   C6A 1516  16.533  14.799   7.711 -0.3058  0.2764  0.1959
   95loPI   C1B 1517  16.955  14.484   9.403  0.2019 -0.3091 -0.0348
   95loPI   C2B 1518  16.781  14.236   9.163 -0.0932  0.0672  0.1007
   95loPI   C3B 1519  16.713  14.223   8.695 -0.4066 -0.2918  0.0291
   95loPI   C4B 1520  16.654  14.286   8.241 -0.1324 -0.0906  0.1310
   96loPI    C1 1521   3.229   5.569   9.732 -0.2396 -0.4126 -0.1164
   96loPI    C2 1522   3.376   5.521  10.100  0.0922 -0.0078 -0.1897
   96loPI    C3 1523   2.982   5.556  10.046  0.0345 -0.1530  0.1150
   96loPI   PO4 1524   3.277   5.268   9.623 -0.0970  0.0083 -0.0745
   96loPI   GL1 1525   3.284   5.171   9.243  0.2749 -0.4589 -0.0954
   96loPI   GL2 1526   3.503   5.169   9.046  0.0864  0.1804  0.1295
   96loPI   C1A 1527   2.931   5.238   8.867 -0.2195  0.0781  0.3062
   96loPI   C2A 1528   2.770   5.308   8.470 -0.0111  0.1220  0.0961
   96loPI   C3A 1529   2.432   5.421   8.208  0.0013  0.0528 -0.1673
   96loPI   C4A 1530   2.188   5.410   7.942  0.0712  0.0916  0.0708
   96loPI   C5A 1531   1.989   5.460   7.499 -0.0390 -0.1787  0.1192
   96loPI   C6A 1532   2.099   5.081   7.216  0.2692 -0.0636  0.1912
   96loPI   C1B 1533   3.659   5.194   8.586 -0.2108 -0.3856  0.1650
   96loPI   C2B 1534   3.536   5.525   8.199 -0.0551 -0.1153 -0.5168
   96loPI   C3B 1535   3.605   5.447   7.718 -0.0922 -0.1309 -0.2047
   96loPI   C4B 1536   3.943   5.370   7.551 -0.1141 -0.0195 -0.2262
   97loPI    C1 1537   6.706   9.566   9.833 -0.0049 -0.0345 -0.0910
   97loPI    C2 1538   7.013   9.643  10.078  0.0191 -0.3095 -0.0310
   97loPI    C3 1539   6.647   9.583  10.229 -0.0683  0.0230 -0.1026
   97loPI   PO4 1540   6.844   9.799   9.572 -0.1286  0.0335 -0.1140
   97loPI   GL1 1541   6.911   9.755   9.145 -0.0375  0.1892 -0.2795
   97loPI   GL2 1542   6.476   9.656   9.146  0.0095 -0.1980  0.0264
   97loPI   C1A 1543   7.186   9.668   8.791  0.1215  0.2340  0.4489
   97loPI   C2A 1544   7.422   9.878   8.546 -0.0014  0.1244  0.3631
   97loPI   C3A 1545   7.724  10.093   8.308 -0.3796  0.2913 -0.0607
   97loPI   C4A 1546   8.094  10.164   8.006  0.0360 -0.1783 -0.1152
   97loPI   C5A 1547   8.449  10.553   7.833 -0.2169  0.0213  0.2775
   97loPI   C6A 1548   8.734  10.804   7.428 -0.4380  0.0033 -0.2285
   97loPI   C1B 1549   6.646   9.852   8.741 -0.1497 -0.0703 -0.2446
   97loPI   C2B 1550   6.838   9.800   8.398 -0.0499  0.4037 -0.2831
   97loPI   C3B 1551   6.861   9.625   8.044 -0.2269  0.1972  0.0375
   97loPI   C4B 1552   7.038   9.759   7.677  0.0603  0.0098 -0.2679
   98loPI    C1 1553  17.146  11.337   9.675 -0.0939 -0.1754  0.1865
   98loPI    C2 1554  17.457  11.490   9.875  0.0173  0.1766 -0.2402
   98loPI    C3 1555  17.152  11.325  10.075  0.1969  0.3705  0.2076
   98loPI   PO4 1556  17.200  11.195   9.595  0.1505  0.1721 -0.0737
   98loPI   GL1 1557  17.319  11.037   9.259  0.2185  0.0245  0.0283
   98loPI   GL2 1558  17.579  11.112   9.012 -0.2133 -0.2250 -0.0160
   98loPI   C1A 1559  17.087  11.343   8.911  0.1829  0.1300 -0.0829
   98loPI   C2A 1560  17.012  11.477   8.519 -0.4000 -0.2882 -0.2174
   98loPI   C3A 1561  16.962  11.559   8.031 -0.1544 -0.1567  0.0649
   98loPI   C4A 1562  16.613  11.400   7.761  0.1782  0.3200  0.1814
   98loPI   C5A 1563  16.693  10.979   7.634  0.2545  0.1367  0.2616
   98loPI   C6A 1564  16.723  10.472   7.466 -0.0155  0.0053 -0.1497
   98loPI   C1B 1565  17.454  11.121   8.580 -0.0044  0.0979 -0.0041
   98loPI   C2B 1566  17.267  11.153   8.132  0.1555  0.0755 -0.1746
   98loPI   C3B 1567  17.144  11.236   7.675  0.0109 -0.1266  0.1669
   98loPI   C4B 1568  17.364  11.078   7.306 -0.3027 -0.0206 -0.2124
   99loPI    C1 1569  11.323   8.723   9.867  0.5548  0.2020 -0.1411
   99loPI    C2 1570  11.605   8.655  10.142  0.1494 -0.1040  0.2132
   99loPI    C3 1571  11.363   8.358  10.027 -0.1594  0.1990  0.0639
   99loPI   PO4 1572  11.485   8.826   9.630 -0.0388  0.1714  0.4404
   99loPI   GL1 1573  11.549   8.769   9.136 -0.0741 -0.0997  0.2722
   99loPI   GL2 1574  11.969   8.779   9.137  0.2959  0.2633  0.2454
   99loPI   C1A 1575  11.401   8.780   8.724 -0.3476  0.0253  0.0848
   99loPI   C2A 1576  11.559   9.012   8.336  0.0889  0.0203  0.0865
   99loPI   C3A 1577  11.625   8.992   7.842 -0.0910  0.0343  0.1278
   99loPI   C4A 1578  11.607   8.864   7.375 -0.1550  0.2846 -0.0306
   99loPI   C5A 1579  11.362   8.544   7.064  0.0789  0.0134  0.0785
   99loPI   C6A 1580  11.390   8.205   6.965  0.2088 -0.1636 -0.0656
   99loPI   C1B 1581  12.297   8.711   8.825  0.3390 -0.1125  0.0207
   99loPI   C2B 1582  12.569   8.581   8.349  0.0402  0.1090  0.2798
   99loPI   C3B 1583  12.535   8.529   7.808  0.1583  0.1390 -0.0227
   99loPI   C4B 1584  12.585   8.363   7.475 -0.0028  0.0112 -0.0824
  100loPI    C1 1585   2.615  12.481  10.045  0.1024 -0.0394  0.1068
  100loPI    C2 1586   2.388  12.646  10.330 -0.0682  0.0500 -0.0779
  100loPI    C3 1587   2.723  12.829  10.210 -0.0707  0.0833 -0.0342
  100loPI   PO4 1588   2.417  12.350   9.900  0.1409 -0.2432 -0.2613
  100loPI   GL1 1589   2.019  12.414   9.603  0.1610 -0.1237 -0.1030
  100loPI   GL2 1590   2.020  12.173   9.370  0.2611  0.4573 -0.2208
  100loPI   C1A 1591   1.919  12.607   9.183  0.4776 -0.1748  0.1940
  100loPI   C2A 1592   1.720  12.568   8.801 -0.1452  0.4822  0.0911
  100loPI   C3A 1593   1.639  12.619   8.361  0.0183 -0.0906  0.0233
  100loPI   C4A 1594   1.542  12.546   7.991  0.2086 -0.1058  0.4845
  100loPI   C5A 1595   1.537  12.356   7.547  0.1860 -0.2261  0.1360
  100loPI   C6A 1596   1.655  12.625   7.205  0.1426 -0.1188 -0.3749
  100loPI   C1B 1597   2.058  11.958   9.054  0.0231 -0.1817 -0.1857
  100loPI   C2B 1598   2.062  12.060   8.706  0.0662  0.2532 -0.2558
  100loPI   C3B 1599   1.971  12.216   8.310  0.0212 -0.0351 -0.1085
  100loPI   C4B 1600   1.963  12.225   7.849  0.1128  0.0398  0.1168
  101loPI    C1 1601  12.009   2.960   9.489 -0.4529 -0.3053  0.3979
  101loPI    C2 1602  12.029   2.655   9.230  0.1710  0.0189  0.0390
  101loPI    C3 1603  12.284   2.674   9.537 -0.0298  0.0580  0.2062
  101loPI   PO4 1604  11.818   3.146   9.236 -0.1031  0.4174  0.1737
  101loPI   GL1 1605  11.646   2.890   8.908 -0.1570  0.2493  0.2176
  101loPI   GL2 1606  11.838   2.841   8.662  0.1109 -0.0228  0.1156
  101loPI   C1A 1607  11.374   3.239   8.712  0.1093 -0.2121  0.0145
  101loPI   C2A 1608  11.419   3.636   8.500  0.2207 -0.1574  0.0161
  101loPI   C3A 1609  11.407   3.846   8.088 -0.0264 -0.2093  0.0243
  101loPI   C4A 1610  11.147   3.849   7.787 -0.0604 -0.0741  0.0304
  101loPI   C5A 1611  11.136   3.619   7.440  0.0607  0.2335  0.3403
  101loPI   C6A 1612  11.030   3.395   7.073 -0.2932 -0.2193  0.0950
  101loPI   C1B 1613  11.756   3.011   8.363 -0.0219  0.0974  0.0359
  101loPI   C2B 1614  11.672   3.059   7.925 -0.1075 -0.1411 -0.1471
  101loPI   C3B 1615  11.897   3.008   7.492 -0.0674 -0.0652  0.1062
  101loPI   C4B 1616  11.830   3.064   7.010 -0.2382  0.2195  0.1496
  102loPI    C1 1617   3.578   4.786   9.775 -0.0959  0.1697 -0.1586
  102loPI    C2 1618   3.641   5.133   9.965  0.0047 -0.0878  0.2928
  102loPI    C3 1619   3.332   4.901  10.069  0.0779 -0.2474  0.1593
  102loPI   PO4 1620   3.557   4.867   9.490 -0.0369 -0.0366  0.0830
  102loPI   GL1 1621   3.341   4.660   9.118  0.1604 -0.1942 -0.2593
  102loPI   GL2 1622   2.957   4.640   9.067 -0.0372  0.6830 -0.0645
  102loPI   C1A 1623   3.274   4.806   8.751 -0.1204 -0.0827 -0.0241
  102loPI   C2A 1624   3.145   4.994   8.417 -0.1416 -0.1376 -0.1164
  102loPI   C3A 1625   3.337   5.142   7.944 -0.0627 -0.1765 -0.3050
  102loPI   C4A 1626   3.163   5.216   7.531 -0.1301 -0.4854  0.1840
  102loPI   C5A 1627   3.456   5.114   7.315  0.1027 -0.1726  0.0778
  102loPI   C6A 1628   3.751   4.927   7.693  0.0810  0.1850 -0.2350
  102loPI   C1B 1629   2.824   4.701   8.815 -0.2486 -0.0802 -0.3680
  102loPI   C2B 1630   2.660   4.798   8.404  0.3054 -0.0866  0.0422
  102loPI   C3B 1631   2.822   5.080   7.993 -0.0794  0.2101 -0.0865
  102loPI   C4B 1632   2.685   5.149   7.525  0.5120 -0.1497  0.3280
  103loPI    C1 1633   5.550   1.654   9.658  0.0681 -0.0876 -0.0899
  103loPI    C2 1634   5.652   1.977   9.870 -0.0269 -0.1009 -0.0231
  103loPI    C3 1635   5.660   1.616  10.041 -0.2330 -0.0965 -0.0018
  103loPI   PO4 1636   5.526   1.737   9.358 -0.1258  0.0575 -0.2726
  103loPI   GL1 1637   5.474   1.686   8.964  0.1451 -0.0753  0.1894
  103loPI   GL2 1638   5.306   1.938   8.940  0.1250  0.1468 -0.0423
  103loPI   C1A 1639   5.396   1.436   8.659  0.1465  0.3365  0.0641
  103loPI   C2A 1640   5.182   1.454   8.334 -0.4802  0.2942 -0.3746
  103loPI   C3A 1641   5.014   1.353   7.941  0.0364 -0.1024  0.2544
  103loPI   C4A 1642   4.913   1.579   7.600 -0.1668  0.3045 -0.2624
  103loPI   C5A 1643   5.147   1.780   7.148 -0.4760  0.0717  0.0799
  103loPI   C6A 1644   5.377   1.482   6.862  0.1924  0.0670 -0.2091
  103loPI   C1B 1645   5.263   2.192   8.578 -0.4377 -0.4171 -0.3774
  103loPI   C2B 1646   5.203   2.297   8.187 -0.2585  0.3699  0.1290
  103loPI   C3B 1647   5.067   2.218   7.773 -0.0780  0.3618 -0.2379
  103loPI   C4B 1648   4.800   2.023   7.432  0.0539 -0.4427 -0.0382
  104loPI    C1 1649   6.340  17.706  10.286  0.0277  0.0379  0.0042
  104loPI    C2 1650   6.368  18.077  10.434 -0.0003  0.0203  0.0536
  104loPI    C3 1651   6.685  17.833  10.444  0.0478  0.0770 -0.0710
  104loPI   PO4 1652   6.224  17.774  10.007  0.1804  0.0854  0.0961
  104loPI   GL1 1653   6.228  17.739   9.558  0.2246  0.3178  0.4317
  104loPI   GL2 1654   6.412  18.037   9.442  0.0399 -0.2955  0.0161
  104loPI   C1A 1655   5.934  17.973   9.338  0.2999  0.1626 -0.2207
  104loPI   C2A 1656   5.827  18.238   9.055  0.1332  0.0838  0.0874
  104loPI   C3A 1657   6.058  18.341   8.679 -0.3420 -0.2368 -0.1640
  104loPI   C4A 1658   6.061  18.291   8.267  0.2266  0.0021 -0.2781
  104loPI   C5A 1659   5.852  18.097   7.973 -0.1744 -0.0585  0.0411
  104loPI   C6A 1660   5.758  18.400   7.601 -0.1238 -0.2815  0.1901
  104loPI   C1B 1661   6.369  18.044   8.967 -0.0227 -0.1947 -0.0317
  104loPI   C2B 1662   6.503  18.138   8.513  0.2168 -0.1640 -0.4951
  104loPI   C3B 1663   6.514  17.929   8.060 -0.1181 -0.4246 -0.0805
  104loPI   C4B 1664   6.321  17.758   7.789  0.0480 -0.5719  0.1094
  105loPI    C1 1665  15.963   4.805   9.604  0.0466  0.0273 -0.0729
  105loPI    C2 1666  16.240   4.733   9.324  0.1368 -0.0213  0.0281
  105loPI    C3 1667  16.238   4.520   9.663 -0.1973 -0.2152 -0.0913
  105loPI   PO4 1668  15.693   4.762   9.416  0.2026 -0.1648 -0.1798
  105loPI   GL1 1669  15.519   4.783   9.013  0.2951  0.1584 -0.1338
  105loPI   GL2 1670  15.581   5.051   8.944  0.1779  0.0097 -0.2293
  105loPI   C1A 1671  15.640   4.475   8.773  0.1408 -0.1125  0.1249
  105loPI   C2A 1672  15.672   4.229   8.470  0.1937 -0.1091  0.1482
  105loPI   C3A 1673  15.716   4.163   8.054  0.2575  0.0654  0.0509
  105loPI   C4A 1674  15.780   4.052   7.585 -0.0217  0.1062  0.0520
  105loPI   C5A 1675  15.598   4.016   7.108 -0.1567 -0.1192  0.4770
  105loPI   C6A 1676  15.380   3.722   6.881  0.1927  0.0399 -0.0515
  105loPI   C1B 1677  15.654   4.997   8.489  0.1986 -0.0579 -0.2602
  105loPI   C2B 1678  16.007   4.941   8.154  0.0940 -0.3532 -0.0894
  105loPI   C3B 1679  16.066   5.020   7.777  0.0586 -0.1992 -0.1060
  105loPI   C4B 1680  15.856   5.056   7.358 -0.1245 -0.1685 -0.2222
  106loPI    C1 1681  11.338   7.990   9.651 -0.1381  0.1035  0.0357
  106loPI    C2 1682  11.612   7.927   9.936  0.0224  0.1600 -0.1043
  106loPI    C3 1683  11.330   7.652   9.865  0.0422  0.1015  0.0409
  106loPI   PO4 1684  11.455   7.958   9.363  0.1386 -0.3638  0.2420
  106loPI   GL1 1685  11.754   7.737   9.082 -0.1969  0.0553  0.0884
  106loPI   GL2 1686  11.994   7.515   9.164 -0.0644 -0.3650 -0.1500
  106loPI   C1A 1687  11.946   7.789   8.605  0.2143 -0.0302  0.0107
  106loPI   C2A 1688  12.066   7.886   8.159  0.0803 -0.3380  0.3428
  106loPI   C3A 1689  11.931   8.012   7.734 -0.1872 -0.4181 -0.1304
  106loPI   C4A 1690  11.972   7.775   7.341 -0.0282 -0.3048  0.2145
  106loPI   C5A 1691  11.892   7.529   6.890 -0.6363  0.0225 -0.0550
  106loPI   C6A 1692  12.085   7.231   6.479 -0.1385 -0.1338 -0.1952
  106loPI   C1B 1693  11.845   7.329   8.855  0.0482 -0.1444  0.1993
  106loPI   C2B 1694  11.832   7.185   8.482 -0.1481  0.0321 -0.2861
  106loPI   C3B 1695  11.810   7.271   8.161  0.1482 -0.1799  0.0201
  106loPI   C4B 1696  11.935   7.516   7.883  0.0655 -0.1561 -0.0239
  107loPI    C1 1697  12.140   5.743   9.370  0.1428  0.1482  0.1427
  107loPI    C2 1698  12.230   6.119   9.476  0.2733  0.0860  0.2557
  107loPI    C3 1699  12.036   5.880   9.732 -0.0204  0.1488  0.0962
  107loPI   PO4 1700  12.314   5.656   9.269 -0.4841 -0.2254 -0.3420
  107loPI   GL1 1701  12.228   5.528   8.902  0.0475 -0.0255 -0.0787
  107loPI   GL2 1702  12.182   5.223   8.863 -0.1271  0.1826 -0.0210
  107loPI   C1A 1703  12.285   5.890   8.648  0.1082 -0.1689  0.0065
  107loPI   C2A 1704  12.375   6.174   8.274  0.0047  0.2554  0.0318
  107loPI   C3A 1705  12.254   6.301   7.927 -0.4160  0.1467  0.2379
  107loPI   C4A 1706  12.035   6.357   7.507 -0.3334 -0.0119  0.1739
  107loPI   C5A 1707  11.826   6.821   7.262  0.1632 -0.2239 -0.3997
  107loPI   C6A 1708  11.992   7.017   7.029 -0.1717  0.1568 -0.0051
  107loPI   C1B 1709  12.046   5.390   8.482 -0.1629  0.3174  0.0231
  107loPI   C2B 1710  12.029   5.360   8.058 -0.0655  0.3673  0.0829
  107loPI   C3B 1711  11.881   5.064   7.653 -0.5401  0.1038 -0.0564
  107loPI   C4B 1712  12.040   5.006   7.149 -0.1533  0.3276  0.0771
  108loPI    C1 1713  15.517  16.746  10.484  0.0102  0.0225 -0.0423
  108loPI    C2 1714  15.181  16.902  10.636 -0.0489  0.0591 -0.2087
  108loPI    C3 1715  15.533  17.081  10.702 -0.0132 -0.1670  0.2572
  108loPI   PO4 1716  15.418  16.657  10.241  0.0562  0.0052 -0.1736
  108loPI   GL1 1717  15.507  16.772   9.798 -0.2985  0.1728  0.3522
  108loPI   GL2 1718  15.759  16.555   9.696  0.0048 -0.1267  0.4094
  108loPI   C1A 1719  15.366  16.639   9.369  0.1576 -0.0916 -0.0632
  108loPI   C2A 1720  15.322  16.550   8.904 -0.0566  0.0507  0.1271
  108loPI   C3A 1721  15.114  16.499   8.488 -0.1164 -0.0761 -0.1477
  108loPI   C4A 1722  15.018  16.241   8.088 -0.3658 -0.2708  0.0641
  108loPI   C5A 1723  14.909  16.104   7.630  0.1094  0.3843  0.0436
  108loPI   C6A 1724  14.512  16.302   7.460 -0.0010 -0.3980 -0.5089
  108loPI   C1B 1725  15.834  16.275   9.472 -0.1550  0.3459 -0.1346
  108loPI   C2B 1726  15.814  16.448   9.097  0.1379 -0.5277 -0.1391
  108loPI   C3B 1727  15.694  16.488   8.663  0.2134  0.0820  0.3160
  108loPI   C4B 1728  15.615  16.411   8.201 -0.0799  0.0548 -0.0035
  109loPI    C1 1729   8.277   7.487   9.290 -0.1057  0.1076 -0.0732
  109loPI    C2 1730   8.239   7.332   9.657 -0.0605 -0.0361 -0.1286
  109loPI    C3 1731   8.599   7.442   9.522 -0.0802  0.0374 -0.1218
  109loPI   PO4 1732   8.259   7.297   9.114 -0.1636  0.3157 -0.0425
  109loPI   GL1 1733   8.131   7.341   8.793  0.0303  0.1338 -0.4203
  109loPI   GL2 1734   8.254   7.674   8.809  0.0571 -0.0222  0.0724
  109loPI   C1A 1735   8.046   7.490   8.370 -0.0740  0.1783  0.3035
  109loPI   C2A 1736   8.013   7.368   7.952 -0.3013  0.0619  0.0620
  109loPI   C3A 1737   7.990   7.285   7.567 -0.0838  0.2596 -0.0721
  109loPI   C4A 1738   7.898   7.222   7.133  0.1934  0.1354 -0.2843
  109loPI   C5A 1739   8.214   7.029   6.732  0.1444 -0.2541  0.3171
  109loPI   C6A 1740   8.458   6.790   6.446 -0.3045 -0.2288 -0.1531
  109loPI   C1B 1741   8.458   7.819   8.474 -0.1437 -0.1017  0.2307
  109loPI   C2B 1742   8.438   7.741   7.983 -0.3482 -0.1053 -0.0880
  109loPI   C3B 1743   8.311   7.703   7.607 -0.1735 -0.3143 -0.1071
  109loPI   C4B 1744   7.946   7.852   7.403  0.0087 -0.0294  0.0018
  110loPI    C1 1745  12.768   4.792   9.127  0.0240 -0.0663  0.0203
  110loPI    C2 1746  12.619   4.989   8.812  0.0697  0.1845  0.1537
  110loPI    C3 1747  12.580   5.141   9.180  0.0436 -0.0921  0.2671
  110loPI   PO4 1748  13.074   4.734   8.907  0.1214  0.1928  0.0117
  110loPI   GL1 1749  13.303   4.562   8.602  0.2405  0.0914  0.0478
  110loPI   GL2 1750  13.452   4.833   8.447 -0.0624 -0.1668 -0.1491
  110loPI   C1A 1751  13.035   4.383   8.229  0.0135 -0.0523 -0.1315
  110loPI   C2A 1752  12.888   4.262   7.816  0.3328  0.1260  0.0907
  110loPI   C3A 1753  12.777   4.289   7.406  0.2146 -0.3908 -0.2043
  110loPI   C4A 1754  12.917   3.881   7.289 -0.2614 -0.0845  0.3939
  110loPI   C5A 1755  13.223   3.703   6.878 -0.0269  0.1253 -0.2025
  110loPI   C6A 1756  13.360   3.885   6.476 -0.0227  0.1037 -0.5374
  110loPI   C1B 1757  13.224   4.794   8.041 -0.0237  0.2635 -0.1385
  110loPI   C2B 1758  13.503   4.673   7.710 -0.0730  0.3852  0.2303
  110loPI   C3B 1759  13.864   4.374   7.704 -0.1871  0.1873  0.2490
  110loPI   C4B 1760  14.160   4.166   7.393 -0.0036  0.2740  0.1916
  111loPI    C1 1761   4.869   3.576   9.730  0.0849  0.0405  0.2652
  111loPI    C2 1762   4.489   3.701   9.751  0.0292 -0.0847  0.0335
  111loPI    C3 1763   4.788   3.960   9.809 -0.0883  0.0882 -0.1206
  111loPI   PO4 1764   4.932   3.528   9.440  0.0196  0.1651 -0.0007
  111loPI   GL1 1765   4.848   3.245   9.127 -0.0486 -0.0975  0.3121
  111loPI   GL2 1766   4.492   3.249   8.947 -0.0448 -0.2726  0.1958
  111loPI   C1A 1767   5.331   3.279   8.876  0.0954 -0.0651 -0.0316
  111loPI   C2A 1768   5.422   3.108   8.450 -0.0957  0.0239 -0.0872
  111loPI   C3A 1769   5.198   3.074   8.011  0.0199 -0.1390 -0.0439
  111loPI   C4A 1770   5.448   3.108   7.609  0.1028 -0.0252  0.1674
  111loPI   C5A 1771   5.269   3.031   7.174  0.1583  0.5863 -0.1412
  111loPI   C6A 1772   4.996   2.903   6.878 -0.1266 -0.2983  0.0979
  111loPI   C1B 1773   4.395   3.405   8.445  0.0771 -0.0790  0.0899
  111loPI   C2B 1774   4.428   3.484   8.056 -0.0579  0.0034 -0.3182
  111loPI   C3B 1775   4.743   3.279   7.689  0.2629 -0.1059 -0.2756
  111loPI   C4B 1776   4.723   3.049   7.277  0.0729 -0.3006 -0.2152
  112loPI    C1 1777  13.922  18.777   9.710  0.1713 -0.0615  0.0472
  112loPI    C2 1778  14.021  19.074   9.958 -0.0305  0.1310 -0.0992
  112loPI    C3 1779  13.816  18.759  10.095  0.3874 -0.0578  0.1078
  112loPI   PO4 1780  14.157  18.607   9.574  0.4218  0.0323  0.2720
  112loPI   GL1 1781  14.365  18.474   9.148 -0.0896  0.0558 -0.2661
  112loPI   GL2 1782  14.542  18.311   9.291 -0.0708  0.3995 -0.1988
  112loPI   C1A 1783  14.330  18.408   8.726  0.1271 -0.1114 -0.0377
  112loPI   C2A 1784  14.264  18.729   8.407 -0.5610  0.0719  0.2786
  112loPI   C3A 1785  14.325  19.105   8.117  0.0063  0.1631 -0.1183
  112loPI   C4A 1786  14.391  19.065   7.698 -0.5541  0.3882  0.0582
  112loPI   C5A 1787  14.613  18.746   7.382  0.2359  0.3561  0.1525
  112loPI   C6A 1788  14.688  18.541   6.941 -0.0805  0.1834  0.1434
  112loPI   C1B 1789  14.584  18.067   8.874  0.0119 -0.0739 -0.1991
  112loPI   C2B 1790  14.631  17.994   8.501  0.0744 -0.1114  0.3167
  112loPI   C3B 1791  14.762  17.780   8.149 -0.0944  0.0737  0.1690
  112loPI   C4B 1792  14.869  17.730   7.673 -0.1696 -0.0273 -0.1455
  113loPI    C1 1793  15.204  16.319  10.492  0.0671  0.0225 -0.0204
  113loPI    C2 1794  15.295  15.957  10.637  0.2481  0.1178  0.1077
  113loPI    C3 1795  15.585  16.224  10.570  0.1365  0.1712 -0.1745
  113loPI   PO4 1796  15.109  16.226  10.248  0.1015 -0.3364 -0.1192
  113loPI   GL1 1797  15.112  16.367   9.918 -0.0391 -0.1143 -0.0704
  113loPI   GL2 1798  15.498  16.245   9.925  0.3296 -0.0617  0.1123
  113loPI   C1A 1799  14.973  16.248   9.501  0.1014  0.2599  0.0331
  113loPI   C2A 1800  14.490  16.214   9.323 -0.1792  0.0007  0.1797
  113loPI   C3A 1801  14.407  16.038   8.945  0.2689 -0.3186  0.3045
  113loPI   C4A 1802  14.610  15.711   8.728 -0.2383 -0.1288 -0.1280
  113loPI   C5A 1803  14.751  15.655   8.321  0.1083  0.1239  0.4242
  113loPI   C6A 1804  14.783  15.565   7.876  0.0492  0.0866  0.1664
  113loPI   C1B 1805  15.361  15.936   9.546 -0.2290 -0.0794 -0.0194
  113loPI   C2B 1806  15.335  15.634   9.269 -0.1333  0.0745  0.0791
  113loPI   C3B 1807  15.568  15.506   8.870 -0.2036  0.1318 -0.3998
  113loPI   C4B 1808  15.625  15.290   8.454  0.1380  0.1981  0.1351
  114loPI    C1 1809   7.626  18.913  10.167  0.2272  0.1666  0.0143
  114loPI    C2 1810   7.476  19.146  10.456 -0.1727 -0.0343 -0.0240
  114loPI    C3 1811   7.446  18.748  10.484  0.0411 -0.0652 -0.2072
  114loPI   PO4 1812   7.429  18.966   9.978 -0.0015  0.0271 -0.0544
  114loPI   GL1 1813   7.432  19.088   9.589 -0.0589 -0.1310 -0.2660
  114loPI   GL2 1814   7.328  18.926   9.373  0.0672 -0.0408  0.1898
  114loPI   C1A 1815   7.358  19.356   9.148  0.1885  0.2590  0.1100
  114loPI   C2A 1816   7.304  19.454   8.609 -0.3164 -0.0414 -0.1635
  114loPI   C3A 1817   7.268  19.346   8.259 -0.1897 -0.0017  0.4178
  114loPI   C4A 1818   7.289  19.349   7.897  0.2514  0.1316 -0.0626
  114loPI   C5A 1819   7.610  19.389   7.508 -0.0721 -0.0224 -0.1045
  114loPI   C6A 1820   7.607  19.383   7.037 -0.1307 -0.1088 -0.1239
  114loPI   C1B 1821   7.324  18.808   8.943 -0.2096  0.1682 -0.0529
  114loPI   C2B 1822   7.299  18.702   8.508  0.0550  0.1453  0.1805
  114loPI   C3B 1823   7.357  18.780   8.098 -0.0056 -0.0819  0.1263
  114loPI   C4B 1824   7.583  18.889   7.768 -0.0407 -0.1333  0.0111
  115loPI    C1 1825  18.796   8.917   9.667  0.0510  0.1765  0.1201
  115loPI    C2 1826  19.033   8.697   9.902 -0.1221 -0.0129  0.1204
  115loPI    C3 1827  18.743   8.920  10.064  0.0513  0.2173  0.1198
  115loPI   PO4 1828  18.846   8.820   9.451 -0.1484 -0.3645 -0.0066
  115loPI   GL1 1829  18.919   8.982   9.026  0.2347 -0.0317  0.3184
  115loPI   GL2 1830  18.647   9.100   8.956  0.0200 -0.2441  0.1488
  115loPI   C1A 1831  18.915   8.930   8.568  0.1712  0.0167  0.2623
  115loPI   C2A 1832  19.033   8.814   8.202 -0.3192 -0.5173  0.1143
  115loPI   C3A 1833  19.361   9.102   7.944 -0.3204 -0.3848 -0.0496
  115loPI   C4A 1834  19.490   9.354   7.645 -0.0056 -0.1232  0.0744
  115loPI   C5A 1835  19.817   9.537   7.304  0.0753  0.1290 -0.0516
  115loPI   C6A 1836  19.869   9.546   6.822 -0.1007 -0.4428 -0.2507
  115loPI   C1B 1837  18.593   9.393   8.689  0.0773 -0.5097  0.0486
  115loPI   C2B 1838  18.644   9.290   8.383  0.0014  0.1087  0.1171
  115loPI   C3B 1839  18.810   9.173   8.006 -0.0243 -0.5336  0.0312
  115loPI   C4B 1840  19.010   9.287   7.520  0.1460 -0.1614 -0.3429
  116loPI    C1 1841   2.213   1.919  10.232  0.1738 -0.1489  0.0717
  116loPI    C2 1842   2.553   2.116  10.307 -0.0189  0.1912  0.0697
  116loPI    C3 1843   2.287   2.058  10.600 -0.1309  0.2657 -0.0160
  116loPI   PO4 1844   2.249   1.710  10.007  0.0100  0.0742 -0.0769
  116loPI   GL1 1845   2.115   1.621   9.633 -0.1555 -0.0711  0.0117
  116loPI   GL2 1846   1.762   1.717   9.643 -0.1982  0.1437  0.2560
  116loPI   C1A 1847   1.973   1.346   9.351 -0.0668  0.2854 -0.2076
  116loPI   C2A 1848   1.967   1.334   8.951  0.1217 -0.1011  0.2922
  116loPI   C3A 1849   1.919   1.316   8.471  0.1745  0.1512 -0.0126
  116loPI   C4A 1850   1.775   1.583   8.243 -0.4526 -0.1038  0.2101
  116loPI   C5A 1851   1.347   1.711   7.967 -0.2556 -0.0132 -0.0437
  116loPI   C6A 1852   1.169   1.964   7.532 -0.0918  0.0979  0.0448
  116loPI   C1B 1853   1.583   1.777   9.246  0.0829  0.1403 -0.0664
  116loPI   C2B 1854   1.577   1.601   8.842 -0.1374  0.0308 -0.1855
  116loPI   C3B 1855   1.427   1.824   8.566  0.2188  0.0049  0.4365
  116loPI   C4B 1856   0.947   2.175   8.612 -0.0117  0.1437  0.0592
  117loPI    C1 1857  16.312  16.670  10.359  0.0124  0.1020  0.1955
  117loPI    C2 1858  15.946  16.724  10.208  0.0519  0.0279  0.0723
  117loPI    C3 1859  16.005  16.453  10.497  0.0329 -0.0545 -0.0006
  117loPI   PO4 1860  16.445  16.608  10.164 -0.0801 -0.1754 -0.1316
  117loPI   GL1 1861  16.241  16.687   9.718 -0.0194  0.1767  0.2537
  117loPI   GL2 1862  16.587  16.744   9.650  0.2808 -0.0834  0.1178
  117loPI   C1A 1863  16.233  16.597   9.337  0.3938 -0.1201  0.2349
  117loPI   C2A 1864  16.240  16.598   8.862  0.0634  0.3015  0.1465
  117loPI   C3A 1865  16.219  16.364   8.520  0.1958 -0.1329  0.0599
  117loPI   C4A 1866  16.094  16.151   8.167  0.2485  0.2822  0.0560
  117loPI   C5A 1867  16.255  15.836   7.988  0.0171 -0.3429  0.1227
  117loPI   C6A 1868  16.408  15.664   7.492  0.2250 -0.0575 -0.0098
  117loPI   C1B 1869  16.693  16.596   9.141  0.1312  0.0269 -0.0625
  117loPI   C2B 1870  16.694  16.337   8.693 -0.2835 -0.3194 -0.3399
  117loPI   C3B 1871  16.691  16.201   8.285 -0.0972  0.1116  0.1958
  117loPI   C4B 1872  16.779  16.055   7.968 -0.2233  0.1096  0.3294
  118loPI    C1 1873  14.157  12.204  10.052 -0.2799 -0.1075 -0.3960
  118loPI    C2 1874  14.398  12.523  10.044 -0.1913 -0.1649 -0.1493
  118loPI    C3 1875  14.162  12.459  10.360 -0.0323 -0.4705 -0.0897
  118loPI   PO4 1876  14.037  12.177   9.809 -0.3987 -0.2790  0.0451
  118loPI   GL1 1877  13.954  12.019   9.358  0.0111 -0.0791  0.2310
  118loPI   GL2 1878  13.898  12.249   9.181 -0.2425  0.0737  0.0040
  118loPI   C1A 1879  13.892  11.547   9.162 -0.3003  0.1863  0.0455
  118loPI   C2A 1880  13.828  11.384   8.695  0.3289  0.1022  0.1468
  118loPI   C3A 1881  13.910  11.360   8.208 -0.1023  0.1082 -0.1986
  118loPI   C4A 1882  14.078  11.320   7.857 -0.0615  0.1785  0.1728
  118loPI   C5A 1883  14.003  11.093   7.456 -0.0291  0.0936  0.1607
  118loPI   C6A 1884  13.862  10.761   7.096 -0.2233 -0.0092 -0.2219
  118loPI   C1B 1885  14.036  12.292   8.796 -0.2608  0.0120  0.0110
  118loPI   C2B 1886  14.245  12.534   8.601 -0.1348 -0.1417  0.0730
  118loPI   C3B 1887  14.045  12.700   8.266  0.0454 -0.1847 -0.2748
  118loPI   C4B 1888  13.801  12.625   7.848  0.1771 -0.0009  0.0653
  119loPI    C1 1889   0.659  13.443  10.750  0.1346  0.1825 -0.1103
  119loPI    C2 1890   0.325  13.618  10.884  0.0654 -0.0701  0.0535
  119loPI    C3 1891   0.669  13.664  11.083  0.0633 -0.0590  0.0545
  119loPI   PO4 1892   0.691  13.518  10.399 -0.2742 -0.1704 -0.0068
  119loPI   GL1 1893   0.959  13.425   9.895 -0.0219  0.0804  0.1310
  119loPI   GL2 1894   1.046  13.633   9.831 -0.3507  0.3098 -0.3315
  119loPI   C1A 1895   1.018  13.270   9.484  0.1394 -0.0449  0.3595
  119loPI   C2A 1896   1.046  13.382   9.084  0.2229  0.1417  0.0563
  119loPI   C3A 1897   1.096  13.503   8.617  0.0952 -0.1425  0.1161
  119loPI   C4A 1898   0.832  13.498   8.243  0.0183  0.2235  0.0303
  119loPI   C5A 1899   0.810  13.620   7.795  0.0729 -0.0706  0.1987
  119loPI   C6A 1900   0.657  13.442   7.407  0.2618  0.0044  0.0271
  119loPI   C1B 1901   0.739  13.725   9.470 -0.1774 -0.3614  0.0960
  119loPI   C2B 1902   0.769  13.713   8.935 -0.1698  0.1133 -0.0766
  119loPI   C3B 1903   0.653  13.401   8.739  0.1903 -0.3103  0.0377
  119loPI   C4B 1904   0.393  13.233   8.251 -0.3106  0.1664  0.0631
  120loPI    C1 1905   3.942  15.667   9.741  0.1271 -0.3221 -0.0742
  120loPI    C2 1906   4.047  15.344   9.952  0.0424 -0.1269  0.2745
  120loPI    C3 1907   3.771  15.596  10.096 -0.0181  0.0111 -0.0734
  120loPI   PO4 1908   3.864  15.701   9.555 -0.2122  0.3367  0.1346
  120loPI   GL1 1909   3.869  15.853   9.189  0.2895  0.1360  0.2723
  120loPI   GL2 1910   3.750  15.457   9.087  0.3887 -0.2978  0.2344
  120loPI   C1A 1911   3.982  16.029   8.861  0.0030  0.2574  0.2115
  120loPI   C2A 1912   4.061  16.060   8.438  0.0660  0.0986  0.0320
  120loPI   C3A 1913   4.083  16.286   7.990  0.1756  0.2086 -0.1918
  120loPI   C4A 1914   4.033  16.371   7.531  0.0230 -0.1151  0.0506
  120loPI   C5A 1915   3.917  16.807   7.373 -0.7208  0.2568 -0.1326
  120loPI   C6A 1916   4.060  17.207   7.260  0.0495 -0.1039 -0.4362
  120loPI   C1B 1917   3.574  15.663   8.745 -0.0375  0.1556  0.3995
  120loPI   C2B 1918   3.510  15.847   8.334  0.0163  0.2094 -0.0823
  120loPI   C3B 1919   3.790  15.876   8.018  0.3769  0.1490  0.0552
  120loPI   C4B 1920   3.926  15.849   7.563 -0.0329 -0.0987  0.1954
  121loPI    C1 1921  13.752   7.621   9.766  0.2958  0.0221  0.0002
  121loPI    C2 1922  13.768   7.701  10.158 -0.0216  0.1822 -0.0168
  121loPI    C3 1923  13.418   7.612   9.985  0.1535 -0.1366 -0.2187
  121loPI   PO4 1924  14.027   7.654   9.714 -0.1960  0.2638 -0.1714
  121loPI   GL1 1925  14.177   7.538   9.368 -0.5142  0.1597  0.1546
  121loPI   GL2 1926  14.464   7.628   9.217 -0.1359  0.3781 -0.1215
  121loPI   C1A 1927  13.846   7.519   9.046 -0.3850  0.0952  0.3270
  121loPI   C2A 1928  13.639   7.527   8.569  0.0648 -0.3216  0.2490
  121loPI   C3A 1929  13.504   7.622   8.265 -0.2329  0.2221 -0.1277
  121loPI   C4A 1930  13.565   7.732   7.858  0.2430 -0.3077  0.3448
  121loPI   C5A 1931  13.366   7.867   7.401 -0.2284  0.2147 -0.1835
  121loPI   C6A 1932  13.339   7.950   7.011 -0.1615 -0.2412 -0.2198
  121loPI   C1B 1933  14.365   7.555   8.885 -0.4407  0.0904  0.0723
  121loPI   C2B 1934  14.201   7.621   8.412  0.0477  0.2904  0.1772
  121loPI   C3B 1935  14.107   7.746   7.990 -0.0220 -0.0918 -0.0573
  121loPI   C4B 1936  13.974   7.818   7.515  0.1246  0.0940 -0.1334
  122loPI    C1 1937   6.036   1.755   9.614 -0.2712 -0.1217  0.0396
  122loPI    C2 1938   6.180   1.438   9.811  0.0281  0.0186  0.0524
  122loPI    C3 1939   6.158   1.794   9.993 -0.0579  0.0641 -0.0460
  122loPI   PO4 1940   6.073   1.732   9.379  0.1645 -0.3561 -0.2146
  122loPI   GL1 1941   6.019   1.604   9.000  0.2769 -0.0372  0.1847
  122loPI   GL2 1942   5.813   1.272   9.047  0.0751  0.0805  0.1135
  122loPI   C1A 1943   6.259   1.571   8.631  0.1036 -0.0296 -0.4190
  122loPI   C2A 1944   6.270   1.837   8.174 -0.0713  0.2347 -0.1846
  122loPI   C3A 1945   6.393   2.229   7.874  0.2125  0.1609 -0.0627
  122loPI   C4A 1946   6.093   2.362   7.519  0.1063  0.2457 -0.0488
  122loPI   C5A 1947   5.978   1.963   7.169  0.0730  0.1891  0.0161
  122loPI   C6A 1948   5.737   1.823   6.820 -0.0023  0.2313  0.2783
  122loPI   C1B 1949   5.857   1.237   8.654  0.5163  0.0237 -0.0389
  122loPI   C2B 1950   5.851   1.387   8.286 -0.1183  0.2683  0.2210
  122loPI   C3B 1951   5.993   1.473   7.892 -0.2205  0.2392 -0.3058
  122loPI   C4B 1952   6.030   1.899   7.717 -0.0012  0.0188 -0.4300
  123loPI    C1 1953   4.620   3.912   9.348 -0.0064  0.2496 -0.1148
  123loPI    C2 1954   4.367   4.110   9.586  0.1991  0.0577  0.2724
  123loPI    C3 1955   4.679   4.300   9.426 -0.2397  0.3250 -0.3014
  123loPI   PO4 1956   4.429   3.754   9.136  0.0430 -0.1372  0.0546
  123loPI   GL1 1957   4.352   3.709   8.786 -0.0486 -0.1529 -0.2218
  123loPI   GL2 1958   4.525   4.026   8.744  0.0493 -0.0206  0.0020
  123loPI   C1A 1959   4.400   3.886   8.316 -0.3886  0.1322  0.1427
  123loPI   C2A 1960   4.206   3.997   7.911 -0.2678  0.0110  0.1729
  123loPI   C3A 1961   3.945   4.054   7.515  0.1688  0.2378  0.2560
  123loPI   C4A 1962   3.913   4.000   7.026  0.0534  0.1190 -0.0202
  123loPI   C5A 1963   3.733   4.046   6.678  0.2308 -0.2782 -0.5314
  123loPI   C6A 1964   3.708   4.392   6.435  0.0037 -0.0969  0.3111
  123loPI   C1B 1965   4.830   3.658   8.512 -0.0864  0.0150 -0.1877
  123loPI   C2B 1966   4.992   3.483   8.165  0.1002 -0.0822  0.0534
  123loPI   C3B 1967   5.441   3.529   8.147  0.0908  0.2310 -0.0192
  123loPI   C4B 1968   5.776   3.230   8.125  0.0187  0.0835  0.0384
  124loPI    C1 1969  11.197   5.659   9.492 -0.0071 -0.0628 -0.1823
  124loPI    C2 1970  11.385   5.934   9.271 -0.2649  0.2028 -0.0787
  124loPI    C3 1971  11.566   5.775   9.591  0.0042  0.0180 -0.3176
  124loPI   PO4 1972  11.060   5.495   9.253  0.2475  0.3755  0.1601
  124loPI   GL1 1973  10.936   5.393   8.784  0.0817 -0.1471 -0.0265
  124loPI   GL2 1974  10.654   5.531   8.842  0.0690 -0.1032  0.1160
  124loPI   C1A 1975  10.874   5.496   8.279 -0.1812  0.0743 -0.1288
  124loPI   C2A 1976  10.940   5.676   7.810 -0.0903  0.2067  0.1249
  124loPI   C3A 1977  10.890   6.035   7.571  0.0249  0.1872  0.0844
  124loPI   C4A 1978  11.100   6.287   7.300 -0.0499 -0.0448  0.2207
  124loPI   C5A 1979  11.114   6.379   6.903  0.3906 -0.0357  0.0149
  124loPI   C6A 1980  10.734   6.542   6.631  0.0645  0.0447  0.1508
  124loPI   C1B 1981  10.447   5.671   8.485  0.2470  0.2464  0.2395
  124loPI   C2B 1982  10.427   5.812   8.127  0.0204 -0.0004 -0.1262
  124loPI   C3B 1983  10.398   5.813   7.690  0.1703 -0.0692 -0.1775
  124loPI   C4B 1984  10.441   5.805   7.244 -0.0049 -0.1390  0.1495
  125loPI    C1 1985   3.638  14.691   9.476 -0.0383 -0.2661 -0.1644
  125loPI    C2 1986   3.857  14.900   9.739 -0.0802 -0.0363 -0.3099
  125loPI    C3 1987   3.532  14.701   9.862 -0.0685  0.0255 -0.1781
  125loPI   PO4 1988   3.677  14.932   9.301  0.0883  0.2509 -0.0025
  125loPI   GL1 1989   3.456  14.992   8.974  0.3309 -0.0442  0.1205
  125loPI   GL2 1990   3.412  14.790   8.790 -0.1071  0.2210 -0.4130
  125loPI   C1A 1991   3.435  15.192   8.532 -0.2614  0.3200  0.2308
  125loPI   C2A 1992   3.425  15.318   8.050 -0.0739 -0.0073 -0.0098
  125loPI   C3A 1993   3.449  15.672   7.722  0.0969  0.2300 -0.4180
  125loPI   C4A 1994   3.251  16.112   7.368 -0.0644  0.0918  0.1174
  125loPI   C5A 1995   3.096  16.261   6.947  0.0451  0.2838  0.1030
  125loPI   C6A 1996   3.057  16.403   6.565 -0.2219  0.0349 -0.1037
  125loPI   C1B 1997   3.204  14.511   8.650  0.0426 -0.2322 -0.4219
  125loPI   C2B 1998   3.090  14.432   8.218  0.0184  0.0493  0.4614
  125loPI   C3B 1999   3.154  14.309   7.772  0.2214 -0.0826  0.1379
  125loPI   C4B 2000   3.281  14.330   7.288  0.1267 -0.1143  0.1294
  126loPI    C1 2001  14.053   6.680   9.773 -0.0861 -0.0587 -0.0793
  126loPI    C2 2002  13.845   6.459  10.034  0.0429 -0.0801  0.0063
  126loPI    C3 2003  14.244   6.432  10.022  0.0250 -0.2392 -0.3397
  126loPI   PO4 2004  13.889   6.629   9.565 -0.2314  0.0385 -0.0544
  126loPI   GL1 2005  13.923   6.474   9.186  0.0502  0.2827  0.1919
  126loPI   GL2 2006  13.802   6.228   8.979  0.2436  0.0179  0.4155
  126loPI   C1A 2007  13.829   6.679   8.750 -0.0281 -0.0885  0.0875
  126loPI   C2A 2008  13.949   6.417   8.405  0.0640  0.0636 -0.2259
  126loPI   C3A 2009  14.079   6.063   8.180  0.1767  0.1764  0.2608
  126loPI   C4A 2010  14.170   5.863   7.767  0.1413  0.3190  0.3548
  126loPI   C5A 2011  14.034   5.542   7.591 -0.2854 -0.1871 -0.0984
  126loPI   C6A 2012  13.786   5.374   7.248 -0.0523  0.1016  0.0513
  126loPI   C1B 2013  13.701   6.059   8.634 -0.0780 -0.3075  0.1114
  126loPI   C2B 2014  13.544   6.107   8.213 -0.2314  0.1043 -0.1539
  126loPI   C3B 2015  13.287   6.302   7.949 -0.3434  0.1455 -0.2847
  126loPI   C4B 2016  13.239   6.488   7.494 -0.1239  0.1639 -0.1372
  127loPI    C1 2017   8.288   1.388   9.921  0.0450  0.2019  0.0590
  127loPI    C2 2018   8.559   1.147  10.089  0.2398  0.3137 -0.0915
  127loPI    C3 2019   8.430   1.470  10.285  0.3194  0.3360 -0.0752
  127loPI   PO4 2020   8.334   1.283   9.640 -0.1156 -0.1430 -0.1360
  127loPI   GL1 2021   8.184   1.123   9.253 -0.1176 -0.1107  0.2239
  127loPI   GL2 2022   7.796   0.982   9.088  0.2153 -0.0861  0.0045
  127loPI   C1A 2023   8.138   1.051   8.777 -0.0825  0.0605 -0.1224
  127loPI   C2A 2024   7.841   1.038   8.405  0.0551 -0.2566  0.1762
  127loPI   C3A 2025   7.469   0.868   8.305 -0.2275  0.1137 -0.0198
  127loPI   C4A 2026   7.284   0.892   7.882 -0.0296  0.1131 -0.1103
  127loPI   C5A 2027   7.558   0.904   7.493  0.0463 -0.2713  0.1346
  127loPI   C6A 2028   7.657   0.879   6.998  0.0309  0.2123  0.1375
  127loPI   C1B 2029   7.487   0.966   8.834  0.1775  0.4456 -0.2159
  127loPI   C2B 2030   7.148   1.020   8.670  0.3389 -0.0882 -0.1592
  127loPI   C3B 2031   6.940   0.968   8.279 -0.5057  0.2035  0.1743
  127loPI   C4B 2032   6.788   0.914   7.879  0.1815  0.1522  0.3830
  128loPI    C1 2033  14.483   1.124   9.996 -0.1785  0.2292  0.1685
  128loPI    C2 2034  14.407   0.799  10.217 -0.0490  0.1113  0.0416
  128loPI    C3 2035  14.348   1.163  10.371 -0.0909  0.0293  0.2224
  128loPI   PO4 2036  14.372   0.980   9.761  0.2626  0.2044  0.1995
  128loPI   GL1 2037  14.312   1.037   9.224 -0.0122 -0.1208  0.3370
  128loPI   GL2 2038  14.590   1.060   9.145  0.0310  0.3507  0.0157
  128loPI   C1A 2039  14.304   1.218   8.737 -0.1315  0.0673 -0.3123
  128loPI   C2A 2040  14.371   1.101   8.311 -0.2033 -0.2552  0.3783
  128loPI   C3A 2041  14.476   0.715   8.236 -0.3566  0.0799 -0.2332
  128loPI   C4A 2042  14.716   0.537   7.980  0.1184 -0.3322 -0.3453
  128loPI   C5A 2043  15.142   0.348   7.727  0.2635  0.1258 -0.0099
  128loPI   C6A 2044  15.530   0.473   7.694  0.3338  0.4646 -0.1319
  128loPI   C1B 2045  14.477   0.751   8.731 -0.1708 -0.4122  0.4178
  128loPI   C2B 2046  14.879   0.626   8.490  0.2056 -0.2280  0.2208
  128loPI   C3B 2047  15.121   0.476   8.233  0.0390 -0.0823  0.0034
  128loPI   C4B 2048  15.571   0.467   8.186  0.2674  0.2361 -0.1866
  129loPI    C1 2049   6.053  11.035   9.686 -0.0499  0.1365 -0.1955
  129loPI    C2 2050   6.143  11.086  10.073 -0.3563 -0.1567 -0.0814
  129loPI    C3 2051   6.400  11.206   9.791  0.0763 -0.3486  0.2195
  129loPI   PO4 2052   5.783  11.174   9.730 -0.3275 -0.0045 -0.0143
  129loPI   GL1 2053   5.456  11.133   9.447  0.0373  0.0519 -0.2360
  129loPI   GL2 2054   5.342  11.396   9.328  0.1119 -0.2860  0.0161
  129loPI   C1A 2055   5.757  11.099   9.022  0.1144  0.1104 -0.1321
  129loPI   C2A 2056   5.584  11.243   8.611 -0.3142  0.1376  0.1932
  129loPI   C3A 2057   5.509  11.391   8.199  0.1832 -0.0527  0.2000
  129loPI   C4A 2058   5.366  11.582   7.759  0.0107  0.0601 -0.5125
  129loPI   C5A 2059   5.225  11.323   7.502 -0.0728 -0.1271  0.1407
  129loPI   C6A 2060   4.883  11.399   7.189 -0.1205 -0.0278  0.1727
  129loPI   C1B 2061   5.133  11.407   8.851 -0.3399  0.1129 -0.3096
  129loPI   C2B 2062   5.226  11.660   8.546  0.0691  0.2857 -0.0390
  129loPI   C3B 2063   5.297  11.978   8.087  0.0738  0.1733  0.0469
  129loPI   C4B 2064   5.127  12.184   7.756  0.0412 -0.2261  0.0872
  130loPI    C1 2065   9.220  10.096  10.001  0.1320 -0.0564 -0.1234
  130loPI    C2 2066   9.486  10.386   9.930  0.1752 -0.0481  0.0680
  130loPI    C3 2067   9.605  10.039  10.089  0.1446 -0.2227 -0.2799
  130loPI   PO4 2068   9.036   9.979   9.775  0.2345  0.3476  0.1082
  130loPI   GL1 2069   8.882   9.940   9.392 -0.1637  0.1583 -0.3012
  130loPI   GL2 2070   9.179   9.732   9.413  0.0422 -0.0023  0.1025
  130loPI   C1A 2071   8.855   9.821   8.930 -0.5274  0.0802  0.2055
  130loPI   C2A 2072   8.886   9.852   8.474 -0.0116  0.1175  0.0062
  130loPI   C3A 2073   8.999   9.903   7.999  0.1856 -0.1091 -0.1146
  130loPI   C4A 2074   9.133   9.868   7.673  0.3945 -0.3399  0.2009
  130loPI   C5A 2075   9.224   9.783   7.272 -0.4757 -0.0564 -0.0206
  130loPI   C6A 2076   9.348   9.836   6.865 -0.3392  0.1905  0.0248
  130loPI   C1B 2077   9.297   9.684   9.058 -0.1853 -0.1169 -0.1814
  130loPI   C2B 2078   9.265   9.593   8.629 -0.0477  0.3166  0.3230
  130loPI   C3B 2079   9.352   9.561   8.154  0.2256  0.1208  0.0069
  130loPI   C4B 2080   9.255   9.406   7.649  0.2689  0.1439 -0.2103
  131loPI    C1 2081  14.284   8.284  10.211 -0.0555 -0.0740 -0.1266
  131loPI    C2 2082  13.932   8.142  10.340  0.0356 -0.4361 -0.2638
  131loPI    C3 2083  14.222   8.229  10.602 -0.1623 -0.1083 -0.1480
  131loPI   PO4 2084  14.282   8.559   9.937 -0.3648 -0.2524  0.1278
  131loPI   GL1 2085  14.438   8.478   9.607  0.0545  0.0014 -0.1456
  131loPI   GL2 2086  14.133   8.464   9.478  0.1562 -0.0563 -0.1089
  131loPI   C1A 2087  14.414   8.611   9.117 -0.0199  0.1664  0.2539
  131loPI   C2A 2088  14.326   8.745   8.739  0.1742  0.0536  0.0169
  131loPI   C3A 2089  14.406   8.854   8.397  0.1178  0.0240  0.0274
  131loPI   C4A 2090  14.408   8.967   7.962  0.2034 -0.1644  0.1232
  131loPI   C5A 2091  14.277   8.741   7.607 -0.0055 -0.1136 -0.0182
  131loPI   C6A 2092  14.067   8.796   7.240  0.1424  0.0309 -0.0996
  131loPI   C1B 2093  13.995   8.415   9.044 -0.0318  0.1204 -0.1491
  131loPI   C2B 2094  13.925   8.493   8.653 -0.0052  0.0054 -0.1866
  131loPI   C3B 2095  13.945   8.799   8.372  0.0132  0.0108 -0.0466
  131loPI   C4B 2096  14.101   8.621   8.090  0.0486 -0.5117  0.0838
  132loPI    C1 2097  11.371  15.461  10.258  0.0394 -0.0865  0.1975
  132loPI    C2 2098  11.012  15.289  10.219  0.0938 -0.1132 -0.2287
  132loPI    C3 2099  11.265  15.162  10.501 -0.2117 -0.1240  0.0457
  132loPI   PO4 2100  11.468  15.415   9.998 -0.1273  0.2762 -0.1299
  132loPI   GL1 2101  11.680  15.405   9.598 -0.1768  0.1023  0.0771
  132loPI   GL2 2102  11.894  15.628   9.605  0.3421  0.0319 -0.0027
  132loPI   C1A 2103  11.797  15.307   9.190 -0.1208 -0.1881 -0.1576
  132loPI   C2A 2104  11.724  15.252   8.785 -0.0585  0.2271 -0.3016
  132loPI   C3A 2105  11.744  15.222   8.382 -0.0617 -0.2243 -0.1644
  132loPI   C4A 2106  11.864  15.435   8.024 -0.2746  0.0676 -0.1126
  132loPI   C5A 2107  11.814  15.610   7.603  0.2157  0.0529  0.1540
  132loPI   C6A 2108  11.344  15.650   7.518 -0.1615 -0.1981  0.3178
  132loPI   C1B 2109  11.734  15.834   9.226 -0.1088  0.4168 -0.1677
  132loPI   C2B 2110  11.711  15.880   8.787 -0.0876  0.0122  0.1413
  132loPI   C3B 2111  11.679  16.247   8.412  0.3703  0.2628 -0.1605
  132loPI   C4B 2112  11.896  16.356   8.051 -0.1681 -0.2529 -0.2125
  133loPI    C1 2113  10.492   9.757  10.053  0.2351 -0.0919  0.6239
  133loPI    C2 2114  10.838   9.868   9.887  0.0987 -0.1270  0.3088
  133loPI    C3 2115  10.803   9.853  10.285  0.3228  0.3095  0.3508
  133loPI   PO4 2116  10.380   9.632   9.872 -0.0608  0.1064  0.2412
  133loPI   GL1 2117  10.193   9.355   9.509 -0.1231  0.0546  0.0447
  133loPI   GL2 2118  10.164   9.748   9.425 -0.2817 -0.0403 -0.0170
  133loPI   C1A 2119  10.448   9.207   9.192 -0.0650  0.0556  0.0591
  133loPI   C2A 2120  10.554   9.358   8.725  0.1733  0.0156  0.3048
  133loPI   C3A 2121  10.744   9.210   8.325  0.1193  0.2128  0.0086
  133loPI   C4A 2122  10.519   9.139   7.865 -0.2306 -0.0413  0.0333
  133loPI   C5A 2123  10.314   8.888   7.698  0.0179  0.1968 -0.0457
  133loPI   C6A 2124  10.202   8.475   7.716  0.2036  0.5930  0.1393
  133loPI   C1B 2125  10.240   9.684   8.972 -0.0401  0.4405  0.0627
  133loPI   C2B 2126  10.356   9.830   8.688  0.1047 -0.1148  0.0234
  133loPI   C3B 2127  10.456  10.181   8.564  0.0591 -0.0372  0.2330
  133loPI   C4B 2128  10.610  10.636   8.528  0.0662  0.0560  0.1360
  134loPI    C1 2129  17.705   3.318   9.880 -0.1836 -0.0516 -0.1790
  134loPI    C2 2130  17.623   3.708   9.842 -0.3064 -0.0134  0.3979
  134loPI    C3 2131  17.971   3.591  10.001  0.0444 -0.1594 -0.4267
  134loPI   PO4 2132  17.683   3.196   9.711 -0.2488 -0.2133 -0.0524
  134loPI   GL1 2133  17.704   2.966   9.338  0.0146 -0.1478  0.1317
  134loPI   GL2 2134  17.411   3.123   9.262 -0.0473 -0.2401  0.2023
  134loPI   C1A 2135  17.816   2.850   9.003  0.1380 -0.1394 -0.2317
  134loPI   C2A 2136  18.080   3.051   8.720 -0.3816 -0.1114 -0.0302
  134loPI   C3A 2137  18.262   3.329   8.441  0.3851 -0.2810  0.0377
  134loPI   C4A 2138  18.369   3.555   8.144 -0.1050 -0.1597 -0.0353
  134loPI   C5A 2139  18.451   3.456   7.772 -0.0321  0.1691  0.1682
  134loPI   C6A 2140  18.256   3.415   7.332  0.2852  0.2386 -0.1389
  134loPI   C1B 2141  17.702   3.352   9.029 -0.1475  0.1275 -0.1048
  134loPI   C2B 2142  17.922   3.680   8.698 -0.0069  0.1995  0.0755
  134loPI   C3B 2143  17.867   3.661   8.226 -0.1917  0.3212  0.1137
  134loPI   C4B 2144  17.991   3.334   7.914 -0.3039  0.0597  0.0188
  135loPI    C1 2145   7.061   6.744   9.079 -0.3291  0.1507  0.0173
  135loPI    C2 2146   7.348   7.010   9.159  0.0374 -0.2392  0.0357
  135loPI    C3 2147   7.172   6.811   9.457 -0.3520  0.0908  0.0347
  135loPI   PO4 2148   7.104   6.630   8.879  0.1554 -0.2111 -0.0203
  135loPI   GL1 2149   7.004   6.747   8.412  0.2059  0.2359 -0.0492
  135loPI   GL2 2150   6.901   6.500   8.195 -0.0843  0.1570 -0.4226
  135loPI   C1A 2151   7.148   7.119   8.188 -0.2308 -0.1807  0.2325
  135loPI   C2A 2152   7.145   7.506   7.923  0.1069  0.2150  0.2001
  135loPI   C3A 2153   7.123   7.490   7.491 -0.2482  0.2654 -0.1145
  135loPI   C4A 2154   7.268   7.727   7.127 -0.0255  0.3317 -0.1053
  135loPI   C5A 2155   7.645   7.859   6.953  0.1479  0.0265  0.3502
  135loPI   C6A 2156   8.045   8.082   7.026  0.2882 -0.2224  0.0604
  135loPI   C1B 2157   6.986   6.551   7.662  0.1147 -0.2624  0.1999
  135loPI   C2B 2158   7.026   6.583   7.219  0.4001  0.1776 -0.2651
  135loPI   C3B 2159   7.030   6.500   6.750 -0.1076 -0.1893 -0.1338
  135loPI   C4B 2160   7.134   6.570   6.247 -0.1385 -0.1097  0.0738
  136loPI    C1 2161   2.369   2.157   9.852  0.1105 -0.1416 -0.0103
  136loPI    C2 2162   2.153   2.145   9.515  0.0166  0.1173  0.0380
  136loPI    C3 2163   1.969   2.162   9.869  0.1165  0.0179  0.0956
  136loPI   PO4 2164   2.561   2.005   9.779 -0.2352  0.1679  0.0426
  136loPI   GL1 2165   2.540   1.809   9.409  0.7585  0.0596  0.2455
  136loPI   GL2 2166   2.739   1.543   9.322  0.1004 -0.2349  0.0336
  136loPI   C1A 2167   2.288   1.729   9.135  0.0807  0.3448  0.3499
  136loPI   C2A 2168   2.234   1.624   8.626  0.0083  0.3833 -0.0680
  136loPI   C3A 2169   2.308   1.677   8.154  0.0666 -0.0952  0.0150
  136loPI   C4A 2170   2.291   1.678   7.658 -0.2146  0.0965  0.0802
  136loPI   C5A 2171   2.166   1.600   7.295  0.0705 -0.0712 -0.2719
  136loPI   C6A 2172   1.957   1.625   7.022 -0.0577 -0.2746 -0.0927
  136loPI   C1B 2173   3.118   1.434   9.046  0.2565  0.1616 -0.1129
  136loPI   C2B 2174   3.384   1.362   8.761 -0.3505  0.2167  0.1062
  136loPI   C3B 2175   3.376   1.402   8.446  0.2636 -0.0402 -0.1582
  136loPI   C4B 2176   3.167   1.480   8.028  0.0945 -0.3606 -0.0806
  137loPI    C1 2177   5.940  13.653   9.702  0.1439 -0.0002 -0.0896
  137loPI    C2 2178   5.813  13.308   9.860  0.1058 -0.0738 -0.2789
  137loPI    C3 2179   6.091  13.524  10.050 -0.1895  0.0143  0.0644
  137loPI   PO4 2180   6.002  13.604   9.375 -0.1681  0.0647 -0.1366
  137loPI   GL1 2181   5.997  13.874   9.063  0.0331 -0.3126  0.0065
  137loPI   GL2 2182   5.841  13.631   8.938  0.2089 -0.1653 -0.0531
  137loPI   C1A 2183   6.259  14.053   8.744 -0.1088 -0.0312 -0.1777
  137loPI   C2A 2184   6.267  14.202   8.371  0.0991 -0.0059  0.0626
  137loPI   C3A 2185   6.335  14.174   7.934  0.1538 -0.1236  0.1690
  137loPI   C4A 2186   6.361  13.880   7.700  0.1394  0.0054  0.0744
  137loPI   C5A 2187   6.059  13.922   7.310 -0.0136 -0.3048 -0.4212
  137loPI   C6A 2188   5.757  14.224   7.107  0.4457  0.0328  0.1817
  137loPI   C1B 2189   5.879  13.686   8.561 -0.1351  0.0053 -0.3017
  137loPI   C2B 2190   6.013  13.767   8.149 -0.2257 -0.0445  0.3525
  137loPI   C3B 2191   5.871  13.982   7.760 -0.0701  0.0796  0.0559
  137loPI   C4B 2192   5.545  13.874   7.369 -0.1442 -0.0303 -0.1017
  138loPI    C1 2193   7.577   6.526   9.507  0.0049 -0.0249  0.0834
  138loPI    C2 2194   7.935   6.557   9.683 -0.1687 -0.0755  0.4544
  138loPI    C3 2195   7.681   6.269   9.795 -0.1655 -0.3073 -0.1027
  138loPI   PO4 2196   7.610   6.531   9.114 -0.0705  0.2793 -0.2273
  138loPI   GL1 2197   7.812   6.824   8.828  0.1960  0.1328  0.1195
  138loPI   GL2 2198   7.487   6.821   8.518 -0.1792 -0.0698 -0.0052
  138loPI   C1A 2199   7.911   6.525   8.405  0.0193 -0.4453 -0.2465
  138loPI   C2A 2200   8.078   6.352   8.016 -0.1480  0.6192 -0.0381
  138loPI   C3A 2201   8.329   6.263   7.660  0.0009 -0.1678 -0.0363
  138loPI   C4A 2202   8.217   5.992   7.217  0.1003 -0.0872  0.1796
  138loPI   C5A 2203   8.017   5.989   6.819 -0.3454 -0.3298  0.2815
  138loPI   C6A 2204   7.833   6.070   6.427 -0.4865 -0.1024  0.1375
  138loPI   C1B 2205   7.403   6.640   8.165 -0.3453  0.1539 -0.0211
  138loPI   C2B 2206   7.471   6.661   7.658 -0.1542 -0.2217  0.1489
  138loPI   C3B 2207   7.669   6.643   7.272  0.0720  0.0585 -0.0835
  138loPI   C4B 2208   7.679   6.518   6.852  0.1292 -0.0553  0.1199
  139loPI    C1 2209   2.503   4.084   9.613 -0.1117 -0.2254  0.0614
  139loPI    C2 2210   2.650   4.134   9.981  0.0130 -0.1408  0.0011
  139loPI    C3 2211   2.863   4.253   9.664 -0.1358 -0.1246 -0.0934
  139loPI   PO4 2212   2.340   3.882   9.615  0.0506  0.1403 -0.3119
  139loPI   GL1 2213   1.955   3.781   9.569 -0.1745 -0.1349 -0.2521
  139loPI   GL2 2214   1.990   3.502   9.376 -0.0364 -0.2434 -0.0209
  139loPI   C1A 2215   2.025   3.984   9.085 -0.1169  0.0718  0.1768
  139loPI   C2A 2216   2.023   3.934   8.707  0.0440 -0.0918  0.1013
  139loPI   C3A 2217   2.113   3.923   8.251 -0.1653  0.0842  0.0882
  139loPI   C4A 2218   2.079   3.942   7.839 -0.2506  0.0165 -0.1762
  139loPI   C5A 2219   2.146   3.960   7.465 -0.0360 -0.0948 -0.0450
  139loPI   C6A 2220   2.191   4.041   7.051  0.1421  0.2012  0.2421
  139loPI   C1B 2221   2.148   3.319   8.937 -0.0114  0.0296 -0.0741
  139loPI   C2B 2222   2.009   3.113   8.551  0.3012 -0.0403 -0.3077
  139loPI   C3B 2223   2.013   3.197   8.226 -0.0328 -0.0420 -0.0219
  139loPI   C4B 2224   1.893   3.040   7.818 -0.0439  0.1483  0.0528
  140loPI    C1 2225   3.313   0.021   9.822 -0.0595  0.2603 -0.1231
  140loPI    C2 2226   3.531   0.263  10.054  0.1467  0.1276 -0.1754
  140loPI    C3 2227   3.557  -0.134  10.099 -0.0802  0.1103 -0.1876
  140loPI   PO4 2228   3.336   0.063   9.607 -0.0602 -0.0612 -0.3830
  140loPI   GL1 2229   3.153  -0.062   9.239 -0.1957 -0.2711  0.3344
  140loPI   GL2 2230   3.049   0.313   9.213  0.1242  0.2264  0.4466
  140loPI   C1A 2231   3.223   0.044   8.802  0.5431 -0.2085  0.1354
  140loPI   C2A 2232   3.177   0.045   8.380 -0.2245 -0.2620  0.0459
  140loPI   C3A 2233   3.214   0.074   7.955 -0.3125 -0.0932  0.0609
  140loPI   C4A 2234   3.072   0.228   7.564 -0.1890  0.4507  0.0937
  140loPI   C5A 2235   2.943   0.378   7.179 -0.5656 -0.2138  0.1235
  140loPI   C6A 2236   2.593   0.465   6.918 -0.1871  0.0248 -0.0060
  140loPI   C1B 2237   3.004   0.518   8.895  0.0850  0.3892  0.2439
  140loPI   C2B 2238   3.029   0.553   8.524  0.2651  0.2717 -0.0393
  140loPI   C3B 2239   2.941   0.526   8.141  0.2551 -0.1233  0.4249
  140loPI   C4B 2240   2.871   0.728   7.616 -0.1110 -0.3749  0.1086
  141loPI    C1 2241  10.816   3.734  10.113 -0.0545 -0.0464 -0.1463
  141loPI    C2 2242  10.879   4.124  10.177 -0.1858 -0.0708  0.1501
  141loPI    C3 2243  11.090   3.851  10.380  0.0012 -0.1578 -0.1537
  141loPI   PO4 2244  10.870   3.740   9.728 -0.0198 -0.2899  0.1482
  141loPI   GL1 2245  10.625   3.702   9.329 -0.0441 -0.0259  0.1361
  141loPI   GL2 2246  10.971   3.575   9.235  0.1978 -0.2321 -0.1517
  141loPI   C1A 2247  10.587   3.365   9.021 -0.1836  0.1816  0.0042
  141loPI   C2A 2248  10.789   3.137   8.778 -0.2843  0.2106 -0.0729
  141loPI   C3A 2249  10.981   3.250   8.434 -0.0858  0.0199  0.0483
  141loPI   C4A 2250  11.198   3.343   8.129  0.2490  0.0905 -0.1293
  141loPI   C5A 2251  11.077   3.088   7.807 -0.2682  0.0129 -0.2381
  141loPI   C6A 2252  11.352   3.088   7.500 -0.0858 -0.2528 -0.0069
  141loPI   C1B 2253  10.991   3.647   8.797 -0.0873  0.0262 -0.0447
  141loPI   C2B 2254  10.884   3.761   8.254  0.2419  0.3311  0.3682
  141loPI   C3B 2255  10.804   3.519   7.783  0.0842  0.1363  0.2441
  141loPI   C4B 2256  10.576   3.517   7.412  0.1431 -0.0278 -0.1276
  142loPI    C1 2257   0.466  16.016  10.359 -0.2387 -0.1844  0.0638
  142loPI    C2 2258   0.654  15.670  10.429  0.1915  0.0606  0.1541
  142loPI    C3 2259   0.865  16.007  10.384 -0.2084  0.2787 -0.1522
  142loPI   PO4 2260   0.260  15.993  10.136 -0.0031 -0.0594  0.0745
  142loPI   GL1 2261   0.138  15.804   9.750  0.5038 -0.1518 -0.0957
  142loPI   GL2 2262   0.317  16.111   9.624  0.3362  0.0104 -0.1971
  142loPI   C1A 2263   0.383  15.596   9.526 -0.1204 -0.2126 -0.1279
  142loPI   C2A 2264   0.478  15.523   9.130 -0.6315 -0.0510  0.0120
  142loPI   C3A 2265   0.550  15.436   8.686 -0.2101 -0.2700  0.1657
  142loPI   C4A 2266   0.580  15.420   8.267  0.1320  0.1444  0.2336
  142loPI   C5A 2267   0.851  15.304   7.932 -0.1336 -0.0200  0.1797
  142loPI   C6A 2268   1.012  15.111   7.624 -0.2225 -0.1519  0.0571
  142loPI   C1B 2269   0.153  15.853   9.238  0.0315 -0.0204  0.3318
  142loPI   C2B 2270   0.134  15.824   8.807 -0.1613  0.2051 -0.4806
  142loPI   C3B 2271   0.183  15.632   8.440  0.2594  0.1169  0.1816
  142loPI   C4B 2272   0.149  15.163   8.467 -0.0204  0.1168  0.0533
  143loPI    C1 2273  13.822  15.205  10.184 -0.2270  0.0523  0.0665
  143loPI    C2 2274  13.561  15.115  10.473 -0.1050 -0.0365  0.1503
  143loPI    C3 2275  13.943  15.002  10.508 -0.0991 -0.0860 -0.0661
  143loPI   PO4 2276  13.749  15.085   9.996 -0.3114 -0.0440 -0.0632
  143loPI   GL1 2277  13.623  15.377   9.622 -0.0028  0.3569 -0.0136
  143loPI   GL2 2278  13.406  15.145   9.637 -0.1669 -0.2571 -0.1238
  143loPI   C1A 2279  13.831  15.415   9.236  0.2757  0.0260  0.0441
  143loPI   C2A 2280  13.765  15.455   8.741  0.0447  0.1060 -0.2294
  143loPI   C3A 2281  13.788  15.252   8.390  0.3985  0.1576  0.0585
  143loPI   C4A 2282  13.791  15.356   8.046  0.0222  0.0183  0.0987
  143loPI   C5A 2283  13.793  15.364   7.556 -0.0202 -0.0959 -0.2286
  143loPI   C6A 2284  14.170  15.514   7.255 -0.0784  0.0744 -0.2378
  143loPI   C1B 2285  13.458  15.056   9.169 -0.0739 -0.2329 -0.4304
  143loPI   C2B 2286  13.395  15.056   8.790 -0.0387  0.2881 -0.0462
  143loPI   C3B 2287  13.185  15.133   8.368 -0.0960  0.1473 -0.0398
  143loPI   C4B 2288  13.266  15.189   7.893  0.3120  0.0388 -0.2051
  144loPI    C1 2289   7.666   8.138   9.744 -0.0027 -0.2653 -0.0871
  144loPI    C2 2290   7.925   8.023  10.026 -0.0151  0.0514  0.0584
  144loPI    C3 2291   7.609   8.246  10.125 -0.2210 -0.1414 -0.1533
  144loPI   PO4 2292   7.952   8.254   9.507 -0.0585 -0.0334 -0.0296
  144loPI   GL1 2293   7.850   8.302   9.104 -0.1798 -0.2209 -0.0408
  144loPI   GL2 2294   7.658   8.401   8.862  0.0754  0.0425  0.0916
  144loPI   C1A 2295   8.103   8.272   8.665 -0.3044 -0.1218  0.1947
  144loPI   C2A 2296   8.141   8.182   8.190 -0.4866 -0.0746  0.3847
  144loPI   C3A 2297   8.136   8.222   7.719 -0.0093  0.3598 -0.2916
  144loPI   C4A 2298   8.549   8.520   7.596 -0.2571  0.1937 -0.0388
  144loPI   C5A 2299   8.753   8.869   7.407 -0.1881  0.0755  0.0898
  144loPI   C6A 2300   8.646   9.276   7.273 -0.0610  0.1252  0.0297
  144loPI   C1B 2301   7.663   8.383   8.485 -0.0349 -0.1751 -0.0777
  144loPI   C2B 2302   7.705   8.463   8.041 -0.0320 -0.2517 -0.2239
  144loPI   C3B 2303   7.632   8.230   7.648 -0.1474 -0.1855 -0.1511
  144loPI   C4B 2304   7.554   8.277   7.154  0.5119 -0.1110 -0.0817
  145loPI    C1 2305   2.435  15.541   9.470 -0.0621 -0.2188 -0.1500
  145loPI    C2 2306   2.398  15.462   9.860  0.0486  0.1369 -0.0638
  145loPI    C3 2307   2.761  15.499   9.697  0.0019  0.0565 -0.1880
  145loPI   PO4 2308   2.167  15.719   9.441 -0.0431  0.0810 -0.1092
  145loPI   GL1 2309   2.022  16.037   9.209  0.1498 -0.2295  0.2146
  145loPI   GL2 2310   2.347  16.173   9.254  0.2163  0.0484 -0.0132
  145loPI   C1A 2311   2.003  15.953   8.793  0.0762  0.1553 -0.2837
  145loPI   C2A 2312   2.206  16.139   8.430  0.0418  0.3050 -0.2631
  145loPI   C3A 2313   2.052  15.971   8.056  0.3621  0.0882 -0.1822
  145loPI   C4A 2314   1.924  15.808   7.665  0.0629 -0.0667  0.2080
  145loPI   C5A 2315   2.159  15.733   7.262  0.1837  0.2391  0.0190
  145loPI   C6A 2316   2.404  15.616   6.828  0.1049  0.2001 -0.0777
  145loPI   C1B 2317   2.341  16.343   8.865 -0.1384  0.0568  0.0708
  145loPI   C2B 2318   2.608  16.409   8.474 -0.0705  0.1500 -0.0700
  145loPI   C3B 2319   2.659  16.584   8.105 -0.0143 -0.0895  0.4114
  145loPI   C4B 2320   2.714  16.625   7.729  0.2739  0.1440 -0.0216
  146loPI    C1 2321   3.089   6.578  10.106 -0.0472 -0.1989 -0.2625
  146loPI    C2 2322   3.388   6.564   9.840  0.0078  0.0041 -0.2137
  146loPI    C3 2323   3.458   6.478  10.224  0.0074  0.0684 -0.1991
  146loPI   PO4 2324   2.888   6.488   9.836  0.0934  0.1499 -0.0456
  146loPI   GL1 2325   3.053   6.538   9.471  0.1400 -0.2908 -0.1351
  146loPI   GL2 2326   2.785   6.439   9.237 -0.1804 -0.1335 -0.0730
  146loPI   C1A 2327   3.141   6.778   9.080  0.0176 -0.0534  0.3364
  146loPI   C2A 2328   3.151   6.749   8.580 -0.2267  0.1217  0.0635
  146loPI   C3A 2329   3.230   6.476   8.163  0.2167  0.0902  0.0205
  146loPI   C4A 2330   3.485   6.449   7.904 -0.1346  0.0022  0.0563
  146loPI   C5A 2331   3.651   6.374   7.471  0.2198  0.1466  0.1114
  146loPI   C6A 2332   3.593   6.136   7.054  0.0570 -0.0210  0.0951
  146loPI   C1B 2333   2.793   6.523   8.834 -0.0669 -0.3576  0.1361
  146loPI   C2B 2334   2.641   6.627   8.481  0.1138 -0.0165 -0.0890
  146loPI   C3B 2335   2.762   6.699   8.134 -0.1934  0.1199  0.4461
  146loPI   C4B 2336   2.806   6.601   7.731 -0.4037  0.0938 -0.0936
  147loPI    C1 2337  11.860  14.509  10.049  0.0713  0.0579 -0.0331
  147loPI    C2 2338  11.566  14.536  10.318  0.0887  0.0556 -0.0139
  147loPI    C3 2339  11.945  14.497  10.440  0.0652 -0.2786 -0.0392
  147loPI   PO4 2340  11.834  14.719   9.878 -0.0450 -0.0002  0.2619
  147loPI   GL1 2341  12.106  14.439   9.603 -0.4191 -0.0577 -0.5066
  147loPI   GL2 2342  11.852  14.388   9.485 -0.0669  0.0665 -0.1720
  147loPI   C1A 2343  12.327  14.311   9.209  0.2016  0.2932  0.0416
  147loPI   C2A 2344  12.324  14.175   8.841  0.2263  0.1195 -0.0780
  147loPI   C3A 2345  12.354  14.143   8.401 -0.1890  0.3586  0.3342
  147loPI   C4A 2346  12.376  14.146   7.917  0.2216  0.0012 -0.1112
  147loPI   C5A 2347  12.632  14.301   7.558 -0.0278 -0.0569  0.0918
  147loPI   C6A 2348  12.865  14.271   7.174 -0.2632 -0.0697  0.0459
  147loPI   C1B 2349  11.794  14.212   9.000 -0.1385  0.3426 -0.0930
  147loPI   C2B 2350  11.768  14.179   8.558 -0.3198 -0.1133 -0.0596
  147loPI   C3B 2351  11.954  13.996   8.147  0.1554 -0.1546 -0.3854
  147loPI   C4B 2352  11.736  14.159   7.818 -0.0722  0.0175  0.0841
  148loPI    C1 2353  17.771   4.988   9.657  0.2145 -0.2878 -0.1412
  148loPI    C2 2354  17.514   4.855   9.933  0.2252  0.1182  0.0722
  148loPI    C3 2355  17.821   5.087  10.041  0.1744  0.3626 -0.2919
  148loPI   PO4 2356  17.598   4.943   9.423  0.1980 -0.1722 -0.0822
  148loPI   GL1 2357  17.376   5.099   9.137 -0.0296 -0.3205  0.0336
  148loPI   GL2 2358  17.122   5.177   9.143  0.0446 -0.0264  0.2532
  148loPI   C1A 2359  17.438   5.258   8.720 -0.0457  0.0531  0.5042
  148loPI   C2A 2360  17.338   5.298   8.422 -0.2361  0.4113 -0.2189
  148loPI   C3A 2361  17.468   5.161   7.944 -0.2233 -0.1296 -0.0396
  148loPI   C4A 2362  17.396   5.020   7.507 -0.0182 -0.0552 -0.0207
  148loPI   C5A 2363  17.326   5.217   7.136 -0.0167 -0.1204  0.2822
  148loPI   C6A 2364  17.253   5.652   7.035 -0.2775  0.2501  0.0742
  148loPI   C1B 2365  16.988   4.983   8.700  0.2127  0.2228 -0.0186
  148loPI   C2B 2366  17.035   4.946   8.305 -0.0712 -0.1536  0.1428
  148loPI   C3B 2367  17.058   4.851   7.863  0.2193  0.0629  0.2589
  148loPI   C4B 2368  16.879   4.938   7.609  0.2179  0.1468  0.2175
  149loPI    C1 2369  19.010  13.480  10.221  0.1508  0.0231  0.3338
  149loPI    C2 2370  19.232  13.192  10.387  0.1187 -0.2302 -0.0502
  149loPI    C3 2371  19.381  13.411  10.088  0.0203 -0.0753  0.0130
  149loPI   PO4 2372  18.742  13.371  10.060 -0.0160  0.1842 -0.1813
  149loPI   GL1 2373  18.590  13.423   9.708 -0.1153 -0.4404 -0.0224
  149loPI   GL2 2374  18.328  13.178   9.596 -0.0568 -0.0458  0.1857
  149loPI   C1A 2375  18.579  13.456   9.307 -0.1549 -0.1827 -0.5610
  149loPI   C2A 2376  18.530  13.340   8.981 -0.1256  0.0220  0.0882
  149loPI   C3A 2377  18.423  13.469   8.598  0.3970 -0.2740 -0.0366
  149loPI   C4A 2378  18.365  13.546   8.077  0.1357  0.3187 -0.2322
  149loPI   C5A 2379  18.269  13.544   7.628  0.0714  0.1135  0.3294
  149loPI   C6A 2380  18.098  13.283   7.320  0.3779 -0.0021 -0.0134
  149loPI   C1B 2381  18.314  12.902   9.284  0.2142 -0.0441 -0.0561
  149loPI   C2B 2382  18.319  12.729   8.910  0.1110 -0.0308  0.0145
  149loPI   C3B 2383  18.185  12.640   8.421  0.0125  0.0707 -0.0584
  149loPI   C4B 2384  17.977  12.676   8.076  0.1191 -0.1739  0.1190
  150loPI    C1 2385   2.619  11.365   9.841 -0.2106 -0.0001  0.2132
  150loPI    C2 2386   2.893  11.595  10.020  0.0731 -0.0604 -0.1334
  150loPI    C3 2387   2.507  11.697  10.034  0.1681  0.3028 -0.0726
  150loPI   PO4 2388   2.808  11.252   9.590 -0.3426 -0.1616  0.2765
  150loPI   GL1 2389   2.656  11.186   9.157  0.0864 -0.1960 -0.0397
  150loPI   GL2 2390   2.862  11.419   9.149 -0.1227  0.2952 -0.1821
  150loPI   C1A 2391   2.493  10.974   8.794 -0.2162  0.0441 -0.3960
  150loPI   C2A 2392   2.512  11.049   8.389 -0.3562 -0.1130  0.0288
  150loPI   C3A 2393   2.429  11.051   7.946 -0.3031  0.0008 -0.0742
  150loPI   C4A 2394   2.595  10.871   7.645  0.0125  0.2299  0.1344
  150loPI   C5A 2395   2.885  10.736   7.465  0.1985  0.2354  0.0919
  150loPI   C6A 2396   3.216  11.009   7.172  0.3079 -0.0054 -0.1340
  150loPI   C1B 2397   2.921  11.356   8.756  0.2959 -0.0545 -0.1853
  150loPI   C2B 2398   2.974  11.429   8.254 -0.4466  0.3523  0.3405
  150loPI   C3B 2399   2.805  11.417   7.859  0.0053 -0.1421  0.0016
  150loPI   C4B 2400   2.435  11.560   7.608  0.1415  0.0593 -0.2906
  151loPI    C1 2401   5.357  18.461  10.291 -0.0235  0.1177  0.0487
  151loPI    C2 2402   5.464  18.122  10.476 -0.0310  0.2278  0.2583
  151loPI    C3 2403   5.559  18.476  10.637 -0.1045  0.3261  0.0883
  151loPI   PO4 2404   5.465  18.365  10.008  0.1395 -0.1285 -0.1988
  151loPI   GL1 2405   5.392  18.208   9.586  0.0521  0.3925 -0.2048
  151loPI   GL2 2406   5.542  18.550   9.471 -0.0619 -0.0908  0.4277
  151loPI   C1A 2407   5.410  17.955   9.249  0.1329 -0.1105  0.0861
  151loPI   C2A 2408   5.245  18.038   8.861 -0.1530 -0.0391  0.0745
  151loPI   C3A 2409   5.163  18.200   8.524  0.0350 -0.1166  0.1678
  151loPI   C4A 2410   5.027  18.127   8.130  0.1667 -0.4997 -0.0175
  151loPI   C5A 2411   4.619  18.098   7.896 -0.1528 -0.1151 -0.0504
  151loPI   C6A 2412   4.324  18.420   7.860 -0.2081 -0.1254  0.0146
  151loPI   C1B 2413   5.586  18.701   9.107 -0.1151 -0.0002  0.1786
  151loPI   C2B 2414   5.559  18.540   8.697  0.0565  0.0007  0.0047
  151loPI   C3B 2415   5.505  18.533   8.323 -0.2452  0.4702  0.1714
  151loPI   C4B 2416   5.358  18.415   7.930 -0.0063 -0.1906 -0.1344
  152loPI    C1 2417   4.003  18.441  10.454 -0.2386  0.1582 -0.0832
  152loPI    C2 2418   3.623  18.356  10.362 -0.1009 -0.4952 -0.0961
  152loPI    C3 2419   3.812  18.147  10.646  0.1984 -0.0538  0.0407
  152loPI   PO4 2420   4.032  18.554  10.198 -0.2733  0.2038 -0.2292
  152loPI   GL1 2421   4.010  18.503   9.748 -0.0209  0.0786  0.0428
  152loPI   GL2 2422   4.135  18.704   9.536  0.3418 -0.1590 -0.2015
  152loPI   C1A 2423   3.701  18.901   9.528 -0.0400 -0.1091 -0.1334
  152loPI   C2A 2424   3.730  19.150   9.161  0.3438  0.0846  0.0720
  152loPI   C3A 2425   3.731  19.155   8.685 -0.3025 -0.0196 -0.0137
  152loPI   C4A 2426   3.623  19.298   8.262 -0.2258  0.1646 -0.1692
  152loPI   C5A 2427   3.579  19.151   7.873 -0.1289 -0.1346  0.2773
  152loPI   C6A 2428   3.413  19.196   7.491  0.2155  0.1526  0.1703
  152loPI   C1B 2429   3.825  18.635   9.107 -0.4044  0.2297 -0.0082
  152loPI   C2B 2430   3.667  18.605   8.659 -0.1676  0.1550 -0.2258
  152loPI   C3B 2431   3.519  18.520   8.295 -0.1127  0.3057 -0.0061
  152loPI   C4B 2432   3.504  18.634   7.824  0.0732  0.1259  0.1144
  153loPI    C1 2433   4.881  18.057   9.964  0.3819  0.1426 -0.0492
  153loPI    C2 2434   4.861  18.419  10.134  0.2216  0.0365  0.1638
  153loPI    C3 2435   4.964  18.101  10.353  0.1416 -0.0826  0.0304
  153loPI   PO4 2436   4.955  18.093   9.733 -0.0100  0.0072 -0.0200
  153loPI   GL1 2437   4.931  18.173   9.315  0.4045  0.1681 -0.3425
  153loPI   GL2 2438   4.896  17.795   9.333  0.1086  0.0583 -0.2335
  153loPI   C1A 2439   5.117  18.482   8.973 -0.3333 -0.0049  0.1696
  153loPI   C2A 2440   5.064  18.691   8.602  0.0977  0.0507 -0.0055
  153loPI   C3A 2441   5.002  18.694   8.265  0.1121  0.1761  0.2315
  153loPI   C4A 2442   4.823  18.588   7.886 -0.2369 -0.1712  0.1391
  153loPI   C5A 2443   4.723  18.422   7.408 -0.0147 -0.5926  0.5300
  153loPI   C6A 2444   4.849  18.160   7.121 -0.2338  0.0778  0.2803
  153loPI   C1B 2445   4.977  17.677   9.023 -0.3016  0.0200  0.1959
  153loPI   C2B 2446   4.864  17.740   8.547  0.0983 -0.0819  0.2799
  153loPI   C3B 2447   4.799  17.519   8.150  0.0217  0.0509  0.0433
  153loPI   C4B 2448   4.759  17.644   7.768  0.4541 -0.3211 -0.0635
  154loPI    C1 2449  11.473  13.992  10.462  0.0671  0.1652  0.0532
  154loPI    C2 2450  11.296  14.313  10.621 -0.2359  0.0942 -0.1313
  154loPI    C3 2451  11.351  13.985  10.843 -0.5163  0.0492 -0.1252
  154loPI   PO4 2452  11.725  14.059  10.319  0.2686  0.2363  0.3319
  154loPI   GL1 2453  11.683  14.062   9.907  0.1642  0.2956  0.0572
  154loPI   GL2 2454  11.923  13.991   9.875  0.2324 -0.3207 -0.0097
  154loPI   C1A 2455  11.501  14.061   9.466 -0.1902  0.1258 -0.0658
  154loPI   C2A 2456  11.253  14.268   9.116 -0.2164 -0.3030 -0.2239
  154loPI   C3A 2457  11.223  14.239   8.737  0.0403 -0.2466  0.0239
  154loPI   C4A 2458  11.290  14.410   8.269 -0.4439  0.0816 -0.0135
  154loPI   C5A 2459  11.255  14.364   7.829  0.3610 -0.0873  0.1220
  154loPI   C6A 2460  11.567  14.586   7.558  0.2222 -0.3124  0.2080
  154loPI   C1B 2461  12.001  13.962   9.435 -0.1022 -0.1520 -0.0341
  154loPI   C2B 2462  12.101  13.792   8.968 -0.1080 -0.1341  0.0749
  154loPI   C3B 2463  11.997  13.701   8.563  0.2729  0.0983 -0.0168
  154loPI   C4B 2464  12.143  13.545   8.281 -0.3548  0.1207  0.0202
  155loPI    C1 2465  11.018   0.926   9.956  0.1888 -0.1775 -0.0928
  155loPI    C2 2466  10.953   1.053  10.330  0.1246 -0.0501 -0.1464
  155loPI    C3 2467  10.646   0.935  10.102  0.2000 -0.4716 -0.0394
  155loPI   PO4 2468  11.132   1.108   9.742  0.3864 -0.1584  0.0886
  155loPI   GL1 2469  11.026   1.243   9.351  0.0244 -0.0372  0.1334
  155loPI   GL2 2470  10.985   0.877   9.228 -0.1857 -0.0195 -0.0066
  155loPI   C1A 2471  11.010   1.458   8.912  0.1328  0.0560 -0.0248
  155loPI   C2A 2472  11.088   1.376   8.431  0.1750  0.3058 -0.1530
  155loPI   C3A 2473  11.039   1.414   8.146  0.1278 -0.1832 -0.0531
  155loPI   C4A 2474  11.058   1.366   7.803 -0.1628 -0.2614 -0.0599
  155loPI   C5A 2475  11.222   1.328   7.399 -0.0473  0.2934 -0.0178
  155loPI   C6A 2476  11.595   1.317   7.193  0.0315  0.0684  0.0936
  155loPI   C1B 2477  11.067   0.994   8.731 -0.1059 -0.1865 -0.2823
  155loPI   C2B 2478  11.230   0.897   8.469  0.2495 -0.1862 -0.0172
  155loPI   C3B 2479  11.212   0.863   8.025  0.1520 -0.1449  0.1306
  155loPI   C4B 2480  10.833   0.981   7.571  0.0508  0.1170  0.3204
  156loPI    C1 2481  16.342   8.411   9.354 -0.0092  0.0648  0.1038
  156loPI    C2 2482  16.652   8.258   9.556 -0.0156 -0.2257 -0.0985
  156loPI    C3 2483  16.291   8.088   9.585 -0.2167  0.2448  0.3141
  156loPI   PO4 2484  16.357   8.396   9.094 -0.2807  0.1492 -0.0366
  156loPI   GL1 2485  16.463   8.405   8.668 -0.2421 -0.1479  0.1337
  156loPI   GL2 2486  16.628   8.110   8.806 -0.2350 -0.0607  0.0655
  156loPI   C1A 2487  16.210   8.295   8.327  0.0018 -0.0725 -0.1310
  156loPI   C2A 2488  15.960   8.317   7.946 -0.0145  0.0231 -0.1006
  156loPI   C3A 2489  15.978   8.108   7.548  0.0129 -0.2345  0.3211
  156loPI   C4A 2490  16.216   7.980   7.308  0.0845  0.0657 -0.1806
  156loPI   C5A 2491  16.342   7.545   7.074 -0.0456  0.2469  0.0860
  156loPI   C6A 2492  16.172   7.144   7.038 -0.1727  0.2009  0.0155
  156loPI   C1B 2493  16.640   7.968   8.346 -0.0858  0.0052 -0.0944
  156loPI   C2B 2494  16.615   8.216   8.029  0.2422  0.1763  0.0011
  156loPI   C3B 2495  16.518   8.192   7.623 -0.1200  0.1084  0.0224
  156loPI   C4B 2496  16.712   8.013   7.241  0.2602  0.0037  0.2121
  157loPI    C1 2497   3.523  11.036  10.003  0.1173  0.1075 -0.3956
  157loPI    C2 2498   3.246  11.294   9.874  0.1014  0.2505 -0.0854
  157loPI    C3 2499   3.601  11.428  10.000  0.2244  0.0882 -0.2533
  157loPI   PO4 2500   3.524  10.874   9.709  0.0200 -0.0098  0.0085
  157loPI   GL1 2501   3.406  10.956   9.292 -0.0576  0.2725  0.2549
  157loPI   GL2 2502   3.119  10.924   9.294  0.1394  0.0759 -0.0722
  157loPI   C1A 2503   3.516  11.021   8.715 -0.1581 -0.1815 -0.1108
  157loPI   C2A 2504   3.586  11.057   8.229  0.3296 -0.2139  0.2848
  157loPI   C3A 2505   3.710  10.946   7.792 -0.2359 -0.0071 -0.1628
  157loPI   C4A 2506   3.443  10.752   7.514  0.2979 -0.2572 -0.2529
  157loPI   C5A 2507   3.699  10.651   7.231  0.0465  0.2666  0.0689
  157loPI   C6A 2508   3.589  10.851   6.828 -0.4262 -0.1754 -0.3146
  157loPI   C1B 2509   3.077  10.885   8.928  0.1029 -0.0272 -0.0375
  157loPI   C2B 2510   3.033  10.882   8.457 -0.0750 -0.1798 -0.0528
  157loPI   C3B 2511   2.865  10.841   8.033  0.0118 -0.1379 -0.0338
  157loPI   C4B 2512   3.165  11.140   7.707  0.5045  0.4104  0.1447
  158loPI    C1 2513   7.140  18.600   9.832 -0.1051  0.0658 -0.0982
  158loPI    C2 2514   7.407  18.452  10.091 -0.1277  0.3166  0.0718
  158loPI    C3 2515   7.049  18.575  10.221 -0.2163  0.2550 -0.1107
  158loPI   PO4 2516   7.278  18.520   9.613  0.2052  0.1643  0.1135
  158loPI   GL1 2517   7.038  18.368   9.179  0.0982  0.0989  0.0147
  158loPI   GL2 2518   7.153  18.114   9.232  0.1747 -0.2098  0.2644
  158loPI   C1A 2519   6.974  18.404   8.717 -0.5873 -0.0602 -0.0617
  158loPI   C2A 2520   6.923  18.434   8.335 -0.3145 -0.0904 -0.0706
  158loPI   C3A 2521   7.022  18.506   7.877  0.2783  0.1635 -0.0365
  158loPI   C4A 2522   7.277  18.627   7.448  0.5728 -0.3853 -0.0703
  158loPI   C5A 2523   7.621  18.560   7.324  0.1901 -0.1401  0.0632
  158loPI   C6A 2524   7.919  18.636   7.021 -0.0532  0.1651 -0.0618
  158loPI   C1B 2525   6.936  17.950   8.939 -0.1746 -0.0791  0.1337
  158loPI   C2B 2526   6.931  17.851   8.518  0.0407 -0.0215 -0.0875
  158loPI   C3B 2527   7.006  17.974   8.066  0.1360 -0.1415  0.2116
  158loPI   C4B 2528   7.162  18.083   7.659 -0.3591 -0.0197  0.0438
  159loPI    C1 2529   3.274   2.587   9.920  0.1106  0.0048  0.0166
  159loPI    C2 2530   3.270   2.276  10.171 -0.0500  0.1551  0.2038
  159loPI    C3 2531   3.598   2.502  10.138  0.0127  0.0623  0.1870
  159loPI   PO4 2532   3.161   2.513   9.679  0.0173 -0.1430  0.0566
  159loPI   GL1 2533   3.135   2.675   9.366 -0.1652 -0.0365  0.1330
  159loPI   GL2 2534   3.206   2.822   9.064 -0.2621 -0.0941  0.3273
  159loPI   C1A 2535   2.955   2.397   8.899  0.6258 -0.4570  0.0811
  159loPI   C2A 2536   2.825   2.299   8.531  0.2485 -0.1555 -0.2392
  159loPI   C3A 2537   2.774   2.505   8.227 -0.0293 -0.1393 -0.0249
  159loPI   C4A 2538   2.710   2.716   7.892 -0.4009 -0.0464 -0.0343
  159loPI   C5A 2539   2.729   2.846   7.503  0.2638  0.1464  0.4657
  159loPI   C6A 2540   2.505   2.671   7.085 -0.1200 -0.0011 -0.3375
  159loPI   C1B 2541   3.012   2.871   8.654  0.0193  0.2001  0.0210
  159loPI   C2B 2542   2.949   2.970   8.270 -0.3375  0.0014 -0.1286
  159loPI   C3B 2543   2.934   3.221   7.863 -0.0020 -0.1048  0.2212
  159loPI   C4B 2544   2.697   3.333   7.489  0.1639  0.1388  0.1330
  160loPI    C1 2545   9.549  16.139   9.741  0.0217 -0.0644 -0.1066
  160loPI    C2 2546   9.283  16.421   9.641  0.1534  0.1111  0.0319
  160loPI    C3 2547   9.204  16.168   9.941  0.0127 -0.0346 -0.1267
  160loPI   PO4 2548   9.629  16.053   9.491 -0.2269 -0.2366  0.0541
  160loPI   GL1 2549   9.569  16.114   9.147  0.0849 -0.2468  0.3750
  160loPI   GL2 2550   9.551  15.903   8.972  0.1774  0.1085  0.1524
  160loPI   C1A 2551   9.751  16.444   8.892  0.0988 -0.1379 -0.0018
  160loPI   C2A 2552   9.841  16.588   8.437  0.0437 -0.0829  0.1717
  160loPI   C3A 2553   9.893  16.527   8.029  0.3064 -0.2931  0.1821
  160loPI   C4A 2554  10.097  16.421   7.733  0.0692 -0.1083  0.1544
  160loPI   C5A 2555  10.084  16.026   7.571  0.4149  0.0243 -0.0120
  160loPI   C6A 2556  10.127  15.662   7.693  0.0118  0.1617  0.0217
  160loPI   C1B 2557   9.455  16.196   8.578 -0.1434 -0.0743 -0.0456
  160loPI   C2B 2558   9.508  16.217   8.155 -0.1636  0.1134 -0.2536
  160loPI   C3B 2559   9.520  16.257   7.740 -0.3932 -0.2526  0.2243
  160loPI   C4B 2560   9.410  16.325   7.292  0.2113 -0.0371 -0.1487
  161loPI    C1 2561  11.157   6.937   9.542  0.0596  0.1144 -0.1325
  161loPI    C2 2562  11.389   7.181   9.757  0.2349 -0.2322  0.0807
  161loPI    C3 2563  11.088   6.985   9.933  0.1020 -0.1792 -0.0860
  161loPI   PO4 2564  11.086   7.018   9.404 -0.1015  0.0836 -0.2546
  161loPI   GL1 2565  10.903   7.048   9.012 -0.0274  0.4431 -0.1070
  161loPI   GL2 2566  11.286   6.828   9.001  0.0977  0.2052  0.1167
  161loPI   C1A 2567  10.880   7.338   8.678 -0.0562 -0.0550  0.0637
  161loPI   C2A 2568  10.599   7.649   8.479 -0.0172 -0.1640  0.5049
  161loPI   C3A 2569  10.529   7.716   8.060  0.1440  0.2925 -0.0310
  161loPI   C4A 2570  10.611   7.550   7.640 -0.0637  0.0322  0.0593
  161loPI   C5A 2571  10.802   7.575   7.245  0.0831  0.0757 -0.1980
  161loPI   C6A 2572  11.085   7.284   6.970 -0.4668  0.0682  0.3652
  161loPI   C1B 2573  11.352   7.044   8.680 -0.3657 -0.3487  0.0665
  161loPI   C2B 2574  11.131   7.130   8.281  0.2807  0.2884  0.0492
  161loPI   C3B 2575  10.984   7.472   8.092  0.1809  0.1401 -0.2663
  161loPI   C4B 2576  11.121   7.523   7.747 -0.4766 -0.1242 -0.0804
  162loPI    C1 2577  14.370   7.006   9.920 -0.2689  0.0681 -0.0733
  162loPI    C2 2578  14.404   7.361   9.738  0.2349  0.0704  0.0111
  162loPI    C3 2579  14.209   7.333  10.086 -0.0427  0.2116 -0.1305
  162loPI   PO4 2580  14.515   6.888   9.680 -0.3411  0.2146  0.0366
  162loPI   GL1 2581  14.409   7.090   9.320  0.0947 -0.1305 -0.2612
  162loPI   GL2 2582  14.107   6.896   9.102 -0.1872  0.0429 -0.1466
  162loPI   C1A 2583  14.691   7.135   8.982  0.1958 -0.4030  0.3510
  162loPI   C2A 2584  14.529   7.196   8.587 -0.0244 -0.2514  0.2442
  162loPI   C3A 2585  14.378   7.272   8.125  0.0859  0.1352 -0.1498
  162loPI   C4A 2586  14.242   7.383   7.656 -0.4255 -0.3281  0.2847
  162loPI   C5A 2587  14.334   7.542   7.218 -0.2041  0.1520 -0.2872
  162loPI   C6A 2588  14.318   7.754   6.941 -0.0340 -0.0349  0.0638
  162loPI   C1B 2589  14.021   7.170   8.694 -0.3299 -0.0607  0.1035
  162loPI   C2B 2590  13.849   7.215   8.196  0.0496 -0.3825  0.1740
  162loPI   C3B 2591  13.768   7.268   7.765  0.3246  0.1083  0.0057
  162loPI   C4B 2592  13.830   7.140   7.447 -0.1619 -0.3785 -0.2984
  163loPI    C1 2593  17.515  11.927   9.714 -0.1529 -0.1069 -0.0613
  163loPI    C2 2594  17.509  11.936  10.114 -0.1467  0.3226 -0.0657
  163loPI    C3 2595  17.814  12.102   9.915 -0.1163  0.0515 -0.2504
  163loPI   PO4 2596  17.269  11.925   9.570 -0.2970  0.1523 -0.2420
  163loPI   GL1 2597  17.074  11.638   9.296 -0.3318  0.0706 -0.1785
  163loPI   GL2 2598  17.465  11.531   9.315  0.0695 -0.2582 -0.2055
  163loPI   C1A 2599  16.940  11.830   8.931  0.3327  0.1674 -0.0208
  163loPI   C2A 2600  16.791  12.008   8.620 -0.0098 -0.0173 -0.1403
  163loPI   C3A 2601  16.651  12.050   8.162 -0.2052  0.3292  0.1770
  163loPI   C4A 2602  16.699  11.904   7.754 -0.2079  0.1083 -0.3607
  163loPI   C5A 2603  17.041  11.862   7.525 -0.0222  0.1215  0.1490
  163loPI   C6A 2604  17.411  11.628   7.449  0.1466  0.0870 -0.2116
  163loPI   C1B 2605  17.524  11.564   8.795 -0.1954 -0.1013  0.0739
  163loPI   C2B 2606  17.547  11.594   8.372  0.0372  0.3179 -0.2285
  163loPI   C3B 2607  17.498  11.829   8.034  0.0464  0.0082 -0.0110
  163loPI   C4B 2608  17.455  12.147   7.667  0.1775  0.1780 -0.2084
  164loPI    C1 2609   4.305   2.959   9.403 -0.1274 -0.0099  0.1251
  164loPI    C2 2610   4.179   3.192   9.702 -0.0218 -0.0559  0.2063
  164loPI    C3 2611   4.514   3.284   9.505  0.0293 -0.1477  0.2496
  164loPI   PO4 2612   4.071   2.783   9.375 -0.3132  0.1561 -0.2549
  164loPI   GL1 2613   3.826   2.793   8.986  0.1014 -0.0907  0.0705
  164loPI   GL2 2614   4.034   2.972   8.892  0.3511 -0.0189  0.3423
  164loPI   C1A 2615   3.856   2.659   8.454  0.1999  0.4807 -0.2270
  164loPI   C2A 2616   3.671   2.811   8.072 -0.0706  0.0574 -0.2818
  164loPI   C3A 2617   3.751   2.749   7.689  0.0210 -0.0879 -0.1621
  164loPI   C4A 2618   3.748   2.685   7.243  0.0981 -0.0812 -0.1106
  164loPI   C5A 2619   3.796   2.602   6.756  0.1789  0.3325  0.2429
  164loPI   C6A 2620   4.239   2.297   6.664 -0.0247 -0.1173  0.1979
  164loPI   C1B 2621   3.951   3.150   8.507 -0.0010 -0.1247 -0.1459
  164loPI   C2B 2622   4.015   3.164   8.055 -0.2159 -0.3545 -0.2291
  164loPI   C3B 2623   4.100   3.203   7.669  0.2953 -0.2606  0.3457
  164loPI   C4B 2624   4.194   3.131   7.441  0.1871 -0.1640 -0.0065
  165loPI    C1 2625  13.654   2.572   9.860  0.0067 -0.1675 -0.1171
  165loPI    C2 2626  13.966   2.332   9.794  0.1812  0.0392 -0.0549
  165loPI    C3 2627  13.674   2.217  10.042  0.4004  0.0063  0.1920
  165loPI   PO4 2628  13.633   2.718   9.579  0.1278  0.0101 -0.0657
  165loPI   GL1 2629  13.737   2.659   9.090 -0.0504 -0.0410 -0.0496
  165loPI   GL2 2630  13.521   2.992   9.142 -0.3161 -0.3017  0.0852
  165loPI   C1A 2631  13.923   2.428   8.743 -0.1267  0.1545  0.0578
  165loPI   C2A 2632  13.865   2.152   8.477 -0.2371 -0.2390  0.1283
  165loPI   C3A 2633  13.940   2.311   8.088  0.1690  0.0979  0.1004
  165loPI   C4A 2634  14.200   2.242   7.693 -0.1198  0.0720  0.2911
  165loPI   C5A 2635  14.093   2.112   7.358 -0.1951 -0.4781  0.2556
  165loPI   C6A 2636  14.360   1.907   7.080 -0.0282  0.1516 -0.2507
  165loPI   C1B 2637  13.402   2.901   8.784 -0.0051  0.0696  0.0427
  165loPI   C2B 2638  12.984   2.741   8.556  0.0775 -0.1026 -0.1122
  165loPI   C3B 2639  12.539   2.527   8.358 -0.5286 -0.2622 -0.0909
  165loPI   C4B 2640  12.356   2.411   7.963 -0.0066  0.1881 -0.0652
  166loPI    C1 2641   3.901   4.005   9.491 -0.1278 -0.1775 -0.0927
  166loPI    C2 2642   4.007   3.654   9.652  0.0593  0.0131  0.2084
  166loPI    C3 2643   3.666   3.831   9.763 -0.1577 -0.1869 -0.1246
  166loPI   PO4 2644   3.930   3.931   9.224  0.1552 -0.2023 -0.0607
  166loPI   GL1 2645   3.770   4.005   8.842 -0.1482 -0.1099  0.2579
  166loPI   GL2 2646   4.005   4.105   8.740 -0.1824  0.0413 -0.0418
  166loPI   C1A 2647   3.308   4.273   8.760  0.0817  0.2465  0.3479
  166loPI   C2A 2648   3.097   4.524   8.427  0.3447 -0.0026 -0.0939
  166loPI   C3A 2649   2.862   4.540   8.088  0.0487 -0.1387  0.4141
  166loPI   C4A 2650   2.771   4.678   7.602 -0.1278  0.1654 -0.2197
  166loPI   C5A 2651   3.039   4.427   7.315 -0.4253 -0.1671  0.0592
  166loPI   C6A 2652   3.198   4.191   6.961 -0.1668 -0.1848 -0.1649
  166loPI   C1B 2653   3.753   4.119   8.380  0.1140 -0.0307 -0.0165
  166loPI   C2B 2654   3.740   4.159   8.000 -0.1737  0.0189 -0.1934
  166loPI   C3B 2655   3.534   4.278   7.738 -0.0795 -0.0628  0.1666
  166loPI   C4B 2656   3.419   3.994   7.369  0.0321 -0.3052  0.1700
  167loPI    C1 2657  16.795   4.539   9.609 -0.0964  0.0329  0.2986
  167loPI    C2 2658  16.962   4.521   9.972  0.1291 -0.3167  0.1822
  167loPI    C3 2659  16.643   4.295   9.887 -0.2780  0.1825  0.3328
  167loPI   PO4 2660  16.951   4.448   9.430 -0.2193 -0.0556  0.0250
  167loPI   GL1 2661  16.991   4.301   9.037 -0.0763  0.0675  0.2597
  167loPI   GL2 2662  16.681   4.000   8.950 -0.1135 -0.2028  0.3587
  167loPI   C1A 2663  17.145   4.196   8.618 -0.1974 -0.0220  0.1253
  167loPI   C2A 2664  17.164   4.216   8.112 -0.0690 -0.3249 -0.0226
  167loPI   C3A 2665  17.147   4.223   7.686 -0.1735 -0.1596 -0.1477
  167loPI   C4A 2666  17.108   4.511   7.438 -0.0299 -0.2090  0.1263
  167loPI   C5A 2667  17.021   4.772   7.114  0.0257 -0.1795  0.2759
  167loPI   C6A 2668  16.753   4.767   6.747 -0.2495 -0.0479 -0.0865
  167loPI   C1B 2669  16.691   3.971   8.473 -0.2987  0.1144 -0.4157
  167loPI   C2B 2670  16.674   3.933   8.046  0.1784  0.1145  0.4283
  167loPI   C3B 2671  16.803   3.860   7.591  0.2075 -0.1774 -0.2807
  167loPI   C4B 2672  16.905   3.869   7.157 -0.3196 -0.0640 -0.3380
  168loPI    C1 2673  11.242  13.494  10.173  0.0038 -0.2076  0.2696
  168loPI    C2 2674  10.968  13.325   9.936  0.1875  0.0627 -0.1471
  168loPI    C3 2675  11.109  13.125  10.252 -0.1702 -0.2467 -0.1764
  168loPI   PO4 2676  11.394  13.708  10.026  0.1672  0.2627 -0.1115
  168loPI   GL1 2677  11.660  13.511   9.768  0.4349 -0.3507 -0.1846
  168loPI   GL2 2678  12.029  13.497   9.807  0.0111 -0.2707  0.0430
  168loPI   C1A 2679  11.696  13.621   9.287  0.1689 -0.2215 -0.0400
  168loPI   C2A 2680  11.610  13.804   8.841 -0.0376 -0.0019 -0.0239
  168loPI   C3A 2681  11.432  13.873   8.430 -0.1856 -0.3170  0.0729
  168loPI   C4A 2682  11.364  13.912   8.054 -0.2325 -0.0176  0.0871
  168loPI   C5A 2683  11.179  13.910   7.617 -0.3478 -0.1952 -0.2488
  168loPI   C6A 2684  10.841  13.818   7.374 -0.1162 -0.1922  0.0355
  168loPI   C1B 2685  12.252  13.487   9.465  0.0057 -0.0903 -0.0966
  168loPI   C2B 2686  12.318  13.331   9.071  0.0980  0.1910 -0.4679
  168loPI   C3B 2687  12.350  13.159   8.737 -0.3139  0.1225  0.0983
  168loPI   C4B 2688  12.578  13.233   8.260 -0.4913  0.2278  0.2290
  169loPI    C1 2689   7.865   2.433   9.464 -0.4015 -0.0359 -0.3273
  169loPI    C2 2690   7.995   2.504   9.836  0.0561 -0.0202 -0.4841
  169loPI    C3 2691   7.603   2.476   9.763 -0.0396 -0.0039 -0.0062
  169loPI   PO4 2692   8.015   2.516   9.364 -0.0542 -0.5390 -0.1145
  169loPI   GL1 2693   8.070   2.618   8.998  0.3070 -0.2141  0.3836
  169loPI   GL2 2694   7.830   2.974   9.118 -0.0370  0.0134  0.0111
  169loPI   C1A 2695   8.212   2.650   8.639 -0.1219  0.0322  0.0844
  169loPI   C2A 2696   8.090   2.681   8.268 -0.0795  0.1501 -0.0725
  169loPI   C3A 2697   8.110   2.689   7.653  0.2398  0.0785 -0.2171
  169loPI   C4A 2698   8.145   2.973   7.322  0.2431  0.0036 -0.1764
  169loPI   C5A 2699   8.259   3.387   7.042 -0.2539  0.3181 -0.3246
  169loPI   C6A 2700   8.218   3.560   6.732 -0.1445  0.0010  0.0320
  169loPI   C1B 2701   8.040   3.094   8.738 -0.3321  0.0967  0.0255
  169loPI   C2B 2702   8.163   3.210   8.256  0.1200  0.4706  0.1893
  169loPI   C3B 2703   7.955   3.219   7.821 -0.1138  0.1362 -0.0162
  169loPI   C4B 2704   7.742   3.243   7.519 -0.2370  0.0781 -0.1030
  170loPI    C1 2705  18.774  11.581  10.113 -0.0472 -0.1636  0.1264
  170loPI    C2 2706  18.589  11.722  10.439 -0.1483 -0.0716  0.0300
  170loPI    C3 2707  18.918  11.903  10.301 -0.1717 -0.0410  0.0141
  170loPI   PO4 2708  18.626  11.512   9.884  0.0472  0.4106  0.1448
  170loPI   GL1 2709  18.638  11.439   9.460  0.0131  0.0663 -0.2518
  170loPI   GL2 2710  18.374  11.587   9.472  0.4104 -0.1425  0.0376
  170loPI   C1A 2711  18.953  11.465   9.001  0.1911  0.0605  0.0716
  170loPI   C2A 2712  18.973  11.481   8.581  0.1348 -0.0536 -0.1323
  170loPI   C3A 2713  18.926  11.531   8.154  0.1062  0.1855  0.2389
  170loPI   C4A 2714  19.115  11.652   7.768  0.1559  0.4580 -0.1618
  170loPI   C5A 2715  19.088  11.727   7.283 -0.1586  0.3857  0.1770
  170loPI   C6A 2716  19.329  11.807   6.960  0.0695  0.0433  0.4112
  170loPI   C1B 2717  18.498  11.643   8.992  0.1798  0.1181 -0.0704
  170loPI   C2B 2718  18.491  11.614   8.650  0.1251  0.0995  0.0866
  170loPI   C3B 2719  18.432  11.666   8.226 -0.4483 -0.1629  0.4573
  170loPI   C4B 2720  18.576  11.645   7.786  0.1448  0.0060 -0.2499
  171loPI    C1 2721   7.263   5.005   9.373  0.0725 -0.1783  0.0293
  171loPI    C2 2722   7.118   4.689   9.571 -0.3772  0.1647  0.2631
  171loPI    C3 2723   7.249   5.009   9.772  0.2920  0.0489  0.0370
  171loPI   PO4 2724   7.177   5.048   9.086  0.4065  0.3188  0.1492
  171loPI   GL1 2725   7.213   5.316   8.716  0.0297 -0.1060 -0.0236
  171loPI   GL2 2726   7.390   5.249   8.624 -0.0121 -0.1488 -0.2978
  171loPI   C1A 2727   7.008   5.298   8.309  0.1519  0.2942 -0.0547
  171loPI   C2A 2728   7.061   5.251   7.861  0.4276 -0.0374  0.1489
  171loPI   C3A 2729   7.116   5.232   7.511 -0.0895  0.0344  0.1048
  171loPI   C4A 2730   7.005   5.177   7.118  0.3406  0.0173 -0.2585
  171loPI   C5A 2731   6.935   4.836   6.877  0.2108  0.0632  0.2689
  171loPI   C6A 2732   6.849   4.566   6.550  0.2034 -0.1190 -0.1350
  171loPI   C1B 2733   7.596   5.086   8.285 -0.0526 -0.0133 -0.2354
  171loPI   C2B 2734   7.740   4.993   7.894  0.0885 -0.1162  0.0917
  171loPI   C3B 2735   7.808   4.805   7.412  0.2368  0.0927 -0.4802
  171loPI   C4B 2736   8.173   5.005   7.137  0.3508 -0.0688  0.1285
  172loPI    C1 2737   9.628   0.151   9.695 -0.0044 -0.2192 -0.1729
  172loPI    C2 2738  10.026   0.182   9.707 -0.0323  0.0903  0.0504
  172loPI    C3 2739   9.841  -0.103   9.919  0.0474  0.1798  0.2429
  172loPI   PO4 2740   9.569   0.353   9.676  0.2093 -0.2831  0.1380
  172loPI   GL1 2741   9.472   0.494   9.244 -0.1904  0.1529 -0.0676
  172loPI   GL2 2742   9.772   0.557   9.185 -0.1287  0.3180  0.1817
  172loPI   C1A 2743   9.338   0.552   8.859  0.0229  0.0391 -0.0851
  172loPI   C2A 2744   9.268   0.488   8.518 -0.1794  0.2679  0.3104
  172loPI   C3A 2745   9.369   0.651   8.160 -0.1284 -0.2128  0.2495
  172loPI   C4A 2746   9.478   0.698   7.824 -0.1310  0.0687  0.4078
  172loPI   C5A 2747   9.226   0.952   7.477  0.2126 -0.1805  0.1691
  172loPI   C6A 2748   9.208   1.204   7.105 -0.2640 -0.1054  0.0826
  172loPI   C1B 2749   9.812   0.406   8.767 -0.2293 -0.2263 -0.0126
  172loPI   C2B 2750   9.847   0.605   8.312 -0.2433  0.2939 -0.0939
  172loPI   C3B 2751   9.986   0.687   7.822 -0.1891 -0.0837 -0.0496
  172loPI   C4B 2752   9.894   1.042   7.631  0.1602 -0.1801  0.0320
  173loPI    C1 2753   4.913   0.632   9.618  0.1547 -0.1091  0.0145
  173loPI    C2 2754   4.943   0.995   9.783  0.0492 -0.1623  0.1529
  173loPI    C3 2755   5.135   0.684   9.947  0.1120 -0.1758  0.0543
  173loPI   PO4 2756   5.158   0.698   9.417  0.2583 -0.3103 -0.1052
  173loPI   GL1 2757   5.235   0.683   9.109 -0.1869 -0.0151  0.3152
  173loPI   GL2 2758   5.140   1.007   8.880  0.0356 -0.1644  0.0393
  173loPI   C1A 2759   5.126   0.531   8.638 -0.2278  0.0406  0.1275
  173loPI   C2A 2760   5.298   0.616   8.204 -0.1621  0.0018 -0.3547
  173loPI   C3A 2761   5.327   0.612   7.753  0.0454  0.3359 -0.0199
  173loPI   C4A 2762   5.428   0.843   7.412  0.4100 -0.0777 -0.1029
  173loPI   C5A 2763   5.754   0.896   7.125 -0.0540 -0.1980 -0.1601
  173loPI   C6A 2764   6.093   0.871   7.135  0.1332  0.0971 -0.1232
  173loPI   C1B 2765   5.460   0.912   8.656  0.0451  0.0042  0.0709
  173loPI   C2B 2766   5.554   1.054   8.319 -0.0178 -0.0417 -0.1441
  173loPI   C3B 2767   5.450   1.108   7.871  0.2054 -0.0388  0.0219
  173loPI   C4B 2768   5.596   1.354   7.511  0.3090 -0.1048  0.0458
  174loPI    C1 2769   6.464  12.608   9.838 -0.0303 -0.0911 -0.1298
  174loPI    C2 2770   6.562  12.255   9.999  0.0010 -0.0815 -0.1273
  174loPI    C3 2771   6.365  12.527  10.217 -0.0653 -0.1157 -0.1440
  174loPI   PO4 2772   6.487  12.544   9.590  0.0946 -0.0486 -0.0578
  174loPI   GL1 2773   6.491  12.823   9.254  0.0500 -0.1156 -0.2280
  174loPI   GL2 2774   6.807  12.985   9.313  0.0643  0.0788 -0.0657
  174loPI   C1A 2775   6.476  12.822   8.853 -0.0633 -0.2519  0.1707
  174loPI   C2A 2776   6.323  13.181   8.672 -0.3651  0.0048  0.0643
  174loPI   C3A 2777   6.143  13.334   8.345  0.3147  0.1325  0.1917
  174loPI   C4A 2778   6.246  13.359   7.929 -0.1054  0.0681  0.0708
  174loPI   C5A 2779   6.597  13.478   7.638 -0.1863  0.0139 -0.3763
  174loPI   C6A 2780   6.855  13.583   7.305 -0.0338 -0.1001  0.0405
  174loPI   C1B 2781   6.738  13.235   8.952 -0.0682 -0.3159 -0.0003
  174loPI   C2B 2782   6.790  13.152   8.548  0.2410  0.0962 -0.1725
  174loPI   C3B 2783   6.604  13.151   8.225  0.3147 -0.1949  0.0586
  174loPI   C4B 2784   6.351  12.900   8.146  0.1396  0.0288 -0.3046
  175loPI    C1 2785  10.617  16.465   9.764 -0.0108  0.1026  0.0105
  175loPI    C2 2786  10.303  16.606   9.968  0.1529  0.0897  0.2763
  175loPI    C3 2787  10.667  16.758  10.031  0.1902  0.1641 -0.0924
  175loPI   PO4 2788  10.612  16.470   9.535  0.4635 -0.1449 -0.1353
  175loPI   GL1 2789  10.726  16.373   9.111 -0.0496  0.0959 -0.1312
  175loPI   GL2 2790  11.011  16.428   9.195  0.2633  0.1164  0.1376
  175loPI   C1A 2791  10.599  16.452   8.630 -0.1193 -0.2723 -0.0337
  175loPI   C2A 2792  10.394  16.584   8.310  0.0279  0.0172 -0.1949
  175loPI   C3A 2793  10.482  16.613   7.930 -0.3254 -0.2937  0.0612
  175loPI   C4A 2794  10.633  16.530   7.612 -0.2933  0.2866  0.3173
  175loPI   C5A 2795  11.070  16.433   7.368 -0.1307 -0.1136 -0.0681
  175loPI   C6A 2796  11.184  16.053   7.203 -0.2010 -0.0258  0.0041
  175loPI   C1B 2797  11.244  16.773   8.850 -0.3231  0.0554  0.0102
  175loPI   C2B 2798  11.445  16.772   8.399  0.0961 -0.2297  0.1814
  175loPI   C3B 2799  11.440  16.505   8.094  0.3017  0.2372  0.1538
  175loPI   C4B 2800  11.400  16.273   7.712 -0.0329 -0.1318  0.3208
  176loPI    C1 2801   5.444  12.850   9.690 -0.0359 -0.0712 -0.1645
  176loPI    C2 2802   5.436  12.589   9.993 -0.2529  0.1432  0.0181
  176loPI    C3 2803   5.569  12.961  10.053 -0.1837  0.1514 -0.1803
  176loPI   PO4 2804   5.526  12.711   9.468 -0.2329 -0.2673  0.0064
  176loPI   GL1 2805   5.481  12.840   9.030  0.3661 -0.1149 -0.1804
  176loPI   GL2 2806   5.550  12.456   9.037 -0.0956 -0.4022  0.1251
  176loPI   C1A 2807   5.389  12.795   8.562  0.0547 -0.0931 -0.0988
  176loPI   C2A 2808   5.317  12.851   8.158  0.1689 -0.0689  0.1292
  176loPI   C3A 2809   5.504  12.804   7.748  0.0417  0.1519  0.4842
  176loPI   C4A 2810   5.875  12.615   7.414  0.3030  0.0040  0.3517
  176loPI   C5A 2811   6.330  12.682   7.187 -0.2053  0.1311  0.0754
  176loPI   C6A 2812   6.575  12.456   6.981  0.3463 -0.0192 -0.2938
  176loPI   C1B 2813   5.122  12.444   8.959  0.1061  0.1585  0.1199
  176loPI   C2B 2814   4.876  12.347   8.711  0.2204 -0.0674 -0.1588
  176loPI   C3B 2815   4.576  12.250   8.296  0.0498  0.0663  0.4125
  176loPI   C4B 2816   4.502  12.183   7.759 -0.0140  0.3537 -0.2916
  177loPI    C1 2817   1.100  14.186  10.050 -0.1215  0.0467  0.1217
  177loPI    C2 2818   0.769  14.140   9.830 -0.0517 -0.4018  0.1003
  177loPI    C3 2819   0.804  13.952  10.182  0.0922 -0.1807  0.2068
  177loPI   PO4 2820   1.293  14.148   9.902  0.2902 -0.0674 -0.5820
  177loPI   GL1 2821   1.168  14.129   9.488  0.3086 -0.3303 -0.1366
  177loPI   GL2 2822   1.267  13.754   9.411 -0.0578  0.0789 -0.2788
  177loPI   C1A 2823   0.850  14.229   9.235  0.1413 -0.2654 -0.0916
  177loPI   C2A 2824   0.685  14.272   8.890  0.1328  0.0490 -0.0513
  177loPI   C3A 2825   0.629  14.368   8.471  0.0364  0.1279  0.0556
  177loPI   C4A 2826   0.461  14.484   8.053 -0.3865  0.2671  0.0357
  177loPI   C5A 2827   0.351  14.386   7.581  0.2564 -0.0970  0.2149
  177loPI   C6A 2828   0.469  13.891   7.432 -0.1503 -0.1501  0.1046
  177loPI   C1B 2829   1.234  13.888   8.977  0.0901  0.0195  0.0322
  177loPI   C2B 2830   1.100  14.055   8.575 -0.2841 -0.2865  0.3211
  177loPI   C3B 2831   1.115  14.002   8.097  0.2226 -0.4554  0.0563
  177loPI   C4B 2832   1.233  13.606   8.014  0.1399 -0.0524  0.1111
  178loPI    C1 2833  11.034  10.666  10.261 -0.1832 -0.1026  0.1719
  178loPI    C2 2834  11.419  10.601  10.349 -0.0852 -0.0910 -0.2268
  178loPI    C3 2835  11.149  10.638  10.643  0.2413  0.0590  0.0608
  178loPI   PO4 2836  11.037  10.712   9.999  0.0696 -0.2092  0.2532
  178loPI   GL1 2837  10.918  10.499   9.701 -0.0061 -0.0722 -0.2031
  178loPI   GL2 2838  11.093  10.226   9.527  0.2680 -0.3701 -0.0684
  178loPI   C1A 2839  10.724  10.625   9.270  0.1056 -0.1252 -0.1925
  178loPI   C2A 2840  10.838  10.843   8.915  0.1196  0.1842  0.0914
  178loPI   C3A 2841  10.896  11.063   8.570 -0.1320 -0.2254 -0.2075
  178loPI   C4A 2842  11.035  11.064   8.202 -0.3496 -0.3384  0.2196
  178loPI   C5A 2843  11.080  10.989   7.754  0.0139 -0.0855  0.1281
  178loPI   C6A 2844  11.552  11.029   7.672 -0.0184  0.0590 -0.0946
  178loPI   C1B 2845  11.125   9.985   9.167  0.0324 -0.2466 -0.1933
  178loPI   C2B 2846  11.298   9.698   8.859  0.0090  0.0283 -0.1669
  178loPI   C3B 2847  11.528   9.323   8.687  0.0314 -0.3010 -0.0245
  178loPI   C4B 2848  11.984   9.125   8.673 -0.1650  0.3558 -0.0958
  179loPI    C1 2849   1.229   9.648   9.984 -0.0423 -0.0644 -0.0703
  179loPI    C2 2850   1.504   9.906  10.116 -0.1378 -0.1598  0.3279
  179loPI    C3 2851   1.606   9.622   9.854  0.0436  0.0682  0.1475
  179loPI   PO4 2852   1.086   9.724   9.910 -0.1133 -0.0035 -0.0421
  179loPI   GL1 2853   1.059   9.597   9.391 -0.1004  0.2941 -0.0395
  179loPI   GL2 2854   0.703   9.656   9.528 -0.0002 -0.0376 -0.2310
  179loPI   C1A 2855   0.857   9.589   9.026 -0.0224 -0.1339 -0.0385
  179loPI   C2A 2856   0.928   9.585   8.521  0.1155  0.0555 -0.0048
  179loPI   C3A 2857   0.776   9.620   8.101  0.1780 -0.0050 -0.1732
  179loPI   C4A 2858   1.049   9.764   7.682 -0.0656 -0.3051 -0.0342
  179loPI   C5A 2859   0.853   9.782   7.263  0.0762  0.0645 -0.0524
  179loPI   C6A 2860   0.517   9.963   7.052 -0.0511 -0.2674 -0.0251
  179loPI   C1B 2861   0.512   9.880   9.181 -0.0255  0.0666 -0.0308
  179loPI   C2B 2862   0.266  10.182   8.968  0.1640 -0.0570  0.2543
  179loPI   C3B 2863   0.388  10.303   8.547  0.0089  0.3954  0.1092
  179loPI   C4B 2864   0.255  10.437   8.196 -0.2573 -0.0393  0.0619
  180loPI    C1 2865  14.110   5.900   9.343  0.1406  0.0176 -0.2575
  180loPI    C2 2866  14.041   6.146   9.651  0.3128  0.1658 -0.3346
  180loPI    C3 2867  14.154   5.768   9.718 -0.1362  0.0463 -0.2126
  180loPI   PO4 2868  14.244   6.068   9.200 -0.0272 -0.0427 -0.0816
  180loPI   GL1 2869  14.243   6.067   8.801 -0.1853 -0.1012 -0.1973
  180loPI   GL2 2870  14.471   5.839   8.810  0.2330 -0.1755 -0.0629
  180loPI   C1A 2871  14.508   6.364   8.538  0.0248  0.0418 -0.0707
  180loPI   C2A 2872  14.681   6.670   8.225  0.1936  0.0155  0.1253
  180loPI   C3A 2873  14.598   6.656   7.789  0.2165 -0.1313  0.1838
  180loPI   C4A 2874  14.650   6.650   7.360  0.1777  0.2001 -0.2511
  180loPI   C5A 2875  14.953   6.664   7.030 -0.1175  0.4280  0.3965
  180loPI   C6A 2876  15.405   6.609   7.006 -0.0453 -0.0290  0.1392
  180loPI   C1B 2877  14.534   5.908   8.292 -0.0592 -0.2564  0.2412
  180loPI   C2B 2878  14.505   6.255   8.051 -0.3196  0.2372  0.2409
  180loPI   C3B 2879  14.159   6.361   7.754  0.0658 -0.0374 -0.1460
  180loPI   C4B 2880  13.771   6.131   7.717  0.0462 -0.0814 -0.1592
  181loPI    C1 2881   1.979  16.695  10.067 -0.0534  0.0516 -0.0027
  181loPI    C2 2882   2.254  16.735  10.355  0.1123  0.1005 -0.1654
  181loPI    C3 2883   1.894  16.584  10.441  0.1145  0.2376  0.0926
  181loPI   PO4 2884   2.156  16.595   9.859  0.1913 -0.0432  0.0230
  181loPI   GL1 2885   2.054  16.601   9.393  0.5534 -0.0300 -0.0608
  181loPI   GL2 2886   1.905  16.506   9.119  0.1978  0.0907  0.1574
  181loPI   C1A 2887   2.191  16.849   8.993 -0.0936 -0.0186 -0.4919
  181loPI   C2A 2888   2.235  16.687   8.505  0.4332 -0.2430  0.1295
  181loPI   C3A 2889   2.134  16.558   8.076  0.1025  0.0200 -0.2442
  181loPI   C4A 2890   2.212  16.250   7.674 -0.0790  0.2608  0.1145
  181loPI   C5A 2891   2.310  16.222   7.234 -0.4181 -0.3403  0.2060
  181loPI   C6A 2892   2.650  16.082   6.851  0.0876 -0.0343 -0.3643
  181loPI   C1B 2893   1.830  16.439   8.631 -0.1567  0.0108 -0.1065
  181loPI   C2B 2894   1.627  16.320   8.278 -0.0786 -0.1546  0.0458
  181loPI   C3B 2895   1.284  16.359   8.087 -0.0457 -0.0680 -0.0216
  181loPI   C4B 2896   1.207  16.376   7.674  0.2800 -0.0148  0.0043
  182loPI    C1 2897  19.019   6.647   9.518 -0.2036 -0.0965  0.0299
  182loPI    C2 2898  19.249   6.466   9.790  0.0715  0.1094 -0.0601
  182loPI    C3 2899  18.982   6.741   9.905  0.0078  0.0125  0.0254
  182loPI   PO4 2900  18.884   6.552   9.395 -0.0344 -0.3032 -0.2583
  182loPI   GL1 2901  18.810   6.599   8.959  0.1762  0.1114 -0.0411
  182loPI   GL2 2902  18.822   6.218   9.033 -0.2618  0.0611  0.1662
  182loPI   C1A 2903  18.783   6.694   8.480  0.2396  0.3207 -0.1915
  182loPI   C2A 2904  18.760   6.729   8.052 -0.0636  0.0851  0.2248
  182loPI   C3A 2905  18.887   6.586   7.745 -0.0100  0.1836  0.5528
  182loPI   C4A 2906  19.015   6.398   7.416  0.0340  0.0981  0.2539
  182loPI   C5A 2907  18.821   6.355   7.011  0.2637  0.1023  0.4498
  182loPI   C6A 2908  18.789   6.058   6.680 -0.0193 -0.0006 -0.3826
  182loPI   C1B 2909  18.749   6.243   8.578 -0.0189 -0.0943  0.2426
  182loPI   C2B 2910  18.840   6.258   8.158  0.4530  0.1675 -0.2087
  182loPI   C3B 2911  18.822   6.084   7.756  0.1370  0.0139 -0.1395
  182loPI   C4B 2912  18.763   5.961   7.269  0.2535  0.1499  0.1346
  183loPI    C1 2913  12.078  11.059  10.002 -0.1992 -0.0559 -0.2115
  183loPI    C2 2914  11.857  10.774  10.176  0.0916 -0.1849 -0.0445
  183loPI    C3 2915  12.011  11.070  10.397  0.0415 -0.0649 -0.1688
  183loPI   PO4 2916  12.170  11.012   9.851 -0.4363  0.1344  0.3373
  183loPI   GL1 2917  11.973  11.037   9.488 -0.2298  0.2681 -0.0971
  183loPI   GL2 2918  12.013  11.293   9.310 -0.1419 -0.1751  0.0900
  183loPI   C1A 2919  11.627  11.043   9.131 -0.0331  0.1502  0.0739
  183loPI   C2A 2920  11.530  11.218   8.632 -0.2168  0.4490 -0.4013
  183loPI   C3A 2921  11.544  11.299   8.151  0.1628 -0.0907 -0.0114
  183loPI   C4A 2922  11.575  11.527   7.764 -0.1211  0.0959  0.0233
  183loPI   C5A 2923  11.251  11.409   7.408  0.0065 -0.0184  0.2155
  183loPI   C6A 2924  10.814  11.640   7.323 -0.0507 -0.2523  0.0506
  183loPI   C1B 2925  12.018  11.331   8.918 -0.0725 -0.3006  0.0679
  183loPI   C2B 2926  11.890  11.479   8.523 -0.0909  0.2170  0.2985
  183loPI   C3B 2927  12.044  11.398   8.213 -0.0181 -0.0248  0.2814
  183loPI   C4B 2928  12.121  11.702   7.914  0.2674  0.1199 -0.0941
  184loPI    C1 2929   8.104  18.657   9.943  0.0354 -0.2720 -0.2230
  184loPI    C2 2930   8.468  18.679  10.109  0.0030 -0.0018 -0.1839
  184loPI    C3 2931   8.181  18.935  10.220 -0.1489 -0.1020 -0.3400
  184loPI   PO4 2932   8.162  18.677   9.623 -0.1139  0.1739 -0.0414
  184loPI   GL1 2933   8.503  18.790   9.267 -0.0222  0.0894 -0.4878
  184loPI   GL2 2934   8.793  18.727   9.400 -0.0693 -0.3063 -0.1764
  184loPI   C1A 2935   8.285  18.936   8.959  0.2407  0.1952 -0.0369
  184loPI   C2A 2936   8.258  19.038   8.508  0.1643 -0.0859  0.0246
  184loPI   C3A 2937   8.314  19.077   8.106  0.0839  0.3733  0.0681
  184loPI   C4A 2938   8.520  18.909   7.749  0.2690  0.0100 -0.0375
  184loPI   C5A 2939   8.512  19.095   7.294  0.0967  0.1480  0.0742
  184loPI   C6A 2940   8.500  19.401   7.000  0.3325  0.2181 -0.0482
  184loPI   C1B 2941   8.876  19.037   8.987 -0.0379 -0.1515 -0.1026
  184loPI   C2B 2942   8.716  18.927   8.610  0.0230 -0.0901 -0.1180
  184loPI   C3B 2943   8.778  19.014   8.295  0.2627 -0.2039  0.2278
  184loPI   C4B 2944   8.917  19.209   7.922 -0.2236 -0.1015  0.3326
  185loPI    C1 2945  14.157   1.451   9.501 -0.4053 -0.2631 -0.0180
  185loPI    C2 2946  14.103   1.512   9.109  0.0811  0.1346 -0.0324
  185loPI    C3 2947  13.890   1.721   9.375 -0.0321  0.0858 -0.0843
  185loPI   PO4 2948  14.459   1.405   9.539 -0.1876 -0.2302  0.0674
  185loPI   GL1 2949  14.731   1.512   9.206 -0.1220 -0.1803  0.0323
  185loPI   GL2 2950  15.011   1.667   9.057 -0.1483 -0.1673 -0.2502
  185loPI   C1A 2951  14.611   1.626   8.762 -0.0211 -0.2184  0.5947
  185loPI   C2A 2952  14.602   1.536   8.374  0.2994  0.1788  0.0302
  185loPI   C3A 2953  14.616   1.515   7.935  0.1089 -0.1796 -0.3220
  185loPI   C4A 2954  14.544   1.886   7.602 -0.0180 -0.4577 -0.0388
  185loPI   C5A 2955  14.600   2.289   7.367  0.0009  0.2031  0.3468
  185loPI   C6A 2956  14.413   2.375   7.002 -0.2048 -0.0289  0.1628
  185loPI   C1B 2957  15.081   1.691   8.492 -0.1407 -0.2598  0.0341
  185loPI   C2B 2958  15.044   1.670   8.062 -0.1632  0.0257  0.1055
  185loPI   C3B 2959  15.016   1.849   7.635  0.1464 -0.1984 -0.0551
  185loPI   C4B 2960  15.415   1.887   7.342  0.3183  0.1023 -0.1709
  186loPI    C1 2961   2.352   6.312  10.148  0.1284 -0.1215  0.0368
  186loPI    C2 2962   2.113   6.077  10.366  0.0782 -0.0277  0.0838
  186loPI    C3 2963   2.178   6.455  10.479 -0.0037  0.0430 -0.1016
  186loPI   PO4 2964   2.286   6.219   9.903 -0.0198 -0.5300  0.4897
  186loPI   GL1 2965   2.095   6.275   9.563 -0.4207 -0.0414 -0.1476
  186loPI   GL2 2966   2.377   6.278   9.410 -0.0608  0.1038  0.2395
  186loPI   C1A 2967   1.863   6.347   9.189  0.0050  0.1197 -0.1606
  186loPI   C2A 2968   1.905   6.465   8.758  0.1554 -0.2372  0.2481
  186loPI   C3A 2969   2.141   6.641   8.360 -0.1528  0.2601  0.2317
  186loPI   C4A 2970   2.326   6.900   8.005  0.2967 -0.0443 -0.0921
  186loPI   C5A 2971   2.435   7.408   7.810  0.1015 -0.0385  0.1988
  186loPI   C6A 2972   2.409   7.896   7.745 -0.0095  0.0003  0.0581
  186loPI   C1B 2973   2.390   6.182   8.870 -0.2395 -0.1417 -0.0518
  186loPI   C2B 2974   2.306   6.217   8.482 -0.1262  0.1493 -0.0231
  186loPI   C3B 2975   2.388   6.276   8.047  0.0634  0.0273 -0.2596
  186loPI   C4B 2976   2.230   6.429   7.706  0.0140 -0.0375 -0.1508
  187loPI    C1 2977   0.569  16.957   9.924  0.0642 -0.1140  0.0402
  187loPI    C2 2978   0.181  17.036   9.983  0.0209 -0.1620 -0.1723
  187loPI    C3 2979   0.445  17.095  10.278 -0.1468 -0.1244 -0.0284
  187loPI   PO4 2980   0.439  16.688   9.716 -0.0970  0.0193 -0.0911
  187loPI   GL1 2981   0.371  16.685   9.334  0.0971  0.1459  0.0347
  187loPI   GL2 2982   0.595  16.588   9.108 -0.0890 -0.4625  0.0378
  187loPI   C1A 2983   0.150  16.776   8.998  0.3197  0.0897 -0.3304
  187loPI   C2A 2984   0.073  16.718   8.529 -0.0104  0.1738 -0.2316
  187loPI   C3A 2985   0.012  16.788   8.100  0.0607 -0.2835 -0.1827
  187loPI   C4A 2986   0.234  17.087   7.893  0.2264 -0.3160  0.0636
  187loPI   C5A 2987   0.379  17.405   7.572  0.0715  0.0982  0.1472
  187loPI   C6A 2988   0.813  17.537   7.556 -0.0929  0.1389 -0.3456
  187loPI   C1B 2989   0.418  16.373   8.664  0.0283 -0.0219  0.0989
  187loPI   C2B 2990   0.242  16.335   8.208  0.0246  0.2272 -0.0124
  187loPI   C3B 2991   0.145  16.263   7.780 -0.2656 -0.0226  0.2555
  187loPI   C4B 2992   0.120  16.092   7.475  0.1753 -0.2332 -0.1862
  188loPI    C1 2993   7.341   0.692   9.684 -0.0247 -0.3561  0.1157
  188loPI    C2 2994   7.162   0.546  10.011 -0.0984 -0.0565  0.2122
  188loPI    C3 2995   7.202   0.942   9.965  0.2174 -0.1079  0.0189
  188loPI   PO4 2996   7.494   0.535   9.544 -0.2236  0.3365 -0.4994
  188loPI   GL1 2997   7.730   0.505   9.142  0.0169  0.0887  0.4187
  188loPI   GL2 2998   8.059   0.426   9.091  0.1365 -0.1447 -0.1277
  188loPI   C1A 2999   7.674   0.460   8.674  0.3191  0.2338 -0.2500
  188loPI   C2A 3000   7.586   0.412   8.201 -0.2997  0.0404 -0.2103
  188loPI   C3A 3001   7.444   0.436   7.762 -0.0201 -0.2678  0.0828
  188loPI   C4A 3002   7.439   0.436   7.328  0.0680 -0.1103  0.2814
  188loPI   C5A 3003   7.101   0.239   7.123 -0.0037  0.2656  0.0463
  188loPI   C6A 3004   6.770   0.163   6.831  0.0408  0.1458  0.2016
  188loPI   C1B 3005   8.016   0.106   8.766 -0.2376  0.1258 -0.0201
  188loPI   C2B 3006   8.044   0.134   8.285 -0.0238 -0.2851  0.4666
  188loPI   C3B 3007   8.027   0.281   7.880 -0.0929 -0.1743 -0.0504
  188loPI   C4B 3008   7.942   0.577   7.510  0.0627  0.3337 -0.1034
  189loPI    C1 3009  17.233   4.105   9.891 -0.0520 -0.1361 -0.2182
  189loPI    C2 3010  16.921   3.914  10.053 -0.1890  0.4043  0.1840
  189loPI    C3 3011  17.276   3.910  10.238  0.0447 -0.1627 -0.2447
  189loPI   PO4 3012  17.190   4.029   9.581  0.1132 -0.0790 -0.3099
  189loPI   GL1 3013  17.486   3.996   9.380  0.1472 -0.0883  0.2029
  189loPI   GL2 3014  17.167   3.866   9.164 -0.1198  0.1027  0.1443
  189loPI   C1A 3015  17.518   4.150   8.993  0.1462  0.2478 -0.1413
  189loPI   C2A 3016  17.616   4.086   8.561  0.0195  0.2651  0.2209
  189loPI   C3A 3017  17.689   4.154   8.097 -0.0212  0.1888 -0.1947
  189loPI   C4A 3018  17.680   4.055   7.688 -0.0522  0.0063  0.2224
  189loPI   C5A 3019  17.944   3.920   7.296 -0.0876  0.0182  0.0171
  189loPI   C6A 3020  18.385   3.871   7.105  0.0225  0.0437 -0.1058
  189loPI   C1B 3021  17.347   3.723   8.843 -0.1736  0.0261 -0.0306
  189loPI   C2B 3022  17.350   3.761   8.377  0.1401 -0.1030  0.1513
  189loPI   C3B 3023  17.253   3.720   7.906  0.2507 -0.2123  0.2223
  189loPI   C4B 3024  17.307   3.724   7.441  0.0095 -0.0784 -0.1603
  190loPI    C1 3025   6.610   5.282   9.193 -0.0117 -0.1346 -0.1324
  190loPI    C2 3026   6.757   5.035   9.472 -0.0250 -0.1078 -0.1015
  190loPI    C3 3027   6.906   5.404   9.433 -0.1206 -0.0616 -0.0341
  190loPI   PO4 3028   6.389   5.270   9.113  0.0034  0.0310  0.0212
  190loPI   GL1 3029   6.164   5.214   8.855  0.1038 -0.0697 -0.1891
  190loPI   GL2 3030   5.854   5.265   8.818  0.2654 -0.2972  0.0230
  190loPI   C1A 3031   6.139   5.116   8.455  0.2126 -0.1712 -0.4754
  190loPI   C2A 3032   6.235   5.195   8.032 -0.0626 -0.0653 -0.4207
  190loPI   C3A 3033   6.178   5.447   7.694 -0.0833 -0.1900 -0.2004
  190loPI   C4A 3034   5.973   5.539   7.330 -0.4244 -0.0317 -0.0440
  190loPI   C5A 3035   5.972   5.757   6.931  0.3065 -0.3630 -0.0515
  190loPI   C6A 3036   6.098   6.137   6.772  0.0176  0.0117 -0.3887
  190loPI   C1B 3037   5.831   5.489   8.371  0.2559 -0.3219 -0.2363
  190loPI   C2B 3038   5.767   5.738   7.984 -0.0063  0.0041  0.0394
  190loPI   C3B 3039   5.897   6.023   7.598 -0.0269 -0.0755 -0.0185
  190loPI   C4B 3040   6.077   6.316   7.225  0.2362 -0.0578  0.0723
  191loPI    C1 3041   6.222  16.803  10.036 -0.0383 -0.1824 -0.0589
  191loPI    C2 3042   6.027  16.606  10.324  0.1406 -0.2983 -0.0155
  191loPI    C3 3043   6.377  16.467  10.188  0.3015  0.0227  0.0612
  191loPI   PO4 3044   6.069  16.920   9.796  0.0146 -0.0752 -0.0116
  191loPI   GL1 3045   5.948  16.597   9.417 -0.0480 -0.1286 -0.1986
  191loPI   GL2 3046   6.277  16.613   9.431 -0.1744 -0.1880  0.0933
  191loPI   C1A 3047   5.862  16.478   9.000  0.0054 -0.0629  0.1957
  191loPI   C2A 3048   5.977  16.586   8.569  0.0700  0.1880  0.1740
  191loPI   C3A 3049   6.060  16.910   8.196  0.1817 -0.0960 -0.3628
  191loPI   C4A 3050   6.004  16.886   7.895 -0.3051 -0.2844  0.3382
  191loPI   C5A 3051   5.798  16.708   7.544 -0.0949  0.2394  0.1248
  191loPI   C6A 3052   5.420  16.716   7.350  0.1119 -0.2670  0.0964
  191loPI   C1B 3053   6.231  16.806   9.025 -0.0276  0.1054  0.0994
  191loPI   C2B 3054   6.014  17.063   8.764  0.0278 -0.3942  0.1938
  191loPI   C3B 3055   5.765  17.300   8.454 -0.0908  0.2269 -0.1405
  191loPI   C4B 3056   6.001  17.715   8.207 -0.1744 -0.2385 -0.0813
  192loPI    C1 3057   0.712   0.447  10.165  0.1787  0.0278 -0.3395
  192loPI    C2 3058   0.988   0.191  10.299 -0.1707 -0.1422  0.0795
  192loPI    C3 3059   0.935   0.542  10.484 -0.0162  0.0338 -0.2031
  192loPI   PO4 3060   0.746   0.390   9.888  0.0327 -0.1290  0.1825
  192loPI   GL1 3061   1.020   0.440   9.504 -0.2185  0.4098  0.1940
  192loPI   GL2 3062   0.668   0.553   9.422  0.2510 -0.1576  0.3362
  192loPI   C1A 3063   1.127   0.194   9.202  0.1938  0.2784 -0.0599
  192loPI   C2A 3064   1.297   0.258   8.703 -0.1173  0.1652  0.4494
  192loPI   C3A 3065   1.354   0.263   8.272  0.0583  0.0251 -0.0134
  192loPI   C4A 3066   1.503  -0.010   7.759  0.3268  0.2022 -0.0727
  192loPI   C5A 3067   1.381  -0.209   7.412  0.0850 -0.0632 -0.0042
  192loPI   C6A 3068   1.238  -0.608   7.239 -0.3883 -0.0251  0.0805
  192loPI   C1B 3069   0.815   0.569   9.044 -0.0624 -0.0708 -0.1675
  192loPI   C2B 3070   0.564   0.585   8.676 -0.1386  0.1392 -0.1143
  192loPI   C3B 3071   0.523   0.672   8.263 -0.1401 -0.0189  0.2493
  192loPI   C4B 3072   0.686   0.865   7.923  0.1185 -0.1076  0.1666
  193loPI    C1 3073  13.950   0.812   9.533  0.2726 -0.1304 -0.0777
  193loPI    C2 3074  13.715   0.626   9.798  0.3048  0.0433  0.0753
  193loPI    C3 3075  13.810   0.446   9.453 -0.0081 -0.0505  0.0350
  193loPI   PO4 3076  13.920   1.050   9.537 -0.1449  0.0726  0.0367
  193loPI   GL1 3077  13.717   1.156   9.196  0.5465  0.1948 -0.2002
  193loPI   GL2 3078  13.543   0.876   9.286 -0.0338 -0.1887 -0.0687
  193loPI   C1A 3079  13.631   1.332   8.810  0.3210  0.0943  0.1529
  193loPI   C2A 3080  13.466   1.474   8.372 -0.2435  0.2256  0.2186
  193loPI   C3A 3081  13.226   1.663   8.014  0.2227 -0.1106  0.1625
  193loPI   C4A 3082  12.971   1.744   7.620  0.0219 -0.2076 -0.0870
  193loPI   C5A 3083  12.954   1.832   7.179  0.2864  0.1172  0.2160
  193loPI   C6A 3084  13.010   1.946   6.739  0.1139 -0.3182 -0.3003
  193loPI   C1B 3085  13.519   0.822   8.755  0.2472 -0.3874 -0.2295
  193loPI   C2B 3086  13.529   0.948   8.411  0.0748 -0.1428  0.0092
  193loPI   C3B 3087  13.476   1.152   7.991  0.4477 -0.1653 -0.1822
  193loPI   C4B 3088  13.704   1.487   7.837  0.3374 -0.1059 -0.1459
  194loPI    C1 3089  18.825   6.051   9.537 -0.1606 -0.0227  0.0418
  194loPI    C2 3090  18.686   5.879   9.870  0.1005  0.1164  0.2264
  194loPI    C3 3091  18.868   6.235   9.890  0.1070  0.1317 -0.0678
  194loPI   PO4 3092  18.848   5.803   9.370  0.0794  0.0729 -0.0481
  194loPI   GL1 3093  18.785   5.466   9.045 -0.0717 -0.3667 -0.0833
  194loPI   GL2 3094  18.652   5.135   9.230 -0.5123 -0.1246  0.4444
  194loPI   C1A 3095  18.794   5.720   8.711 -0.1880 -0.3678  0.2338
  194loPI   C2A 3096  18.958   5.757   8.234  0.3199  0.0216 -0.5310
  194loPI   C3A 3097  19.219   5.751   7.848 -0.0928 -0.3952  0.0910
  194loPI   C4A 3098  19.205   5.889   7.436  0.2079  0.2128  0.0261
  194loPI   C5A 3099  19.320   5.864   7.002 -0.1575  0.1353  0.0248
  194loPI   C6A 3100  19.371   5.977   6.617 -0.2735  0.0643 -0.2293
  194loPI   C1B 3101  18.694   5.091   8.716 -0.1500  0.0725 -0.1515
  194loPI   C2B 3102  18.714   5.277   8.201  0.2714 -0.0247 -0.1385
  194loPI   C3B 3103  18.762   5.132   7.781 -0.0180 -0.2057 -0.0569
  194loPI   C4B 3104  18.769   4.862   7.428 -0.1232  0.2313 -0.1885
  195loPI    C1 3105  10.475  14.381  10.087 -0.0719  0.0467 -0.2297
  195loPI    C2 3106  10.139  14.193  10.196  0.0085 -0.1436 -0.3053
  195loPI    C3 3107  10.345  14.407  10.464 -0.1471 -0.0650 -0.2472
  195loPI   PO4 3108  10.616  14.209   9.943  0.2299 -0.0698  0.3024
  195loPI   GL1 3109  10.839  14.241   9.474 -0.1601 -0.0597  0.2509
  195loPI   GL2 3110  10.573  14.496   9.383 -0.4362 -0.1461 -0.3568
  195loPI   C1A 3111  10.914  13.819   9.300  0.1807  0.1359 -0.0260
  195loPI   C2A 3112  11.026  13.803   8.906 -0.1701  0.1009 -0.3122
  195loPI   C3A 3113  10.960  13.609   8.440 -0.2503  0.0191  0.0533
  195loPI   C4A 3114  10.893  13.584   7.956 -0.0293  0.4587 -0.0378
  195loPI   C5A 3115  10.748  13.372   7.584  0.2355 -0.2035  0.0093
  195loPI   C6A 3116  10.802  13.213   7.191 -0.0156 -0.3250  0.2645
  195loPI   C1B 3117  10.414  14.710   9.021 -0.0156  0.0878  0.1125
  195loPI   C2B 3118  10.556  14.900   8.648  0.1208 -0.0427 -0.0906
  195loPI   C3B 3119  10.629  15.231   8.295  0.0783  0.2155 -0.1226
  195loPI   C4B 3120  10.174  15.519   8.132 -0.4976 -0.1599 -0.3951
  196loPI    C1 3121  13.403  11.196  10.105  0.1143  0.3871 -0.1415
  196loPI    C2 3122  13.138  11.446   9.940 -0.1805  0.0113 -0.2528
  196loPI    C3 3123  13.011  11.134  10.155  0.1895  0.1830  0.2358
  196loPI   PO4 3124  13.563  11.167   9.872  0.1099 -0.1396  0.2459
  196loPI   GL1 3125  13.451  11.297   9.481  0.2729  0.1949  0.3018
  196loPI   GL2 3126  13.530  10.925   9.366  0.1788  0.1476 -0.1651
  196loPI   C1A 3127  13.367  11.315   9.039 -0.1978 -0.1204 -0.0686
  196loPI   C2A 3128  13.290  11.483   8.684  0.0290 -0.0185  0.0250
  196loPI   C3A 3129  13.406  11.380   8.307 -0.4839  0.2051  0.1877
  196loPI   C4A 3130  13.453  11.405   7.814 -0.2511  0.1745  0.2474
  196loPI   C5A 3131  13.451  11.180   7.406  0.2297 -0.1765 -0.1764
  196loPI   C6A 3132  13.396  10.796   7.345  0.0413 -0.0161  0.0437
  196loPI   C1B 3133  13.816  10.987   9.019 -0.2302  0.2755  0.1285
  196loPI   C2B 3134  13.932  10.812   8.680 -0.1300 -0.1253  0.1568
  196loPI   C3B 3135  14.109  10.828   8.289  0.6257  0.2040  0.2282
  196loPI   C4B 3136  13.908  10.718   7.900  0.1555 -0.2217 -0.2774
  197loPI    C1 3137  13.036  13.435  10.218 -0.0102 -0.0051 -0.1623
  197loPI    C2 3138  12.751  13.701  10.308 -0.0790 -0.0183 -0.3351
  197loPI    C3 3139  12.737  13.333  10.464 -0.1197  0.0018 -0.2908
  197loPI   PO4 3140  13.106  13.518  10.040  0.0956  0.3194  0.0910
  197loPI   GL1 3141  13.033  13.593   9.678  0.0502 -0.0199 -0.1910
  197loPI   GL2 3142  13.294  13.476   9.541 -0.1326 -0.2073 -0.0379
  197loPI   C1A 3143  13.005  13.793   9.349  0.1997 -0.1551  0.2041
  197loPI   C2A 3144  13.128  13.749   8.947  0.1142 -0.0968 -0.0352
  197loPI   C3A 3145  13.307  13.787   8.552  0.1925 -0.1872 -0.0241
  197loPI   C4A 3146  13.236  13.852   8.145 -0.0589 -0.0835 -0.1690
  197loPI   C5A 3147  13.326  13.784   7.787 -0.1811 -0.3368 -0.0146
  197loPI   C6A 3148  13.303  13.559   7.548 -0.3009 -0.0451 -0.2147
  197loPI   C1B 3149  13.367  13.363   9.106 -0.3060 -0.0810  0.0689
  197loPI   C2B 3150  13.546  13.336   8.667  0.1257 -0.3065 -0.2498
  197loPI   C3B 3151  13.501  13.385   8.176 -0.2657 -0.1079 -0.0546
  197loPI   C4B 3152  13.681  13.230   7.733 -0.2643 -0.1454 -0.3006
  198loPI    C1 3153   8.692  15.911   9.981 -0.0101  0.0328 -0.1544
  198loPI    C2 3154   8.339  15.737  10.054  0.0010  0.0113 -0.1519
  198loPI    C3 3155   8.622  15.741  10.336 -0.0920  0.2608 -0.0593
  198loPI   PO4 3156   8.733  15.874   9.695 -0.1474 -0.0591 -0.1519
  198loPI   GL1 3157   8.638  15.946   9.266  0.1360 -0.3939  0.1533
  198loPI   GL2 3158   8.376  16.135   9.272 -0.0085  0.0757  0.0093
  198loPI   C1A 3159   8.831  16.082   8.803  0.0987  0.1385 -0.0706
  198loPI   C2A 3160   8.893  16.201   8.461 -0.3169 -0.2668 -0.0007
  198loPI   C3A 3161   9.023  16.172   8.024  0.4027 -0.0982 -0.2888
  198loPI   C4A 3162   8.804  16.248   7.755  0.0226  0.1632  0.0618
  198loPI   C5A 3163   8.819  16.342   7.268  0.0691 -0.0985  0.0539
  198loPI   C6A 3164   8.789  16.483   6.930  0.0063  0.2012 -0.2229
  198loPI   C1B 3165   8.310  16.018   8.822 -0.0088 -0.2457  0.1796
  198loPI   C2B 3166   8.359  16.099   8.414 -0.0170  0.2539 -0.2570
  198loPI   C3B 3167   8.375  16.280   7.976  0.2963 -0.0620  0.0417
  198loPI   C4B 3168   8.406  16.598   7.593 -0.1830 -0.1056  0.1257
  199loPI    C1 3169  16.998  10.758   9.710 -0.3177 -0.2348  0.1819
  199loPI    C2 3170  16.725  11.047   9.753 -0.0195  0.0324  0.3286
  199loPI    C3 3171  16.884  10.873  10.076 -0.1331 -0.2387  0.2416
  199loPI   PO4 3172  16.832  10.559   9.595 -0.1070  0.2046 -0.0570
  199loPI   GL1 3173  16.609  10.657   9.288  0.0556 -0.0033 -0.2963
  199loPI   GL2 3174  16.823  10.960   9.228 -0.3866 -0.0883  0.3966
  199loPI   C1A 3175  16.541  10.478   8.848 -0.0326 -0.0836 -0.0271
  199loPI   C2A 3176  16.489  10.609   8.513  0.0760  0.1762  0.0711
  199loPI   C3A 3177  16.169  10.825   8.187  0.0134  0.1008 -0.2316
  199loPI   C4A 3178  16.238  11.028   7.808  0.2355 -0.0742  0.0859
  199loPI   C5A 3179  16.314  11.260   7.468 -0.3734 -0.0838 -0.0514
  199loPI   C6A 3180  16.337  11.704   7.448 -0.1702  0.2065  0.1630
  199loPI   C1B 3181  16.691  10.989   8.806  0.0459  0.2999 -0.2183
  199loPI   C2B 3182  16.691  11.079   8.487  0.3507 -0.2633  0.2183
  199loPI   C3B 3183  16.737  11.099   8.174 -0.1739 -0.1987  0.0240
  199loPI   C4B 3184  16.611  10.677   8.006 -0.1649 -0.0848  0.1884
  200loPI    C1 3185   1.821   2.679  10.231  0.0617  0.0031 -0.0870
  200loPI    C2 3186   1.934   2.322  10.371  0.1239  0.0790  0.0580
  200loPI    C3 3187   1.576   2.471  10.469  0.0459  0.0010 -0.1050
  200loPI   PO4 3188   1.789   2.783   9.975 -0.1870  0.0708 -0.2933
  200loPI   GL1 3189   1.762   2.480   9.487  0.1541 -0.2355 -0.3723
  200loPI   GL2 3190   1.502   2.719   9.566  0.0866 -0.1477 -0.0889
  200loPI   C1A 3191   1.822   2.235   9.112  0.0711  0.1943 -0.0209
  200loPI   C2A 3192   1.890   2.008   8.769 -0.2205 -0.1372  0.0427
  200loPI   C3A 3193   1.945   1.992   8.363  0.1752 -0.1339  0.2413
  200loPI   C4A 3194   2.046   2.072   7.962 -0.1454  0.2649  0.2078
  200loPI   C5A 3195   1.915   1.927   7.570  0.1033 -0.0179  0.0993
  200loPI   C6A 3196   1.588   1.889   7.306 -0.2610  0.0109 -0.1124
  200loPI   C1B 3197   1.403   2.992   9.220 -0.2295 -0.1688 -0.1192
  200loPI   C2B 3198   1.365   3.168   8.849  0.0691 -0.1866  0.1663
  200loPI   C3B 3199   1.468   3.209   8.474  0.1303  0.3578  0.1456
  200loPI   C4B 3200   1.566   3.178   8.127 -0.0920 -0.1272 -0.3928
  201loPI    C1 3201  13.294  15.375  10.139 -0.1209  0.1481 -0.0886
  201loPI    C2 3202  13.436  15.663  10.379 -0.2397  0.3098 -0.2098
  201loPI    C3 3203  13.540  15.655   9.993  0.0621 -0.0309 -0.1269
  201loPI   PO4 3204  13.050  15.331  10.048 -0.2607 -0.2941 -0.2642
  201loPI   GL1 3205  12.879  15.453   9.747  0.3425 -0.1069 -0.5241
  201loPI   GL2 3206  12.659  15.117   9.697  0.1372 -0.2650  0.3852
  201loPI   C1A 3207  12.718  15.481   9.229 -0.2259  0.0673  0.1211
  201loPI   C2A 3208  12.819  15.463   8.805  0.0315 -0.0185 -0.4012
  201loPI   C3A 3209  12.858  15.537   8.376  0.0704 -0.1160  0.0883
  201loPI   C4A 3210  12.849  15.469   7.966 -0.0057 -0.1830 -0.0738
  201loPI   C5A 3211  12.903  15.313   7.560  0.1725  0.0021 -0.0731
  201loPI   C6A 3212  13.348  15.278   7.413 -0.0022 -0.1709  0.1828
  201loPI   C1B 3213  12.948  15.012   9.408 -0.3232 -0.0543  0.2021
  201loPI   C2B 3214  12.930  15.047   9.036 -0.0467 -0.0767 -0.2195
  201loPI   C3B 3215  12.625  15.116   8.561  0.0799 -0.1074  0.0678
  201loPI   C4B 3216  12.581  15.094   8.162 -0.5023  0.0871 -0.3004
  202loPI    C1 3217   0.655   6.213   9.935 -0.3741 -0.3720  0.0360
  202loPI    C2 3218   0.388   6.373  10.187 -0.1002 -0.2554  0.2570
  202loPI    C3 3219   0.770   6.332  10.299  0.0579 -0.0700 -0.1907
  202loPI   PO4 3220   0.462   6.047   9.779 -0.0311 -0.0157 -0.1310
  202loPI   GL1 3221   0.225   6.267   9.425 -0.0498 -0.0277 -0.1692
  202loPI   GL2 3222  -0.075   6.214   9.274 -0.0062  0.0647 -0.2124
  202loPI   C1A 3223   0.353   6.154   9.029 -0.3724  0.1110 -0.0882
  202loPI   C2A 3224   0.399   6.196   8.614 -0.2953  0.0181 -0.1425
  202loPI   C3A 3225   0.367   6.198   8.127  0.4897  0.1446 -0.1100
  202loPI   C4A 3226   0.290   5.957   7.734 -0.3915 -0.1027 -0.2855
  202loPI   C5A 3227   0.225   5.632   7.442 -0.0797  0.2367  0.2525
  202loPI   C6A 3228   0.307   5.226   7.408 -0.0257  0.2047 -0.0418
  202loPI   C1B 3229  -0.073   6.117   8.844  0.0582 -0.2338  0.1672
  202loPI   C2B 3230  -0.122   6.154   8.527 -0.2043  0.3970  0.1480
  202loPI   C3B 3231  -0.060   6.070   8.231 -0.2041 -0.0875  0.3566
  202loPI   C4B 3232  -0.087   6.242   7.792  0.1281 -0.0982  0.0798
  203loPI    C1 3233   8.118  13.712  10.104 -0.0141  0.1554 -0.1524
  203loPI    C2 3234   8.488  13.811  10.221  0.0014 -0.3363  0.2529
  203loPI    C3 3235   8.178  13.872  10.466 -0.1935  0.0646 -0.0814
  203loPI   PO4 3236   8.131  13.529   9.927 -0.2698  0.2174 -0.0478
  203loPI   GL1 3237   7.926  13.245   9.544  0.2297 -0.0856 -0.3043
  203loPI   GL2 3238   8.032  13.566   9.438  0.1667 -0.2609 -0.0922
  203loPI   C1A 3239   8.075  13.032   9.126 -0.0220  0.0205 -0.2769
  203loPI   C2A 3240   8.209  12.952   8.738 -0.1218  0.3414  0.1866
  203loPI   C3A 3241   8.219  13.214   8.309  0.2381 -0.2388 -0.0728
  203loPI   C4A 3242   8.102  13.315   7.914  0.2431 -0.0867 -0.0183
  203loPI   C5A 3243   7.879  13.006   7.630 -0.0043 -0.2853 -0.0556
  203loPI   C6A 3244   7.696  12.972   7.286 -0.0706  0.1753  0.2070
  203loPI   C1B 3245   8.327  13.461   9.094  0.0780 -0.0597  0.1714
  203loPI   C2B 3246   8.505  13.521   8.588  0.4161 -0.0110 -0.3103
  203loPI   C3B 3247   8.410  13.643   8.129 -0.2128 -0.2267 -0.0665
  203loPI   C4B 3248   8.278  13.800   7.878  0.2060 -0.0037 -0.0781
  204loPI    C1 3249  17.375   5.695   9.757  0.1926  0.1111  0.0591
  204loPI    C2 3250  17.370   5.296   9.777 -0.2800  0.1074 -0.0162
  204loPI    C3 3251  17.577   5.507  10.046  0.0903 -0.1888 -0.0607
  204loPI   PO4 3252  17.400   5.679   9.454  0.0373  0.0305 -0.1982
  204loPI   GL1 3253  17.270   5.646   9.116 -0.3724  0.0343  0.3842
  204loPI   GL2 3254  17.470   5.806   8.921 -0.0609 -0.0592 -0.1111
  204loPI   C1A 3255  16.938   5.499   8.866  0.0273 -0.2393 -0.1908
  204loPI   C2A 3256  16.867   5.577   8.430  0.1341  0.0378  0.1024
  204loPI   C3A 3257  16.849   5.383   8.099  0.0035 -0.1761  0.0139
  204loPI   C4A 3258  16.576   5.407   7.733 -0.0514  0.0282 -0.1201
  204loPI   C5A 3259  16.533   5.524   7.427  0.2252 -0.3894 -0.4347
  204loPI   C6A 3260  16.297   5.385   7.067 -0.0230 -0.1632  0.1732
  204loPI   C1B 3261  17.311   5.778   8.505 -0.0150  0.0382 -0.0299
  204loPI   C2B 3262  17.358   5.689   8.031 -0.1838  0.1543  0.2931
  204loPI   C3B 3263  17.413   5.726   7.606  0.0400  0.0385 -0.4029
  204loPI   C4B 3264  17.711   5.845   7.239 -0.1043 -0.1120 -0.1770
  205loPI    C1 3265   7.630  10.914  10.214  0.0859 -0.0678 -0.1699
  205loPI    C2 3266   7.800  11.259  10.323  0.1996 -0.1244 -0.1667
  205loPI    C3 3267   7.705  10.988  10.600  0.1065 -0.0942 -0.1688
  205loPI   PO4 3268   7.649  10.916   9.949  0.1412  0.4244  0.1925
  205loPI   GL1 3269   7.694  11.015   9.476  0.0017 -0.0197 -0.3060
  205loPI   GL2 3270   7.907  10.970   9.337  0.2258  0.2393  0.0516
  205loPI   C1A 3271   7.369  11.082   9.155  0.0420  0.0610  0.1011
  205loPI   C2A 3272   7.392  11.141   8.705  0.2976 -0.4695 -0.0305
  205loPI   C3A 3273   7.263  11.045   8.363  0.1550 -0.2254 -0.0252
  205loPI   C4A 3274   7.437  10.977   7.898  0.0172 -0.3170 -0.0971
  205loPI   C5A 3275   7.512  11.377   7.665  0.0198  0.1129  0.1533
  205loPI   C6A 3276   7.602  11.657   7.411 -0.2708 -0.0250  0.0523
  205loPI   C1B 3277   7.843  11.263   8.917  0.1721  0.0920 -0.0420
  205loPI   C2B 3278   8.092  11.542   8.675 -0.0495  0.2138 -0.0665
  205loPI   C3B 3279   8.143  11.876   8.251  0.1753  0.0186 -0.2428
  205loPI   C4B 3280   8.272  12.053   7.822  0.2174 -0.3160 -0.0800
  206loPI    C1 3281   8.308  15.168   9.828  0.1969  0.0206  0.0113
  206loPI    C2 3282   8.011  15.374   9.999  0.0458 -0.0542 -0.1574
  206loPI    C3 3283   8.304  15.221  10.225 -0.0005  0.0881  0.0013
  206loPI   PO4 3284   8.255  15.122   9.540  0.0313 -0.0647 -0.0167
  206loPI   GL1 3285   8.163  15.330   9.160 -0.0967 -0.1199 -0.0163
  206loPI   GL2 3286   8.400  15.566   9.082 -0.0275  0.1379  0.1281
  206loPI   C1A 3287   8.117  15.514   8.716 -0.4681 -0.1519  0.0480
  206loPI   C2A 3288   8.118  15.662   8.279  0.0862 -0.1691  0.0605
  206loPI   C3A 3289   7.879  15.810   7.940  0.0426 -0.2612 -0.0997
  206loPI   C4A 3290   7.771  15.635   7.541 -0.0321 -0.4594  0.0423
  206loPI   C5A 3291   7.930  15.462   7.198  0.0996 -0.2792  0.1924
  206loPI   C6A 3292   7.888  15.096   7.029 -0.0169 -0.1450  0.1008
  206loPI   C1B 3293   8.584  15.614   8.659  0.1749 -0.3084  0.0946
  206loPI   C2B 3294   8.746  15.677   8.191  0.1636  0.1939 -0.1778
  206loPI   C3B 3295   8.833  15.562   7.776 -0.0392 -0.0084 -0.1632
  206loPI   C4B 3296   9.064  15.413   7.430 -0.2489  0.0670  0.0047
  207loPI    C1 3297   7.249  17.704  10.068  0.1497 -0.0846 -0.2426
  207loPI    C2 3298   7.549  17.466  10.184  0.1679  0.0722  0.0416
  207loPI    C3 3299   7.225  17.506  10.415  0.0581  0.1348 -0.1216
  207loPI   PO4 3300   7.178  17.678   9.799  0.1352 -0.1293 -0.0259
  207loPI   GL1 3301   7.189  17.612   9.376 -0.0327 -0.0820  0.0689
  207loPI   GL2 3302   7.321  17.707   9.082 -0.0903  0.2674 -0.2854
  207loPI   C1A 3303   6.999  17.335   8.956 -0.0787  0.1738 -0.0684
  207loPI   C2A 3304   6.923  17.311   8.513  0.3054 -0.1116  0.0828
  207loPI   C3A 3305   6.841  17.449   8.150  0.1938 -0.0701  0.0813
  207loPI   C4A 3306   6.781  17.591   7.703 -0.0526 -0.0932 -0.0252
  207loPI   C5A 3307   6.696  17.807   7.421 -0.1299 -0.0236 -0.3806
  207loPI   C6A 3308   6.707  18.191   7.591 -0.1121  0.0110 -0.2386
  207loPI   C1B 3309   7.338  17.663   8.749 -0.0324  0.0343 -0.2815
  207loPI   C2B 3310   7.299  17.611   8.344 -0.0744 -0.2033 -0.0250
  207loPI   C3B 3311   7.306  17.527   7.863  0.1382  0.3006 -0.0997
  207loPI   C4B 3312   7.324  17.317   7.416 -0.2548 -0.0662 -0.1484
  208loPI    C1 3313   1.207   6.526  10.037 -0.0793 -0.1286 -0.0949
  208loPI    C2 3314   1.036   6.794  10.279 -0.2040 -0.2036 -0.0993
  208loPI    C3 3315   1.280   6.516  10.430  0.0821  0.0323 -0.1198
  208loPI   PO4 3316   1.251   6.725   9.745  0.0892 -0.2565  0.2725
  208loPI   GL1 3317   1.248   6.716   9.327  0.0193 -0.0786  0.3325
  208loPI   GL2 3318   1.396   6.383   9.244  0.0419  0.0650  0.0328
  208loPI   C1A 3319   1.114   6.614   8.908 -0.0224 -0.1562 -0.2178
  208loPI   C2A 3320   1.029   6.752   8.447  0.2324 -0.0513 -0.1044
  208loPI   C3A 3321   1.215   6.974   8.168  0.0697 -0.3993 -0.5255
  208loPI   C4A 3322   1.294   7.075   7.767 -0.1984 -0.0268  0.0555
  208loPI   C5A 3323   1.504   6.871   7.396 -0.0629 -0.1227  0.0485
  208loPI   C6A 3324   1.724   6.755   7.015 -0.0215 -0.1127  0.0371
  208loPI   C1B 3325   1.459   6.262   8.866 -0.4453  0.1976  0.0941
  208loPI   C2B 3326   1.340   6.200   8.436  0.1872 -0.0701 -0.1448
  208loPI   C3B 3327   1.273   6.454   8.060 -0.1113 -0.1375  0.0013
  208loPI   C4B 3328   0.950   6.667   7.843  0.1592 -0.0222  0.1808
  209loPI    C1 3329   3.967   9.632  10.193 -0.1945 -0.0146  0.0966
  209loPI    C2 3330   4.076   9.284  10.357  0.0931  0.0213 -0.0131
  209loPI    C3 3331   3.689   9.383  10.338  0.0106 -0.2815  0.0387
  209loPI   PO4 3332   4.063   9.602   9.951  0.1608  0.1469  0.4485
  209loPI   GL1 3333   3.875   9.630   9.549 -0.0238 -0.2782  0.2590
  209loPI   GL2 3334   3.959   9.301   9.459 -0.1877  0.1545 -0.0321
  209loPI   C1A 3335   4.114   9.788   9.220  0.3228  0.4561 -0.0567
  209loPI   C2A 3336   4.147   9.671   8.856 -0.1064  0.0781 -0.1021
  209loPI   C3A 3337   4.276   9.726   8.409 -0.0932  0.0809  0.3658
  209loPI   C4A 3338   4.094   9.738   8.034  0.1993 -0.0291 -0.0872
  209loPI   C5A 3339   3.867   9.960   7.710 -0.1708  0.1398  0.0402
  209loPI   C6A 3340   4.093  10.125   7.276  0.0705  0.0720 -0.1328
  209loPI   C1B 3341   3.878   9.055   9.155 -0.1551 -0.3936 -0.3333
  209loPI   C2B 3342   4.057   9.011   8.779  0.3709  0.0194  0.2909
  209loPI   C3B 3343   3.938   8.979   8.340  0.2090 -0.0718  0.2063
  209loPI   C4B 3344   3.685   8.813   8.095 -0.2447 -0.0969 -0.0606
  210loPI    C1 3345   5.852   0.040   9.988  0.1327  0.0590 -0.2021
  210loPI    C2 3346   5.884  -0.093  10.364 -0.2460  0.2198 -0.1076
  210loPI    C3 3347   6.079   0.238  10.250  0.2763 -0.1077 -0.1991
  210loPI   PO4 3348   5.796  -0.185   9.877 -0.3685  0.3847  0.0215
  210loPI   GL1 3349   5.616  -0.327   9.519 -0.2340  0.1011  0.1471
  210loPI   GL2 3350   5.340  -0.182   9.512 -0.0317 -0.2697  0.1056
  210loPI   C1A 3351   5.806  -0.145   9.132 -0.2247 -0.3854 -0.0540
  210loPI   C2A 3352   5.955  -0.075   8.650 -0.0857  0.1644 -0.0237
  210loPI   C3A 3353   5.896  -0.147   8.166 -0.1967  0.0645 -0.0793
  210loPI   C4A 3354   5.758  -0.103   7.735 -0.1790  0.0563 -0.0203
  210loPI   C5A 3355   5.781  -0.049   7.283 -0.3261  0.0718 -0.2170
  210loPI   C6A 3356   5.353  -0.177   7.089  0.0133 -0.0005  0.1837
  210loPI   C1B 3357   5.289  -0.307   9.036 -0.0509 -0.2197  0.0621
  210loPI   C2B 3358   5.496  -0.249   8.637  0.2124  0.0223  0.3303
  210loPI   C3B 3359   5.351  -0.326   8.280  0.2783 -0.1964  0.0914
  210loPI   C4B 3360   5.092  -0.322   7.936 -0.2373 -0.3656  0.2250
  211loPI    C1 3361   5.075  12.906   9.353  0.0841  0.1426 -0.0039
  211loPI    C2 3362   4.842  12.823   9.038 -0.1004  0.4258  0.0539
  211loPI    C3 3363   4.692  12.801   9.409  0.1962 -0.2006  0.1509
  211loPI   PO4 3364   5.156  13.115   9.264  0.1771 -0.3348  0.0992
  211loPI   GL1 3365   5.116  13.196   8.823 -0.2103 -0.3090 -0.0733
  211loPI   GL2 3366   5.444  13.379   8.912 -0.2084 -0.0133  0.0706
  211loPI   C1A 3367   4.906  13.096   8.434  0.2051  0.0659 -0.2063
  211loPI   C2A 3368   4.780  13.088   8.083  0.2968 -0.0782 -0.0365
  211loPI   C3A 3369   4.770  13.303   7.691 -0.0642 -0.2176  0.0736
  211loPI   C4A 3370   4.854  13.657   7.394 -0.0194  0.0760  0.1280
  211loPI   C5A 3371   4.659  13.915   7.060 -0.1731 -0.2525  0.0851
  211loPI   C6A 3372   4.349  13.979   6.804  0.3546  0.1504  0.0691
  211loPI   C1B 3373   5.570  13.329   8.437 -0.2088 -0.2686 -0.1240
  211loPI   C2B 3374   5.696  13.278   7.958  0.0742 -0.2015  0.1971
  211loPI   C3B 3375   5.663  13.285   7.482 -0.0893 -0.0870  0.0447
  211loPI   C4B 3376   5.736  13.421   7.090 -0.5425 -0.0465 -0.1957
  212loPI    C1 3377   7.727  17.786   9.835 -0.1198 -0.2664 -0.0408
  212loPI    C2 3378   7.650  17.862   9.450  0.0321  0.1895  0.0127
  212loPI    C3 3379   7.474  18.080   9.735  0.2416  0.1331  0.1871
  212loPI   PO4 3380   7.847  17.527   9.823  0.0185 -0.4934 -0.1063
  212loPI   GL1 3381   8.150  17.395   9.539  0.0735 -0.1837 -0.0652
  212loPI   GL2 3382   7.861  17.353   9.350  0.0216 -0.2903  0.0764
  212loPI   C1A 3383   8.222  17.558   9.060  0.0046 -0.0942  0.0350
  212loPI   C2A 3384   8.353  17.697   8.630  0.1501 -0.0187 -0.1777
  212loPI   C3A 3385   8.377  17.776   8.148 -0.1340  0.3586 -0.4688
  212loPI   C4A 3386   8.457  17.951   7.776 -0.2308 -0.2190  0.0750
  212loPI   C5A 3387   8.412  17.834   7.377 -0.2115  0.0282  0.0423
  212loPI   C6A 3388   8.025  17.742   7.144  0.1903  0.0989 -0.2756
  212loPI   C1B 3389   7.797  17.674   9.002 -0.1472  0.2403  0.2860
  212loPI   C2B 3390   7.793  17.752   8.563  0.0069  0.2157 -0.1393
  212loPI   C3B 3391   7.716  17.768   8.103  0.2201  0.1976  0.1709
  212loPI   C4B 3392   7.639  17.842   7.626 -0.2348  0.3554  0.1122
  213loPI    C1 3393  15.734  18.891   9.425  0.0713  0.0144  0.1908
  213loPI    C2 3394  15.621  18.759   9.786 -0.3067 -0.0412  0.0563
  213loPI    C3 3395  15.441  18.620   9.456  0.0326  0.0119 -0.1565
  213loPI   PO4 3396  15.851  19.072   9.420  0.0344  0.0850  0.0144
  213loPI   GL1 3397  15.971  19.276   9.142  0.1971 -0.0614 -0.2823
  213loPI   GL2 3398  16.156  19.108   8.995 -0.1007 -0.2877 -0.0189
  213loPI   C1A 3399  15.680  19.446   8.791  0.2222 -0.0486  0.2184
  213loPI   C2A 3400  15.825  19.404   8.327 -0.0190 -0.1131 -0.2117
  213loPI   C3A 3401  15.901  19.450   7.932 -0.1666  0.2931 -0.0798
  213loPI   C4A 3402  16.119  19.544   7.607 -0.1374 -0.4253  0.0407
  213loPI   C5A 3403  15.761  19.768   7.256 -0.0743  0.1907 -0.0633
  213loPI   C6A 3404  15.318  19.916   7.229  0.0326  0.1130  0.0360
  213loPI   C1B 3405  16.148  19.088   8.606  0.1394  0.1481 -0.1763
  213loPI   C2B 3406  16.188  19.090   8.105 -0.0407 -0.1145  0.1538
  213loPI   C3B 3407  16.326  19.066   7.638  0.4691 -0.0548  0.1953
  213loPI   C4B 3408  16.617  19.336   7.450  0.0346 -0.0830  0.4683
  214loPI    C1 3409   6.960  12.647   9.842  0.1864  0.0471 -0.0242
  214loPI    C2 3410   7.103  12.316  10.017  0.5137  0.0722 -0.2346
  214loPI    C3 3411   7.160  12.674  10.188 -0.1023  0.0024  0.1495
  214loPI   PO4 3412   7.077  12.660   9.610  0.1681  0.3125 -0.1315
  214loPI   GL1 3413   6.979  12.433   9.284 -0.1556 -0.1120  0.0328
  214loPI   GL2 3414   7.329  12.597   9.167 -0.1571  0.0695 -0.1768
  214loPI   C1A 3415   6.872  12.443   8.855 -0.1358  0.3417  0.0044
  214loPI   C2A 3416   7.153  12.405   8.449  0.3366  0.2428 -0.1389
  214loPI   C3A 3417   7.378  12.507   8.134  0.1447  0.2791 -0.0314
  214loPI   C4A 3418   7.649  12.487   7.796  0.1757 -0.0575  0.1989
  214loPI   C5A 3419   7.762  12.107   7.633  0.2897 -0.0095 -0.1185
  214loPI   C6A 3420   7.996  12.005   7.280 -0.2218 -0.0411 -0.0593
  214loPI   C1B 3421   7.752  12.753   8.898  0.0860  0.0885 -0.2046
  214loPI   C2B 3422   7.769  13.008   8.523  0.0050  0.1362  0.0446
  214loPI   C3B 3423   7.682  12.911   8.094  0.0643  0.3454  0.1698
  214loPI   C4B 3424   7.346  12.912   7.740  0.1899  0.0199  0.2938
  215loPI    C1 3425   9.593  16.515  10.130 -0.1715 -0.2757 -0.0056
  215loPI    C2 3426   9.947  16.374  10.253 -0.2016 -0.3093  0.0427
  215loPI    C3 3427   9.702  16.554  10.513 -0.1069 -0.0470 -0.0456
  215loPI   PO4 3428   9.675  16.631   9.897  0.0795  0.2070  0.3330
  215loPI   GL1 3429   9.763  16.686   9.445 -0.0412  0.3449 -0.2665
  215loPI   GL2 3430  10.167  16.738   9.432 -0.0678 -0.1638 -0.1756
  215loPI   C1A 3431   9.795  16.974   9.111  0.0214 -0.2214 -0.0293
  215loPI   C2A 3432   9.872  17.026   8.744 -0.3140 -0.1486 -0.0049
  215loPI   C3A 3433   9.544  17.110   8.406 -0.1567  0.2396 -0.2376
  215loPI   C4A 3434   9.644  16.940   8.067  0.0745 -0.1959  0.2796
  215loPI   C5A 3435   9.417  17.055   7.564  0.4129 -0.2209  0.1572
  215loPI   C6A 3436   9.601  17.325   7.204 -0.0214  0.2462  0.0521
  215loPI   C1B 3437  10.229  16.741   8.956  0.2137 -0.3319  0.2977
  215loPI   C2B 3438  10.348  17.009   8.650 -0.0157 -0.1786 -0.2029
  215loPI   C3B 3439  10.216  17.043   8.191 -0.0190  0.4100 -0.2169
  215loPI   C4B 3440  10.226  16.967   7.734 -0.1786 -0.0706 -0.1548
  216loPI    C1 3441   4.373  17.334   9.845 -0.1258  0.1755  0.0462
  216loPI    C2 3442   4.629  17.640   9.882 -0.0875  0.1557 -0.0507
  216loPI    C3 3443   4.312  17.613  10.125 -0.1749  0.3547 -0.1406
  216loPI   PO4 3444   4.340  17.238   9.569 -0.2033 -0.0684  0.1033
  216loPI   GL1 3445   4.091  17.207   9.163 -0.2565  0.4272  0.2427
  216loPI   GL2 3446   4.324  16.988   9.081 -0.1173  0.1256 -0.3520
  216loPI   C1A 3447   3.985  17.090   8.742  0.4662  0.1748 -0.0826
  216loPI   C2A 3448   4.037  17.256   8.423 -0.2290 -0.0226  0.1649
  216loPI   C3A 3449   4.301  17.273   8.021 -0.0640 -0.2920 -0.0539
  216loPI   C4A 3450   4.581  17.193   7.754  0.3089  0.0845 -0.0920
  216loPI   C5A 3451   4.569  17.239   7.347 -0.2276  0.0886  0.3020
  216loPI   C6A 3452   4.777  17.195   6.961 -0.2974 -0.1022 -0.0619
  216loPI   C1B 3453   4.380  16.885   8.573 -0.3123  0.0975  0.0616
  216loPI   C2B 3454   4.633  16.933   8.247  0.0175  0.0631  0.0972
  216loPI   C3B 3455   4.997  16.966   7.900  0.0973  0.2114 -0.1391
  216loPI   C4B 3456   5.409  16.929   7.851  0.2395 -0.0373 -0.4688
  217loPI    C1 3457   9.044   7.093   9.533 -0.1267  0.2738  0.0360
  217loPI    C2 3458   8.789   7.039   9.837  0.0283  0.1097  0.1392
  217loPI    C3 3459   9.097   6.789   9.788 -0.1995 -0.0849 -0.3662
  217loPI   PO4 3460   8.980   7.248   9.313 -0.2508  0.2214 -0.1187
  217loPI   GL1 3461   9.145   7.302   8.965 -0.1680 -0.0832  0.3554
  217loPI   GL2 3462   9.182   7.189   8.710  0.1088  0.0056 -0.0281
  217loPI   C1A 3463   9.622   7.301   8.858 -0.1313  0.3123  0.0263
  217loPI   C2A 3464   9.640   7.537   8.393  0.0771 -0.0247  0.1249
  217loPI   C3A 3465   9.566   7.587   7.953  0.2292 -0.0049  0.1302
  217loPI   C4A 3466   9.486   7.459   7.590 -0.1866  0.0699 -0.0104
  217loPI   C5A 3467   9.674   7.404   7.203 -0.0305  0.2631  0.3515
  217loPI   C6A 3468  10.159   7.518   7.210 -0.2588 -0.1104 -0.4095
  217loPI   C1B 3469   9.184   7.312   8.272 -0.2328 -0.2261 -0.2524
  217loPI   C2B 3470   8.956   7.458   7.843  0.3132 -0.1112  0.3067
  217loPI   C3B 3471   8.947   7.592   7.407 -0.1500  0.2339  0.4028
  217loPI   C4B 3472   9.252   7.668   7.060  0.1775  0.1831 -0.2578
  218loPI    C1 3473   9.672  18.538   9.701 -0.2769  0.0270 -0.0742
  218loPI    C2 3474   9.985  18.385   9.897 -0.0335  0.0262 -0.4535
  218loPI    C3 3475   9.898  18.774   9.932 -0.0772 -0.0019 -0.2370
  218loPI   PO4 3476   9.707  18.453   9.475  0.1758  0.2728  0.0789
  218loPI   GL1 3477   9.872  18.704   9.119 -0.3563 -0.2648  0.0178
  218loPI   GL2 3478  10.043  18.895   9.083 -0.1250 -0.1402  0.0100
  218loPI   C1A 3479  10.181  18.413   8.791  0.2668  0.0131  0.0565
  218loPI   C2A 3480  10.125  18.475   8.292 -0.0584 -0.0988  0.1653
  218loPI   C3A 3481  10.070  18.686   7.867  0.3139  0.2783  0.1507
  218loPI   C4A 3482  10.308  18.600   7.554 -0.1093 -0.1173 -0.0064
  218loPI   C5A 3483  10.504  18.685   7.186  0.0516 -0.0077  0.0644
  218loPI   C6A 3484  10.907  18.594   7.091  0.2677  0.1977  0.0051
  218loPI   C1B 3485   9.945  18.843   8.677 -0.0633 -0.0191 -0.0417
  218loPI   C2B 3486   9.932  18.972   8.259  0.0675  0.0771  0.1545
  218loPI   C3B 3487   9.949  19.174   7.838 -0.0663 -0.1531  0.0398
  218loPI   C4B 3488   9.820  18.988   7.527  0.1156  0.3045  0.0083
  219loPI    C1 3489   0.607  19.287  10.163  0.0141 -0.0027  0.2487
  219loPI    C2 3490   0.517  19.054  10.476 -0.1209 -0.1480  0.1033
  219loPI    C3 3491   0.555  19.449  10.526  0.0320 -0.1901  0.3363
  219loPI   PO4 3492   0.458  19.131   9.986  0.0238 -0.1251 -0.1740
  219loPI   GL1 3493   0.588  18.974   9.606  0.1966  0.0349 -0.3535
  219loPI   GL2 3494   0.821  18.982   9.404 -0.0989 -0.2061  0.1909
  219loPI   C1A 3495   0.419  18.777   9.254  0.1780  0.1533  0.0276
  219loPI   C2A 3496   0.458  18.538   8.938  0.0749  0.0774  0.0106
  219loPI   C3A 3497   0.476  18.545   8.537  0.3207 -0.2547 -0.2795
  219loPI   C4A 3498   0.490  18.556   8.055  0.0887 -0.5520 -0.2091
  219loPI   C5A 3499   0.476  18.630   7.643 -0.0667  0.1352 -0.0351
  219loPI   C6A 3500   0.373  18.545   7.249  0.2987 -0.1790  0.2149
  219loPI   C1B 3501   0.755  18.980   8.932  0.2767  0.0805  0.2417
  219loPI   C2B 3502   0.676  19.061   8.483 -0.3582 -0.1800 -0.0278
  219loPI   C3B 3503   0.535  19.144   8.023 -0.0086  0.0861 -0.2454
  219loPI   C4B 3504   0.559  19.159   7.639  0.3385  0.0536  0.2239
  220loPI    C1 3505   3.280   8.102  10.032 -0.4378 -0.0541  0.0005
  220loPI    C2 3506   3.379   7.714  10.026 -0.1529  0.0145  0.1156
  220loPI    C3 3507   3.180   7.865  10.338 -0.5395 -0.1015 -0.0687
  220loPI   PO4 3508   3.359   8.209   9.767 -0.2201  0.0738 -0.1954
  220loPI   GL1 3509   3.363   8.280   9.393 -0.0098 -0.0465 -0.0454
  220loPI   GL2 3510   3.615   8.333   9.281 -0.2760  0.0513  0.1904
  220loPI   C1A 3511   3.077   8.253   9.159  0.1307  0.0202 -0.1324
  220loPI   C2A 3512   3.103   8.045   8.685  0.3256  0.0730 -0.2377
  220loPI   C3A 3513   3.237   7.630   8.499  0.0339 -0.0731 -0.1156
  220loPI   C4A 3514   3.196   7.421   7.991  0.0409 -0.2981  0.0068
  220loPI   C5A 3515   3.206   7.322   7.569 -0.0431 -0.1772 -0.0120
  220loPI   C6A 3516   3.283   7.124   7.216  0.2740 -0.0935  0.3691
  220loPI   C1B 3517   3.433   8.552   8.914  0.0483  0.0075  0.2603
  220loPI   C2B 3518   3.498   8.516   8.421 -0.1182  0.2448  0.1907
  220loPI   C3B 3519   3.616   8.301   8.014 -0.2428 -0.0910 -0.2131
  220loPI   C4B 3520   3.462   8.058   7.667  0.4057  0.3922  0.0131
  221loPI    C1 3521   6.081  10.093   9.834  0.3076  0.1574 -0.0799
  221loPI    C2 3522   6.231   9.765   9.661 -0.0614 -0.0956  0.0663
  221loPI    C3 3523   6.204   9.786  10.059  0.2035  0.2261  0.0716
  221loPI   PO4 3524   5.943  10.203   9.649 -0.3190  0.0013  0.2344
  221loPI   GL1 3525   5.661  10.002   9.460  0.3081 -0.2602 -0.2862
  221loPI   GL2 3526   5.331   9.736   9.450 -0.3338  0.1909 -0.1706
  221loPI   C1A 3527   5.658   9.579   9.132 -0.0224 -0.0643 -0.0635
  221loPI   C2A 3528   5.654   9.595   8.751  0.1435 -0.3619  0.0747
  221loPI   C3A 3529   5.437   9.587   8.390 -0.0430 -0.2058  0.1376
  221loPI   C4A 3530   5.356   9.442   7.971  0.0201  0.1021 -0.1835
  221loPI   C5A 3531   5.436   9.146   7.749  0.2150  0.0137 -0.0025
  221loPI   C6A 3532   5.643   8.914   7.556  0.2129 -0.0215 -0.1715
  221loPI   C1B 3533   5.365  10.103   9.121  0.5189 -0.1230  0.0101
  221loPI   C2B 3534   5.033  10.310   8.853 -0.0552  0.1291 -0.1088
  221loPI   C3B 3535   4.969  10.382   8.351 -0.0801 -0.1583 -0.0962
  221loPI   C4B 3536   4.809  10.323   7.906  0.0659 -0.0740  0.1790
  222loPI    C1 3537   0.979   4.416  10.110  0.0701 -0.2003 -0.0466
  222loPI    C2 3538   0.862   4.781  10.224  0.0687 -0.1053 -0.3426
  222loPI    C3 3539   1.024   4.531  10.491 -0.3448 -0.0565 -0.0354
  222loPI   PO4 3540   0.763   4.523   9.809  0.0772 -0.0693 -0.1393
  222loPI   GL1 3541   1.001   4.521   9.465 -0.0485 -0.1829  0.2280
  222loPI   GL2 3542   0.910   4.199   9.435  0.1658 -0.0845 -0.1040
  222loPI   C1A 3543   0.837   4.802   9.172 -0.1596 -0.2832 -0.1881
  222loPI   C2A 3544   0.782   4.750   8.804 -0.1856  0.1115  0.1701
  222loPI   C3A 3545   0.585   4.787   8.339 -0.2114 -0.1050 -0.0849
  222loPI   C4A 3546   0.791   4.663   7.855  0.0506  0.1358  0.2050
  222loPI   C5A 3547   0.767   4.297   7.501  0.0691  0.0170 -0.4118
  222loPI   C6A 3548   0.930   3.874   7.423  0.0718  0.0759  0.0677
  222loPI   C1B 3549   0.835   4.342   9.046  0.2095  0.2203  0.1459
  222loPI   C2B 3550   0.797   4.330   8.581  0.0994 -0.0667  0.0722
  222loPI   C3B 3551   0.627   4.197   8.211  0.1905 -0.3805 -0.0952
  222loPI   C4B 3552   0.810   3.956   7.878 -0.0823  0.1689 -0.1807
  223loPI    C1 3553   8.428   9.892  10.070 -0.1222 -0.0391  0.1340
  223loPI    C2 3554   8.440   9.673  10.405  0.1563 -0.2588 -0.0155
  223loPI    C3 3555   8.780   9.771  10.217  0.0202  0.1095 -0.0785
  223loPI   PO4 3556   8.386   9.759   9.803  0.2049  0.0105  0.1529
  223loPI   GL1 3557   8.469   9.677   9.484  0.0045 -0.2803  0.3428
  223loPI   GL2 3558   8.365   9.990   9.334 -0.0137 -0.2228 -0.0811
  223loPI   C1A 3559   8.757   9.386   9.222 -0.0957 -0.1822 -0.1020
  223loPI   C2A 3560   9.042   9.280   8.978 -0.3115  0.2009 -0.0445
  223loPI   C3A 3561   9.134   9.176   8.495  0.2477 -0.1614  0.0294
  223loPI   C4A 3562   9.118   8.937   8.052 -0.2703 -0.1951  0.4389
  223loPI   C5A 3563   9.221   8.941   7.546 -0.0737  0.1724  0.0243
  223loPI   C6A 3564   9.501   8.665   7.243 -0.1308 -0.3138  0.5696
  223loPI   C1B 3565   8.364  10.072   8.917 -0.1126 -0.1506  0.0778
  223loPI   C2B 3566   8.367   9.990   8.523 -0.2144  0.0684  0.0896
  223loPI   C3B 3567   8.362   9.773   8.152 -0.0682 -0.1140  0.0495
  223loPI   C4B 3568   8.310   9.547   7.686 -0.2971  0.2062  0.1123
  224loPI    C1 3569   5.728  17.001  10.326  0.0156  0.2275  0.2394
  224loPI    C2 3570   6.030  17.263  10.312  0.0131  0.2273  0.1759
  224loPI    C3 3571   5.701  17.348  10.523 -0.0461  0.3370  0.0413
  224loPI   PO4 3572   5.617  16.907  10.081  0.0010 -0.2921  0.2319
  224loPI   GL1 3573   5.614  17.142   9.655 -0.1405  0.1496  0.0634
  224loPI   GL2 3574   5.529  16.823   9.649  0.1326  0.1584  0.2711
  224loPI   C1A 3575   5.348  17.417   9.277 -0.0348 -0.0540  0.2249
  224loPI   C2A 3576   5.409  17.440   8.872 -0.0108 -0.1344  0.4248
  224loPI   C3A 3577   5.379  17.721   8.506 -0.1341  0.4037  0.2895
  224loPI   C4A 3578   5.423  17.770   8.085 -0.0728 -0.0450 -0.1121
  224loPI   C5A 3579   5.323  18.003   7.617 -0.0391  0.0182 -0.3017
  224loPI   C6A 3580   5.268  18.492   7.447 -0.3151  0.1283  0.0449
  224loPI   C1B 3581   5.658  16.951   9.163 -0.0991 -0.1666  0.1988
  224loPI   C2B 3582   5.515  16.986   8.730 -0.0302 -0.0280  0.0102
  224loPI   C3B 3583   5.602  16.789   8.273  0.2570  0.0653  0.0070
  224loPI   C4B 3584   5.656  16.452   7.938  0.2017 -0.1228  0.3820
  225loPI    C1 3585   8.108   4.838   9.430  0.3517  0.2083  0.1082
  225loPI    C2 3586   8.102   4.498   9.641  0.3911  0.1011 -0.0613
  225loPI    C3 3587   8.076   4.851   9.828 -0.1462 -0.0055  0.0827
  225loPI   PO4 3588   8.047   4.787   9.203  0.2567  0.1040 -0.2172
  225loPI   GL1 3589   8.167   4.717   8.783  0.1025 -0.1060  0.0768
  225loPI   GL2 3590   7.996   4.802   8.508  0.0836  0.1670  0.1579
  225loPI   C1A 3591   8.502   4.981   8.630 -0.0144 -0.2049 -0.0483
  225loPI   C2A 3592   8.557   4.888   8.170  0.0046 -0.1837 -0.1429
  225loPI   C3A 3593   8.594   4.735   7.808 -0.1272 -0.1263 -0.0214
  225loPI   C4A 3594   8.593   4.636   7.438  0.3257  0.1110 -0.1976
  225loPI   C5A 3595   8.621   4.515   6.977 -0.1285 -0.2223  0.0355
  225loPI   C6A 3596   8.451   4.523   6.508  0.2422 -0.2076 -0.1580
  225loPI   C1B 3597   8.088   4.702   8.061 -0.3218 -0.2472 -0.0828
  225loPI   C2B 3598   8.167   5.038   7.733  0.0771 -0.1872  0.3057
  225loPI   C3B 3599   8.106   5.350   7.512 -0.2262 -0.2838 -0.0763
  225loPI   C4B 3600   8.252   5.470   7.207  0.2189  0.1970  0.2448
  226loPI    C1 3601   2.563   7.667   9.719  0.0600  0.0593 -0.0690
  226loPI    C2 3602   2.869   7.718   9.972  0.0274  0.0267 -0.0230
  226loPI    C3 3603   2.519   7.899  10.042 -0.0128 -0.0631  0.0093
  226loPI   PO4 3604   2.623   7.792   9.437 -0.1083  0.2959 -0.2588
  226loPI   GL1 3605   2.439   8.038   9.160  0.0608  0.1312  0.2155
  226loPI   GL2 3606   2.191   8.290   9.159  0.5358  0.0643 -0.0420
  226loPI   C1A 3607   2.664   8.183   8.817  0.2343 -0.2602 -0.1274
  226loPI   C2A 3608   2.646   8.076   8.464 -0.1700 -0.0483 -0.0523
  226loPI   C3A 3609   2.649   8.214   7.996 -0.1113 -0.0941  0.0980
  226loPI   C4A 3610   2.850   8.372   7.666  0.2029  0.0497 -0.1172
  226loPI   C5A 3611   2.906   8.527   7.137 -0.2298 -0.1672 -0.1696
  226loPI   C6A 3612   2.811   8.375   6.742  0.3689 -0.0360  0.0334
  226loPI   C1B 3613   2.147   8.542   8.760 -0.5114 -0.5779 -0.2197
  226loPI   C2B 3614   2.390   8.558   8.379  0.1164 -0.1177  0.0039
  226loPI   C3B 3615   2.729   8.749   7.959 -0.0948 -0.0322  0.0679
  226loPI   C4B 3616   2.659   8.833   7.519 -0.1372  0.1264  0.1164
  227loPI    C1 3617   1.834  14.186  10.376 -0.1155 -0.3248  0.1323
  227loPI    C2 3618   2.220  14.162  10.276 -0.1174 -0.1767  0.0872
  227loPI    C3 3619   2.069  13.913  10.550  0.0339 -0.1666  0.1815
  227loPI   PO4 3620   1.719  14.346  10.105  0.2596 -0.1114 -0.0113
  227loPI   GL1 3621   1.522  14.535   9.637  0.0994  0.0388  0.2201
  227loPI   GL2 3622   1.838  14.822   9.554  0.1273 -0.1086 -0.0109
  227loPI   C1A 3623   1.476  14.401   9.245 -0.1690  0.4468 -0.1409
  227loPI   C2A 3624   1.206  14.399   8.925 -0.1802  0.0862  0.3310
  227loPI   C3A 3625   1.017  14.628   8.585  0.4184 -0.0134 -0.2083
  227loPI   C4A 3626   1.007  14.525   8.199  0.5121 -0.0782  0.2284
  227loPI   C5A 3627   0.794  14.686   7.808  0.1978  0.0734 -0.1641
  227loPI   C6A 3628   0.693  14.713   7.365 -0.1809 -0.1296  0.2561
  227loPI   C1B 3629   1.917  14.534   9.103  0.1938  0.0641 -0.0520
  227loPI   C2B 3630   2.215  14.260   8.867  0.1283 -0.1119  0.3332
  227loPI   C3B 3631   2.109  14.132   8.429  0.0680 -0.1096  0.0315
  227loPI   C4B 3632   2.106  14.004   8.032  0.2900 -0.1911  0.4192
  228loPI    C1 3633  10.413   5.372   9.645  0.1352  0.0058  0.2310
  228loPI    C2 3634  10.807   5.319   9.595  0.0949 -0.2021  0.1223
  228loPI    C3 3635  10.634   5.659   9.475  0.1941 -0.2272 -0.0964
  228loPI   PO4 3636  10.337   5.103   9.461  0.1573  0.0119 -0.1004
  228loPI   GL1 3637  10.265   4.840   9.213  0.2074  0.1090  0.4181
  228loPI   GL2 3638  10.017   4.731   9.020 -0.3049 -0.2071  0.1177
  228loPI   C1A 3639  10.401   4.934   8.781 -0.2524 -0.0148 -0.2830
  228loPI   C2A 3640  10.596   5.099   8.442  0.3354 -0.2206 -0.5830
  228loPI   C3A 3641  10.599   5.189   8.033 -0.1092  0.1664  0.1558
  228loPI   C4A 3642  10.489   5.212   7.656  0.3704 -0.2015  0.0388
  228loPI   C5A 3643  10.230   5.198   7.398  0.2885 -0.0780  0.0126
  228loPI   C6A 3644  10.064   5.155   7.052 -0.2049  0.0637  0.0908
  228loPI   C1B 3645   9.991   4.722   8.516  0.1444 -0.1292  0.1700
  228loPI   C2B 3646  10.222   4.816   8.086  0.0139  0.0390 -0.2827
  228loPI   C3B 3647  10.176   4.758   7.653 -0.3578 -0.1894  0.0547
  228loPI   C4B 3648  10.193   4.704   7.208  0.2647  0.0828  0.0444
  229loPI    C1 3649  11.305  18.675  10.077 -0.1264  0.2167 -0.0764
  229loPI    C2 3650  11.617  18.652  10.326 -0.1154 -0.0301 -0.1101
  229loPI    C3 3651  11.291  18.858  10.432 -0.0119  0.0785  0.0004
  229loPI   PO4 3652  11.409  18.452   9.873 -0.1261 -0.0444 -0.0994
  229loPI   GL1 3653  11.462  18.625   9.417  0.3460  0.1941 -0.3068
  229loPI   GL2 3654  11.832  18.594   9.321  0.2021 -0.1023 -0.0108
  229loPI   C1A 3655  11.355  18.590   8.929 -0.3514 -0.1691  0.1386
  229loPI   C2A 3656  11.541  18.548   8.416  0.1745 -0.0853  0.0206
  229loPI   C3A 3657  11.527  18.796   8.118 -0.0905 -0.0721  0.0172
  229loPI   C4A 3658  11.504  18.931   7.692 -0.0707 -0.0448 -0.0551
  229loPI   C5A 3659  11.910  19.037   7.499  0.0820 -0.1153  0.0310
  229loPI   C6A 3660  12.349  18.879   7.439 -0.1115 -0.1584 -0.0584
  229loPI   C1B 3661  11.753  18.898   8.909  0.0093 -0.2363 -0.1792
  229loPI   C2B 3662  11.505  19.066   8.547  0.6661 -0.0048  0.1342
  229loPI   C3B 3663  11.238  19.263   8.257 -0.0566  0.0388 -0.0329
  229loPI   C4B 3664  10.943  19.155   8.017  0.0530 -0.2708 -0.0852
  230loPI    C1 3665   5.270   5.021   8.990 -0.1713  0.2563 -0.0619
  230loPI    C2 3666   5.461   5.318   9.177  0.0114  0.1187 -0.0270
  230loPI    C3 3667   5.299   5.020   9.389 -0.0887  0.1443 -0.0674
  230loPI   PO4 3668   5.122   5.141   8.796  0.1743 -0.0407 -0.3811
  230loPI   GL1 3669   4.972   5.282   8.480 -0.1270 -0.1603 -0.1096
  230loPI   GL2 3670   5.145   4.995   8.302  0.1659  0.0229 -0.2697
  230loPI   C1A 3671   4.909   5.382   8.035 -0.2738  0.0575 -0.0470
  230loPI   C2A 3672   4.850   5.645   7.673 -0.1273 -0.3336 -0.4605
  230loPI   C3A 3673   5.031   5.662   7.260  0.1423  0.1177  0.3237
  230loPI   C4A 3674   5.060   5.459   6.942  0.1912 -0.2963 -0.1829
  230loPI   C5A 3675   5.232   5.239   6.567  0.2873 -0.1668 -0.1746
  230loPI   C6A 3676   5.558   5.023   6.513  0.0445  0.0529  0.1318
  230loPI   C1B 3677   5.311   4.978   7.797 -0.0087 -0.5994 -0.1485
  230loPI   C2B 3678   5.305   5.253   7.318 -0.0102 -0.1260  0.1472
  230loPI   C3B 3679   5.575   5.290   6.990  0.0452 -0.0146 -0.0285
  230loPI   C4B 3680   5.522   5.602   6.662  0.2467 -0.0290 -0.0731
  231loPI    C1 3681   0.334  14.772  10.149 -0.0585 -0.1404 -0.0728
  231loPI    C2 3682   0.071  15.055  10.045 -0.0507 -0.1472 -0.1114
  231loPI    C3 3683   0.315  15.113  10.357  0.0021 -0.0804 -0.1649
  231loPI   PO4 3684   0.378  14.617   9.874 -0.2593 -0.0893  0.0403
  231loPI   GL1 3685   0.487  14.620   9.460 -0.0001 -0.1577  0.3027
  231loPI   GL2 3686   0.355  14.283   9.374  0.0171  0.2432  0.0629
  231loPI   C1A 3687   0.688  14.681   9.141 -0.3586 -0.1769  0.0180
  231loPI   C2A 3688   0.630  14.923   8.734 -0.5031  0.2379  0.0224
  231loPI   C3A 3689   0.629  14.958   8.345  0.0028  0.0359 -0.1268
  231loPI   C4A 3690   0.427  14.968   8.052 -0.0336 -0.1444  0.1035
  231loPI   C5A 3691   0.518  15.102   7.646  0.0139 -0.0273  0.1168
  231loPI   C6A 3692   0.593  15.186   7.261 -0.0675  0.1207  0.1617
  231loPI   C1B 3693   0.326  13.921   8.929 -0.3442  0.2714 -0.3047
  231loPI   C2B 3694   0.606  13.886   8.496  0.3658 -0.0903  0.2631
  231loPI   C3B 3695   0.582  13.979   8.076 -0.0676  0.2270  0.2091
  231loPI   C4B 3696   0.816  14.164   7.704 -0.0457  0.0367  0.0309
  232loPI    C1 3697  19.178  17.707  10.154  0.1115  0.0536 -0.1087
  232loPI    C2 3698  19.498  17.503  10.281  0.0227  0.1110  0.2186
  232loPI    C3 3699  19.134  17.337  10.300  0.0188  0.0822 -0.0630
  232loPI   PO4 3700  19.333  17.916  10.003  0.0349 -0.0392 -0.1089
  232loPI   GL1 3701  19.126  18.078   9.562  0.1273  0.0639 -0.1134
  232loPI   GL2 3702  19.035  17.786   9.564 -0.0989  0.2416 -0.1841
  232loPI   C1A 3703  19.368  18.140   9.169  0.0723  0.0981 -0.2251
  232loPI   C2A 3704  19.420  18.166   8.722 -0.0255 -0.0081  0.3331
  232loPI   C3A 3705  19.460  18.348   8.262 -0.2318  0.0451  0.2847
  232loPI   C4A 3706  19.375  18.560   7.816  0.0623 -0.1993 -0.0501
  232loPI   C5A 3707  19.392  18.911   7.653  0.3251 -0.0701  0.3297
  232loPI   C6A 3708  19.060  19.303   7.472 -0.3380 -0.2108  0.3813
  232loPI   C1B 3709  19.075  17.729   9.140 -0.1149  0.1268  0.1183
  232loPI   C2B 3710  19.169  17.700   8.715 -0.1650 -0.1474 -0.0990
  232loPI   C3B 3711  19.535  17.739   8.416  0.1167  0.0832 -0.4091
  232loPI   C4B 3712  19.867  18.028   8.226 -0.3341 -0.0513 -0.3771
  233loPI    C1 3713  16.305   5.924   9.301 -0.1329  0.0404 -0.0859
  233loPI    C2 3714  16.415   5.731   9.634  0.3233  0.2500 -0.1076
  233loPI    C3 3715  16.142   6.023   9.653 -0.1013 -0.1412 -0.0190
  233loPI   PO4 3716  16.234   5.724   9.149 -0.1303 -0.1942 -0.2615
  233loPI   GL1 3717  16.035   5.911   8.780 -0.3017  0.2167 -0.0304
  233loPI   GL2 3718  16.004   5.588   8.763  0.4890 -0.0897 -0.0146
  233loPI   C1A 3719  15.923   5.940   8.348 -0.2659  0.3943  0.1673
  233loPI   C2A 3720  15.958   5.882   7.983 -0.2107 -0.1841  0.4731
  233loPI   C3A 3721  16.110   6.099   7.529  0.3204 -0.0841 -0.0234
  233loPI   C4A 3722  16.314   6.298   7.260  0.0531  0.1882  0.2727
  233loPI   C5A 3723  16.664   6.366   7.034 -0.2255 -0.0065  0.0937
  233loPI   C6A 3724  17.035   6.199   6.972 -0.3917 -0.4110  0.1255
  233loPI   C1B 3725  16.055   5.363   8.484  0.0986 -0.0509 -0.1812
  233loPI   C2B 3726  16.190   5.433   8.068  0.1508 -0.2049  0.0298
  233loPI   C3B 3727  16.103   5.569   7.593  0.0729 -0.0456 -0.0440
  233loPI   C4B 3728  15.778   5.545   7.269  0.0508 -0.2422  0.0114
  234loPI    C1 3729  18.840   0.495   9.778  0.0657 -0.1789 -0.2750
  234loPI    C2 3730  19.224   0.420   9.696  0.2024  0.1045  0.0780
  234loPI    C3 3731  19.063   0.290  10.038  0.0360  0.1525  0.0194
  234loPI   PO4 3732  18.693   0.444   9.536  0.1401  0.3015 -0.1377
  234loPI   GL1 3733  18.611   0.688   9.094 -0.0301  0.0180 -0.3673
  234loPI   GL2 3734  18.285   0.748   9.183  0.2116 -0.1622  0.1757
  234loPI   C1A 3735  18.709   0.617   8.663  0.2363  0.0717  0.3269
  234loPI   C2A 3736  18.658   0.515   8.261  0.1567 -0.0386 -0.2151
  234loPI   C3A 3737  18.715   0.781   7.748 -0.1573  0.1664 -0.2912
  234loPI   C4A 3738  18.913   1.096   7.356 -0.1018 -0.1893  0.0912
  234loPI   C5A 3739  19.190   1.293   7.111 -0.1172  0.5165 -0.2221
  234loPI   C6A 3740  19.522   1.073   6.909 -0.2955 -0.1035  0.0668
  234loPI   C1B 3741  18.186   0.475   8.879 -0.3771  0.0299 -0.0986
  234loPI   C2B 3742  18.098   0.354   8.391  0.3576  0.0659 -0.2175
  234loPI   C3B 3743  18.269   0.612   8.029  0.1349  0.0322  0.1687
  234loPI   C4B 3744  18.288   0.609   7.628 -0.0254 -0.1785  0.5883
  235loPI    C1 3745  15.582   1.834   9.800 -0.1038  0.2211 -0.0080
  235loPI    C2 3746  15.788   1.959  10.119  0.0527  0.0989 -0.0595
  235loPI    C3 3747  15.517   2.199   9.949  0.0421  0.2032  0.1022
  235loPI   PO4 3748  15.733   1.786   9.567  0.0944 -0.3005 -0.2968
  235loPI   GL1 3749  15.525   1.730   9.155 -0.2526  0.0748 -0.0853
  235loPI   GL2 3750  15.619   1.477   9.234  0.0103  0.2757  0.3688
  235loPI   C1A 3751  15.529   1.894   8.724 -0.0037  0.3854 -0.2660
  235loPI   C2A 3752  15.580   1.997   8.306 -0.0610  0.2543  0.3789
  235loPI   C3A 3753  15.424   2.132   7.867 -0.0631  0.2154  0.0683
  235loPI   C4A 3754  15.629   2.333   7.468 -0.0616 -0.1440  0.2222
  235loPI   C5A 3755  15.773   2.117   7.085  0.0595  0.0526  0.0863
  235loPI   C6A 3756  16.228   1.892   6.962  0.2154 -0.2398 -0.0756
  235loPI   C1B 3757  15.554   1.397   8.817 -0.1063  0.0620 -0.1343
  235loPI   C2B 3758  15.406   1.371   8.294 -0.0142  0.2494 -0.1998
  235loPI   C3B 3759  15.444   1.556   7.860 -0.1365 -0.2540  0.1901
  235loPI   C4B 3760  15.780   1.824   7.690 -0.2074  0.3244 -0.5593
  236loPI    C1 3761   9.366   8.523   9.864  0.0158  0.3811 -0.2146
  236loPI    C2 3762   9.657   8.668  10.097  0.1186 -0.1048 -0.0287
  236loPI    C3 3763   9.275   8.694  10.214  0.1116  0.2329 -0.1160
  236loPI   PO4 3764   9.437   8.694   9.617 -0.0366  0.0804 -0.0885
  236loPI   GL1 3765   9.722   8.663   9.296  0.0955  0.3145 -0.1593
  236loPI   GL2 3766   9.506   8.837   9.162  0.1299  0.1587 -0.1279
  236loPI   C1A 3767   9.998   8.931   9.073  0.0055  0.0728 -0.1213
  236loPI   C2A 3768  10.095   9.195   8.764  0.0708  0.1841 -0.1209
  236loPI   C3A 3769  10.243   9.346   8.289 -0.1569 -0.2653  0.1575
  236loPI   C4A 3770  10.415   9.726   8.211  0.0754  0.0501 -0.2759
  236loPI   C5A 3771  10.461   9.661   7.778 -0.1531 -0.0320 -0.3874
  236loPI   C6A 3772  10.469   9.358   7.425  0.0390 -0.1210  0.2170
  236loPI   C1B 3773   9.590   9.109   8.802  0.3256  0.0475  0.0622
  236loPI   C2B 3774   9.565   9.164   8.344  0.2119  0.1013 -0.1495
  236loPI   C3B 3775   9.601   9.117   7.950  0.1784  0.3350  0.0178
  236loPI   C4B 3776   9.708   8.766   7.702 -0.2718  0.5352  0.0876
  237loPI    C1 3777  14.284  17.577   9.666  0.1178 -0.1623 -0.1040
  237loPI    C2 3778  14.407  17.693  10.028  0.1026  0.0128 -0.1541
  237loPI    C3 3779  14.034  17.774   9.909  0.0304 -0.2550 -0.1176
  237loPI   PO4 3780  14.443  17.570   9.501 -0.1791  0.0327  0.0751
  237loPI   GL1 3781  14.586  17.453   9.112 -0.4092  0.0665 -0.2012
  237loPI   GL2 3782  14.448  17.644   8.933  0.0050 -0.0397 -0.3106
  237loPI   C1A 3783  14.693  17.042   9.002  0.1523 -0.2979 -0.0006
  237loPI   C2A 3784  14.864  16.919   8.676  0.0969  0.1041  0.0031
  237loPI   C3A 3785  14.919  16.883   8.152 -0.4467  0.1454  0.0055
  237loPI   C4A 3786  14.985  16.648   7.803 -0.3667 -0.2914 -0.0281
  237loPI   C5A 3787  14.904  16.585   7.379  0.3101  0.1945 -0.1057
  237loPI   C6A 3788  14.770  16.359   6.977  0.1508  0.0215  0.0441
  237loPI   C1B 3789  14.385  17.527   8.601 -0.3593 -0.0321  0.4804
  237loPI   C2B 3790  14.263  17.546   8.211 -0.0474 -0.2113  0.4097
  237loPI   C3B 3791  14.366  17.728   7.799  0.3314  0.0239  0.2160
  237loPI   C4B 3792  14.545  18.113   7.649  0.0803  0.2900 -0.1568
  238loPI    C1 3793   6.986   7.728   9.740  0.2183  0.0109  0.0369
  238loPI    C2 3794   7.176   8.055   9.610  0.2250  0.0192  0.0675
  238loPI    C3 3795   7.118   7.999  10.002 -0.2605  0.2549  0.0373
  238loPI   PO4 3796   6.771   7.635   9.593 -0.2240  0.0787  0.0617
  238loPI   GL1 3797   6.737   7.697   9.235  0.3653  0.1877  0.1751
  238loPI   GL2 3798   6.944   7.840   9.147 -0.4157 -0.0228  0.3449
  238loPI   C1A 3799   6.271   7.724   9.090  0.2400 -0.3103  0.1415
  238loPI   C2A 3800   5.983   8.005   8.761  0.2580 -0.1321 -0.0349
  238loPI   C3A 3801   5.933   8.121   8.375 -0.0286  0.0634  0.1662
  238loPI   C4A 3802   5.862   7.981   7.968  0.0008  0.0765  0.0058
  238loPI   C5A 3803   5.950   7.710   7.682 -0.3388 -0.0810 -0.3093
  238loPI   C6A 3804   6.339   7.706   7.346  0.1873  0.3276  0.0830
  238loPI   C1B 3805   6.773   8.043   8.673 -0.0735 -0.0525 -0.0227
  238loPI   C2B 3806   6.831   8.285   8.219 -0.0983 -0.3325 -0.1217
  238loPI   C3B 3807   6.695   8.339   7.804  0.6014  0.0792  0.0107
  238loPI   C4B 3808   6.697   8.656   7.478 -0.5925  0.0174  0.1547
  239loPI    C1 3809  15.831   5.559   9.444  0.1391  0.1446  0.0504
  239loPI    C2 3810  15.716   5.248   9.669 -0.2936  0.4311  0.2396
  239loPI    C3 3811  16.095   5.377   9.683 -0.0788 -0.1491  0.0741
  239loPI   PO4 3812  15.543   5.666   9.382 -0.1666  0.2205  0.1651
  239loPI   GL1 3813  15.333   5.465   8.910 -0.3550  0.1817  0.1925
  239loPI   GL2 3814  15.479   5.858   8.924  0.0573 -0.2520 -0.3124
  239loPI   C1A 3815  15.470   5.548   8.433  0.1983  0.1237  0.0533
  239loPI   C2A 3816  15.671   5.251   8.060  0.0901 -0.1953 -0.1537
  239loPI   C3A 3817  15.516   4.993   7.790  0.0054 -0.6065 -0.0575
  239loPI   C4A 3818  15.270   4.667   7.480  0.1860 -0.1046 -0.0851
  239loPI   C5A 3819  14.987   4.455   7.180  0.2563 -0.0580 -0.0115
  239loPI   C6A 3820  15.101   4.204   6.876 -0.0493 -0.1033  0.1457
  239loPI   C1B 3821  15.463   6.069   8.539 -0.0611 -0.0955 -0.0575
  239loPI   C2B 3822  15.492   6.134   8.103  0.1791  0.0977 -0.0622
  239loPI   C3B 3823  15.623   6.241   7.766  0.1562 -0.3746 -0.1560
  239loPI   C4B 3824  15.311   6.377   7.425 -0.2616 -0.0672 -0.2871
  240loPI    C1 3825   4.309  18.199  10.015 -0.0846  0.0194 -0.0729
  240loPI    C2 3826   4.299  18.046  10.385  0.1288 -0.0709 -0.1025
  240loPI    C3 3827   3.970  18.042  10.157  0.0167 -0.0834  0.0582
  240loPI   PO4 3828   4.387  18.096   9.871  0.1827  0.2099  0.3190
  240loPI   GL1 3829   4.444  18.057   9.481 -0.1100 -0.1446  0.2405
  240loPI   GL2 3830   4.284  17.728   9.259  0.3258  0.0622 -0.1251
  240loPI   C1A 3831   4.389  18.252   9.173  0.1586  0.0028  0.3287
  240loPI   C2A 3832   4.347  18.582   8.873 -0.2106 -0.0756  0.0276
  240loPI   C3A 3833   4.134  18.583   8.466  0.2655 -0.4301 -0.0419
  240loPI   C4A 3834   3.908  18.740   8.115 -0.0275  0.0484 -0.1945
  240loPI   C5A 3835   3.984  18.833   7.648 -0.1021  0.3695  0.2365
  240loPI   C6A 3836   3.760  18.873   7.333 -0.2527  0.1840  0.1068
  240loPI   C1B 3837   4.501  17.422   8.946  0.0167  0.1545 -0.0182
  240loPI   C2B 3838   4.470  17.432   8.529 -0.0735  0.1567 -0.0067
  240loPI   C3B 3839   4.264  17.756   8.303 -0.2673  0.2248  0.2575
  240loPI   C4B 3840   3.817  17.725   8.201  0.0565 -0.1640 -0.1110
  241loPI    C1 3841  12.831   4.163   9.053 -0.0695 -0.2114  0.0100
  241loPI    C2 3842  13.006   4.342   9.365  0.0512 -0.0700 -0.1365
  241loPI    C3 3843  13.013   3.943   9.333  0.1505 -0.0777 -0.0256
  241loPI   PO4 3844  12.909   4.251   8.874  0.0251 -0.1925 -0.0194
  241loPI   GL1 3845  12.615   4.273   8.604 -0.0983  0.1303 -0.1504
  241loPI   GL2 3846  12.700   4.586   8.479 -0.4004 -0.1683  0.0653
  241loPI   C1A 3847  12.517   4.140   8.296  0.0090 -0.2948  0.0811
  241loPI   C2A 3848  12.384   4.252   7.862 -0.1434 -0.0602 -0.2003
  241loPI   C3A 3849  12.272   4.142   7.506 -0.0198 -0.3600  0.1014
  241loPI   C4A 3850  12.127   4.227   7.217 -0.4041 -0.2666  0.1737
  241loPI   C5A 3851  12.061   4.532   6.939 -0.5549  0.1042 -0.0160
  241loPI   C6A 3852  11.825   4.704   6.563 -0.0608 -0.1918 -0.1399
  241loPI   C1B 3853  12.754   4.704   7.995 -0.3556 -0.1672 -0.0188
  241loPI   C2B 3854  12.808   4.776   7.606 -0.2502 -0.2204  0.0783
  241loPI   C3B 3855  13.024   4.696   7.302  0.0654  0.0634  0.0249
  241loPI   C4B 3856  13.414   4.686   7.199  0.1221  0.2644  0.3450
  242loPI    C1 3857   1.017  11.888  10.140  0.0117 -0.0376 -0.0309
  242loPI    C2 3858   1.147  12.250  10.250 -0.2272  0.0559 -0.0505
  242loPI    C3 3859   0.865  12.065  10.465 -0.2550 -0.0284 -0.1587
  242loPI   PO4 3860   0.982  11.851   9.787  0.1492  0.1866 -0.1207
  242loPI   GL1 3861   0.909  11.929   9.458  0.0122  0.0463 -0.1813
  242loPI   GL2 3862   1.018  12.261   9.340 -0.3546  0.3536  0.3684
  242loPI   C1A 3863   0.930  11.696   9.060 -0.3611  0.0698  0.0721
  242loPI   C2A 3864   1.006  11.670   8.535 -0.2001 -0.1550 -0.1197
  242loPI   C3A 3865   1.062  11.647   8.088 -0.1153  0.1210  0.2397
  242loPI   C4A 3866   0.894  11.682   7.783  0.1543  0.0124  0.0306
  242loPI   C5A 3867   0.604  11.952   7.527 -0.0556 -0.2223 -0.1582
  242loPI   C6A 3868   0.559  12.402   7.750 -0.1494 -0.1132  0.2219
  242loPI   C1B 3869   0.934  12.172   8.912  0.0976  0.5079  0.1396
  242loPI   C2B 3870   0.813  12.124   8.395  0.0015 -0.1151  0.0405
  242loPI   C3B 3871   0.928  12.149   7.975  0.0801  0.1327 -0.4205
  242loPI   C4B 3872   1.063  12.188   7.631  0.1853 -0.0964 -0.2103
  243loPI    C1 3873  16.912   7.824   9.509 -0.0915 -0.1246 -0.1037
  243loPI    C2 3874  16.621   7.696   9.752 -0.1036  0.0178 -0.0417
  243loPI    C3 3875  16.913   7.928   9.895 -0.0215 -0.0305 -0.1289
  243loPI   PO4 3876  16.797   7.875   9.240 -0.1712  0.3295 -0.2401
  243loPI   GL1 3877  16.869   7.658   8.854 -0.3204 -0.2640  0.0467
  243loPI   GL2 3878  17.220   7.598   8.843  0.1105  0.1605  0.0962
  243loPI   C1A 3879  17.015   7.603   8.426  0.1362  0.1052  0.0276
  243loPI   C2A 3880  17.219   7.417   8.005  0.0393 -0.1712  0.1680
  243loPI   C3A 3881  16.953   7.194   7.755  0.1758  0.2157  0.2177
  243loPI   C4A 3882  16.877   6.828   7.516 -0.1302  0.1917  0.4408
  243loPI   C5A 3883  16.925   6.793   7.130 -0.1931 -0.0650 -0.1650
  243loPI   C6A 3884  17.142   6.676   6.781  0.0296 -0.0117 -0.2029
  243loPI   C1B 3885  17.458   7.413   8.496 -0.0355 -0.2799 -0.0654
  243loPI   C2B 3886  17.668   7.092   8.425  0.2009 -0.0589 -0.4879
  243loPI   C3B 3887  17.853   7.143   8.043 -0.2441  0.1425 -0.2737
  243loPI   C4B 3888  17.751   7.296   7.722  0.4114 -0.0655 -0.1998
  244loPI    C1 3889  17.552  13.606  10.389 -0.2921 -0.0109 -0.0487
  244loPI    C2 3890  17.925  13.506  10.493 -0.1819  0.1548 -0.2770
  244loPI    C3 3891  17.614  13.322  10.665  0.0040 -0.0118 -0.1129
  244loPI   PO4 3892  17.543  13.520  10.140  0.2116  0.0961  0.0675
  244loPI   GL1 3893  17.542  13.609   9.695 -0.3834  0.3478  0.2038
  244loPI   GL2 3894  17.896  13.574   9.583  0.0388 -0.3722  0.1599
  244loPI   C1A 3895  17.547  13.662   9.170  0.1635  0.3653 -0.2892
  244loPI   C2A 3896  17.440  13.689   8.672 -0.0763  0.0801 -0.1559
  244loPI   C3A 3897  17.526  13.660   8.209 -0.2854 -0.0620  0.0895
  244loPI   C4A 3898  17.377  13.698   7.756  0.1638  0.0579  0.3618
  244loPI   C5A 3899  17.762  13.665   7.503 -0.0095  0.0481 -0.0880
  244loPI   C6A 3900  17.765  13.788   7.127  0.1160  0.1835  0.3605
  244loPI   C1B 3901  18.115  13.371   9.206  0.1209  0.1540  0.1045
  244loPI   C2B 3902  18.122  13.121   8.741 -0.0765 -0.2343  0.1273
  244loPI   C3B 3903  17.974  13.139   8.339  0.3585  0.1953 -0.2073
  244loPI   C4B 3904  17.888  13.373   7.921 -0.0648  0.1505 -0.2699
  245loPI    C1 3905   6.285  14.381   9.796 -0.1052 -0.2366  0.2064
  245loPI    C2 3906   6.593  14.483  10.031 -0.1742 -0.0955  0.2362
  245loPI    C3 3907   6.218  14.513  10.168 -0.2195  0.0682  0.0806
  245loPI   PO4 3908   6.351  14.452   9.595 -0.0946  0.0896  0.0042
  245loPI   GL1 3909   6.246  14.264   9.232  0.3455 -0.0533  0.0345
  245loPI   GL2 3910   5.997  14.413   9.147 -0.0150 -0.0162  0.1425
  245loPI   C1A 3911   6.323  14.565   8.782 -0.0059  0.2912  0.0985
  245loPI   C2A 3912   6.440  14.706   8.321  0.1492 -0.0349 -0.1484
  245loPI   C3A 3913   6.340  14.736   7.865 -0.0405 -0.1663  0.0826
  245loPI   C4A 3914   6.328  14.978   7.533  0.0719 -0.0040 -0.1737
  245loPI   C5A 3915   6.327  15.305   7.301  0.2314 -0.0802  0.1366
  245loPI   C6A 3916   6.204  15.697   7.056 -0.0168  0.0148 -0.0763
  245loPI   C1B 3917   5.815  14.274   8.760  0.2010  0.0671 -0.1664
  245loPI   C2B 3918   5.714  14.098   8.273  0.1227  0.2470  0.1410
  245loPI   C3B 3919   5.490  13.732   8.093  0.0131  0.0967 -0.3056
  245loPI   C4B 3920   5.233  13.724   7.701  0.0994  0.2256  0.0844
  246loPI    C1 3921   2.252   5.454   9.937  0.1904  0.2868  0.0805
  246loPI    C2 3922   2.137   5.438  10.320 -0.0473 -0.2916 -0.0050
  246loPI    C3 3923   2.481   5.268  10.208  0.0654 -0.0462 -0.0377
  246loPI   PO4 3924   2.091   5.363   9.760 -0.0010 -0.2952 -0.1467
  246loPI   GL1 3925   2.060   5.262   9.400  0.2346 -0.2919  0.0232
  246loPI   GL2 3926   2.296   5.347   9.329 -0.2481 -0.0192  0.1116
  246loPI   C1A 3927   1.918   5.402   8.909  0.0230 -0.0205  0.0286
  246loPI   C2A 3928   2.059   5.566   8.480  0.2735  0.1112  0.2494
  246loPI   C3A 3929   2.084   5.841   8.051  0.1518  0.3048  0.1484
  246loPI   C4A 3930   1.984   5.958   7.599  0.0156  0.1345  0.0186
  246loPI   C5A 3931   2.095   6.167   7.254 -0.1807 -0.0675  0.0363
  246loPI   C6A 3932   1.835   6.293   6.934 -0.0057  0.1568  0.2743
  246loPI   C1B 3933   2.376   5.286   8.939 -0.0368  0.0838 -0.0254
  246loPI   C2B 3934   2.275   5.130   8.543  0.1417 -0.0805 -0.2782
  246loPI   C3B 3935   2.098   4.982   8.159  0.2922  0.0536 -0.1817
  246loPI   C4B 3936   1.997   4.965   7.741  0.4955  0.1873  0.1621
  247loPI    C1 3937   2.006   7.849  10.151  0.1207  0.2871 -0.2141
  247loPI    C2 3938   2.261   7.712  10.428 -0.2494 -0.0483 -0.0286
  247loPI    C3 3939   2.210   8.106  10.381  0.0478  0.0165  0.1637
  247loPI   PO4 3940   2.018   7.765   9.835  0.3533 -0.0356 -0.1626
  247loPI   GL1 3941   2.093   7.641   9.487  0.0634 -0.2679 -0.1015
  247loPI   GL2 3942   1.732   7.476   9.326 -0.0415  0.3114  0.0556
  247loPI   C1A 3943   1.965   7.864   9.023  0.0821  0.1631 -0.0040
  247loPI   C2A 3944   2.027   8.071   8.615  0.1524  0.1461 -0.0284
  247loPI   C3A 3945   2.180   8.190   8.168  0.0595 -0.0023 -0.0534
  247loPI   C4A 3946   1.920   8.170   7.766 -0.3101  0.3994 -0.2433
  247loPI   C5A 3947   1.706   7.893   7.456  0.1862  0.1303  0.0442
  247loPI   C6A 3948   1.641   7.416   7.457  0.4780 -0.0348  0.1676
  247loPI   C1B 3949   1.856   7.292   8.964 -0.0185  0.0788  0.0435
  247loPI   C2B 3950   1.887   7.526   8.627  0.1807 -0.1362 -0.2749
  247loPI   C3B 3951   1.692   7.638   8.275  0.0200 -0.1842 -0.2031
  247loPI   C4B 3952   1.488   7.761   7.891 -0.3848  0.0159  0.0238
  248loPI    C1 3953   0.620   6.800  10.010 -0.0623 -0.1324 -0.1673
  248loPI    C2 3954   0.475   7.138   9.853 -0.0203 -0.0622 -0.0560
  248loPI    C3 3955   0.632   7.140  10.221 -0.0759 -0.2158 -0.0308
  248loPI   PO4 3956   0.784   6.681   9.821 -0.0231 -0.0786 -0.2492
  248loPI   GL1 3957   0.677   6.448   9.473  0.0622 -0.2656  0.2534
  248loPI   GL2 3958   0.654   6.735   9.267  0.2651 -0.0605 -0.1585
  248loPI   C1A 3959   0.874   6.193   9.200 -0.3358 -0.2013  0.2657
  248loPI   C2A 3960   0.881   6.161   8.789  0.1983 -0.0394  0.2420
  248loPI   C3A 3961   0.868   6.276   8.288  0.1777 -0.0177  0.0480
  248loPI   C4A 3962   1.044   6.059   7.935 -0.0150 -0.1157  0.1233
  248loPI   C5A 3963   1.344   6.169   7.589 -0.0367  0.0966 -0.0107
  248loPI   C6A 3964   1.529   5.999   7.239 -0.1557 -0.1851 -0.4750
  248loPI   C1B 3965   0.593   6.761   8.830 -0.1588 -0.1828 -0.0438
  248loPI   C2B 3966   0.540   6.688   8.552  0.1630 -0.0866  0.1467
  248loPI   C3B 3967   0.508   6.715   8.118  0.3302  0.1336  0.1139
  248loPI   C4B 3968   0.626   6.329   7.749 -0.0840  0.1173 -0.1290
  249loPI    C1 3969   8.073   3.481   9.734 -0.1316 -0.0507 -0.1122
  249loPI    C2 3970   7.988   3.634  10.094  0.0659 -0.0230 -0.0762
  249loPI    C3 3971   7.746   3.361   9.931  0.0747 -0.1755  0.1615
  249loPI   PO4 3972   8.236   3.430   9.571  0.1455  0.0894  0.1596
  249loPI   GL1 3973   8.518   3.615   9.263  0.0209 -0.2480  0.0621
  249loPI   GL2 3974   8.610   3.303   9.207 -0.0095 -0.3389 -0.3490
  249loPI   C1A 3975   8.692   3.696   8.828 -0.0858 -0.5524  0.3378
  249loPI   C2A 3976   8.771   3.882   8.423 -0.0775  0.2978 -0.2107
  249loPI   C3A 3977   8.771   3.913   8.060 -0.0940 -0.1078 -0.1796
  249loPI   C4A 3978   8.803   3.714   7.697 -0.2749  0.0266 -0.0155
  249loPI   C5A 3979   8.776   3.495   7.281  0.2711 -0.0212  0.2479
  249loPI   C6A 3980   8.617   3.091   7.214 -0.1779  0.1914 -0.1451
  249loPI   C1B 3981   8.600   3.230   8.792  0.1197  0.3568 -0.0915
  249loPI   C2B 3982   8.669   3.308   8.432 -0.1161 -0.2161 -0.0602
  249loPI   C3B 3983   8.555   3.411   8.027 -0.0494 -0.4735 -0.0176
  249loPI   C4B 3984   8.371   3.340   7.574 -0.1216  0.0274 -0.3254
  250loPI    C1 3985   9.692  13.230  10.101 -0.2228  0.0052  0.0207
  250loPI    C2 3986   9.724  12.997  10.425  0.2552 -0.0204 -0.0386
  250loPI    C3 3987   9.444  13.282  10.411 -0.0039 -0.2549  0.2448
  250loPI   PO4 3988   9.684  13.033   9.894 -0.2393  0.0672 -0.1588
  250loPI   GL1 3989   9.589  12.998   9.489 -0.0153  0.2545 -0.7629
  250loPI   GL2 3990   9.242  13.218   9.505  0.0672 -0.0998  0.2483
  250loPI   C1A 3991   9.890  12.992   9.139  0.2712 -0.0168  0.2086
  250loPI   C2A 3992   9.708  12.968   8.756  0.1061  0.0516  0.3172
  250loPI   C3A 3993   9.698  12.938   8.314 -0.1393  0.3940  0.0496
  250loPI   C4A 3994   9.646  12.871   7.817 -0.1067 -0.2720  0.0542
  250loPI   C5A 3995   9.313  12.774   7.534 -0.0866 -0.1241 -0.1249
  250loPI   C6A 3996   9.016  12.676   7.186  0.4495 -0.4946 -0.0938
  250loPI   C1B 3997   9.322  13.153   9.036  0.0880  0.2553 -0.1431
  250loPI   C2B 3998   9.434  13.345   8.564  0.3330 -0.1982 -0.0841
  250loPI   C3B 3999   9.323  13.355   8.119  0.1803  0.2281 -0.3317
  250loPI   C4B 4000   9.361  13.256   7.775 -0.3180 -0.2452 -0.1745
  251loPI    C1 4001   4.010  12.287   9.554 -0.1984 -0.2245 -0.0080
  251loPI    C2 4002   3.628  12.258   9.440 -0.2191  0.0412 -0.0139
  251loPI    C3 4003   3.750  12.575   9.651 -0.0506 -0.1546  0.1879
  251loPI   PO4 4004   4.155  12.279   9.339  0.0196  0.1019 -0.0267
  251loPI   GL1 4005   4.358  12.323   8.955  0.0260  0.3377 -0.4558
  251loPI   GL2 4006   4.364  12.701   8.979 -0.2933 -0.0815  0.0862
  251loPI   C1A 4007   4.155  12.298   8.529 -0.1712  0.1911 -0.1341
  251loPI   C2A 4008   4.074  12.344   8.149  0.4053 -0.0693 -0.4069
  251loPI   C3A 4009   4.022  12.274   7.649  0.1275 -0.0523 -0.1733
  251loPI   C4A 4010   4.294  12.348   7.296  0.1868 -0.0298 -0.1822
  251loPI   C5A 4011   4.084  12.664   6.916  0.0625 -0.0946 -0.0399
  251loPI   C6A 4012   4.089  13.074   6.782  0.0870  0.1720  0.3125
  251loPI   C1B 4013   4.492  12.660   8.505  0.1765 -0.0941 -0.1346
  251loPI   C2B 4014   4.518  12.639   8.024  0.0022 -0.1397  0.0770
  251loPI   C3B 4015   4.313  12.685   7.674 -0.0431  0.2624  0.1933
  251loPI   C4B 4016   3.960  12.707   7.370  0.1138 -0.0640  0.0123
  252loPI    C1 4017   4.857  15.335   9.992 -0.2027  0.3322 -0.0492
  252loPI    C2 4018   5.112  15.109  10.202 -0.0596  0.1475 -0.4138
  252loPI    C3 4019   4.936  15.424  10.374 -0.0478 -0.0752  0.0189
  252loPI   PO4 4020   4.930  15.267   9.703 -0.0810 -0.1121  0.0974
  252loPI   GL1 4021   4.825  15.332   9.400  0.0267 -0.0421 -0.1205
  252loPI   GL2 4022   4.661  15.235   9.241 -0.3258  0.0589  0.0354
  252loPI   C1A 4023   4.981  15.517   9.022 -0.1174 -0.2280 -0.1363
  252loPI   C2A 4024   4.860  15.534   8.668  0.0518  0.0542  0.1064
  252loPI   C3A 4025   4.959  15.484   8.211 -0.2099  0.4225 -0.0637
  252loPI   C4A 4026   5.226  15.437   7.862 -0.0997 -0.0529 -0.2850
  252loPI   C5A 4027   5.045  15.440   7.497  0.0618 -0.0107  0.2027
  252loPI   C6A 4028   5.171  15.562   7.164 -0.0240  0.0264  0.2358
  252loPI   C1B 4029   4.546  15.250   8.905 -0.2862  0.0441 -0.2111
  252loPI   C2B 4030   4.483  15.204   8.428  0.3069  0.2651 -0.0953
  252loPI   C3B 4031   4.443  15.467   8.041 -0.1067 -0.0453  0.0805
  252loPI   C4B 4032   4.423  15.545   7.581  0.1499 -0.0591  0.2123
  253loPI    C1 4033  18.642  14.299  10.190 -0.1713 -0.0883 -0.2197
  253loPI    C2 4034  18.571  14.518  10.517 -0.0788  0.0701 -0.3044
  253loPI    C3 4035  18.382  14.169  10.465  0.3397 -0.2467  0.2048
  253loPI   PO4 4036  18.808  14.392  10.080  0.0224  0.0038  0.0286
  253loPI   GL1 4037  18.884  14.621   9.702  0.0030 -0.2130 -0.1108
  253loPI   GL2 4038  19.217  14.768   9.614  0.1218 -0.1724 -0.2595
  253loPI   C1A 4039  18.727  14.763   9.367  0.2534  0.0824  0.1190
  253loPI   C2A 4040  18.749  14.896   8.899  0.0389 -0.0007 -0.1682
  253loPI   C3A 4041  18.963  14.784   8.504  0.0854  0.0862 -0.0913
  253loPI   C4A 4042  19.151  15.019   8.255 -0.1739  0.0978 -0.2306
  253loPI   C5A 4043  19.320  15.255   7.944 -0.1832 -0.0259  0.1718
  253loPI   C6A 4044  19.271  15.646   7.672  0.0041  0.0253 -0.0586
  253loPI   C1B 4045  19.305  14.641   9.283 -0.1780  0.0720 -0.1011
  253loPI   C2B 4046  19.548  14.350   8.949 -0.1772  0.2613  0.4237
  253loPI   C3B 4047  19.512  14.133   8.415 -0.2251 -0.0036  0.1562
  253loPI   C4B 4048  19.432  14.047   8.027  0.0295  0.0194  0.0565
  254loPI    C1 4049  12.361   3.985   9.363  0.2612  0.0527  0.2302
  254loPI    C2 4050  12.332   4.293   9.109  0.0082 -0.0329  0.1518
  254loPI    C3 4051  12.503   4.344   9.467  0.2271  0.1265  0.0271
  254loPI   PO4 4052  12.433   3.741   9.190 -0.0961 -0.0631  0.1311
  254loPI   GL1 4053  12.330   3.360   8.969 -0.1265  0.1652 -0.1256
  254loPI   GL2 4054  12.281   3.046   8.967 -0.1305 -0.0859  0.2529
  254loPI   C1A 4055  11.952   3.505   8.650 -0.4597 -0.1284 -0.1976
  254loPI   C2A 4056  11.817   3.477   8.175  0.0748 -0.3211 -0.2423
  254loPI   C3A 4057  11.654   3.511   7.746  0.1586  0.0247  0.1632
  254loPI   C4A 4058  11.579   3.489   7.325  0.3682  0.1270  0.3007
  254loPI   C5A 4059  11.593   3.469   6.904  0.3669  0.1315 -0.2180
  254loPI   C6A 4060  11.421   3.059   6.711  0.1836 -0.1043  0.0140
  254loPI   C1B 4061  12.237   3.034   8.504 -0.2366  0.0169  0.0945
  254loPI   C2B 4062  12.164   2.892   8.036 -0.2419  0.1104 -0.1804
  254loPI   C3B 4063  12.369   3.061   7.656  0.0187  0.0178 -0.0350
  254loPI   C4B 4064  12.356   3.217   7.268  0.0723 -0.2111 -0.1807
  255loPI    C1 4065  13.212  10.812   9.759  0.1409 -0.1112  0.1565
  255loPI    C2 4066  12.941  10.671  10.018 -0.0505  0.1885  0.1240
  255loPI    C3 4067  13.320  10.725  10.134 -0.0958  0.1540  0.2894
  255loPI   PO4 4068  13.078  10.956   9.570  0.0393  0.1931 -0.2143
  255loPI   GL1 4069  12.837  10.975   9.234  0.1366 -0.1067  0.1166
  255loPI   GL2 4070  12.761  10.665   9.119  0.0904 -0.3525 -0.0784
  255loPI   C1A 4071  12.899  11.163   8.802  0.0266 -0.1421 -0.1293
  255loPI   C2A 4072  12.988  11.134   8.341  0.1217 -0.3041  0.1964
  255loPI   C3A 4073  12.995  10.858   8.131  0.2072  0.1359  0.0803
  255loPI   C4A 4074  13.060  10.635   7.876 -0.1916  0.1431  0.1052
  255loPI   C5A 4075  13.138  10.323   7.525 -0.1541  0.0841 -0.0400
  255loPI   C6A 4076  13.074  10.091   7.292  0.1750 -0.0577 -0.0648
  255loPI   C1B 4077  12.897  10.652   8.636  0.1897  0.0181  0.0066
  255loPI   C2B 4078  12.847  10.396   8.220 -0.0228 -0.3122  0.3578
  255loPI   C3B 4079  12.744  10.127   7.845  0.1700  0.0794 -0.4436
  255loPI   C4B 4080  12.637   9.942   7.501 -0.2095 -0.0391 -0.2175
  256loPI    C1 4081  15.749   7.312   9.557  0.0045  0.2712 -0.0554
  256loPI    C2 4082  15.426   7.077   9.559 -0.0091  0.2905  0.1072
  256loPI    C3 4083  15.665   7.092   9.880  0.0943  0.3571  0.0275
  256loPI   PO4 4084  15.675   7.361   9.208  0.0086  0.0695 -0.1918
  256loPI   GL1 4085  15.826   7.240   8.735  0.0252 -0.1522  0.3441
  256loPI   GL2 4086  15.775   7.602   8.801  0.0118  0.1378  0.3377
  256loPI   C1A 4087  15.569   7.008   8.460 -0.0307 -0.3349  0.3329
  256loPI   C2A 4088  15.424   7.129   8.075 -0.1158  0.4269  0.0169
  256loPI   C3A 4089  15.477   7.230   7.798 -0.0007  0.2032  0.0546
  256loPI   C4A 4090  15.536   7.247   7.438  0.4899  0.0755 -0.1405
  256loPI   C5A 4091  15.408   7.153   7.040  0.2282 -0.1811 -0.0152
  256loPI   C6A 4092  15.268   6.912   6.612  0.1241  0.2191  0.0763
  256loPI   C1B 4093  15.691   7.522   8.367 -0.0118 -0.1231 -0.0238
  256loPI   C2B 4094  15.777   7.698   7.902 -0.2785  0.2457  0.1935
  256loPI   C3B 4095  15.543   7.709   7.543  0.0394  0.0945  0.0793
  256loPI   C4B 4096  15.323   7.707   7.259 -0.1611  0.3986  0.2168
  257loPI    C1 4097   9.466  10.858  10.353  0.2613  0.2902 -0.0441
  257loPI    C2 4098   9.334  11.148  10.594  0.1357  0.1608  0.0447
  257loPI    C3 4099   9.717  11.033  10.609  0.1333  0.1674  0.1682
  257loPI   PO4 4100   9.366  10.809  10.139 -0.5035 -0.2639 -0.5421
  257loPI   GL1 4101   9.325  10.829   9.649  0.1833  0.1305  0.0679
  257loPI   GL2 4102   9.320  11.111   9.625  0.1833 -0.4363 -0.2119
  257loPI   C1A 4103   9.259  10.734   9.199 -0.0371  0.0520  0.1250
  257loPI   C2A 4104   9.223  10.724   8.809 -0.2368  0.1454  0.2782
  257loPI   C3A 4105   9.318  10.931   8.312 -0.2260  0.0221 -0.2740
  257loPI   C4A 4106   9.309  11.023   7.896 -0.0520  0.0277 -0.0135
  257loPI   C5A 4107   9.428  10.693   7.588 -0.1197 -0.2570  0.0785
  257loPI   C6A 4108   9.259  10.321   7.350 -0.1451  0.3455 -0.0835
  257loPI   C1B 4109   9.450  11.225   9.180 -0.1059  0.2780 -0.0095
  257loPI   C2B 4110   9.344  11.180   8.773 -0.3036 -0.1397  0.3359
  257loPI   C3B 4111   9.007  11.272   8.458 -0.3486  0.0781  0.1362
  257loPI   C4B 4112   9.156  11.532   8.021 -0.1402 -0.0888  0.1408
  258loPI    C1 4113   1.166   5.281  10.043  0.1641 -0.0948  0.0297
  258loPI    C2 4114   0.837   5.421  10.223  0.1469 -0.1167  0.0153
  258loPI    C3 4115   1.198   5.510  10.370  0.1361 -0.0569  0.0062
  258loPI   PO4 4116   1.171   5.358   9.823  0.2184 -0.0500  0.1729
  258loPI   GL1 4117   1.103   5.279   9.405 -0.1855  0.3252  0.0924
  258loPI   GL2 4118   1.000   5.686   9.255 -0.0157  0.0578 -0.1884
  258loPI   C1A 4119   1.177   5.143   9.004 -0.0709  0.0352  0.1452
  258loPI   C2A 4120   1.013   5.024   8.472 -0.2112 -0.1905 -0.0673
  258loPI   C3A 4121   1.169   4.950   8.123 -0.4169  0.0252 -0.1121
  258loPI   C4A 4122   1.115   4.961   7.688 -0.0118 -0.2101  0.0118
  258loPI   C5A 4123   1.160   4.639   7.458  0.0394 -0.1157  0.3157
  258loPI   C6A 4124   1.171   4.296   7.793  0.2184  0.2116  0.0449
  258loPI   C1B 4125   1.074   5.700   8.802 -0.0027  0.5009 -0.0994
  258loPI   C2B 4126   1.122   5.564   8.400 -0.3545  0.0773  0.0247
  258loPI   C3B 4127   1.164   5.517   7.963  0.0245  0.2959 -0.2710
  258loPI   C4B 4128   1.229   5.615   7.440 -0.0192  0.0715 -0.1991
  259loPI    C1 4129  11.555   9.406   9.820  0.1490  0.3003  0.0974
  259loPI    C2 4130  11.184   9.255   9.815  0.2251  0.1115  0.0681
  259loPI    C3 4131  11.439   9.148  10.104  0.2608  0.2322  0.0818
  259loPI   PO4 4132  11.613   9.659   9.772  0.0240  0.4009  0.2805
  259loPI   GL1 4133  11.793   9.962   9.636  0.3224  0.2354 -0.0237
  259loPI   GL2 4134  11.594  10.197   9.402 -0.0735 -0.2133  0.0156
  259loPI   C1A 4135  11.995  10.010   9.208 -0.1210 -0.1004 -0.1904
  259loPI   C2A 4136  12.086  10.151   8.778 -0.0249 -0.2747  0.1356
  259loPI   C3A 4137  11.997   9.880   8.321  0.1616  0.1922  0.2231
  259loPI   C4A 4138  12.030   9.805   7.873 -0.0968  0.0306  0.0654
  259loPI   C5A 4139  12.045   9.856   7.458  0.0091 -0.0028 -0.0841
  259loPI   C6A 4140  12.291  10.105   7.138  0.2659 -0.0498  0.1126
  259loPI   C1B 4141  11.548  10.107   8.955 -0.2330 -0.1159  0.1241
  259loPI   C2B 4142  11.632  10.273   8.517 -0.0070 -0.1335 -0.1538
  259loPI   C3B 4143  11.781  10.385   8.125 -0.0898 -0.0101  0.0761
  259loPI   C4B 4144  11.895  10.649   7.717  0.0219  0.3569 -0.0967
  260loPI    C1 4145  13.565   7.116   9.905  0.0500 -0.0171  0.0150
  260loPI    C2 4146  13.390   6.991  10.242 -0.2805  0.1582 -0.0876
  260loPI    C3 4147  13.726   7.206  10.259 -0.3105  0.1899  0.1319
  260loPI   PO4 4148  13.559   6.951   9.791 -0.1707 -0.1792 -0.0979
  260loPI   GL1 4149  13.543   6.922   9.327  0.1195  0.2959  0.2373
  260loPI   GL2 4150  13.453   6.629   9.060  0.0687  0.0954  0.3292
  260loPI   C1A 4151  13.611   7.121   8.913 -0.1094  0.0493 -0.2251
  260loPI   C2A 4152  13.484   7.025   8.511 -0.2050 -0.0405 -0.2407
  260loPI   C3A 4153  13.374   7.146   8.104  0.1466  0.0305  0.4124
  260loPI   C4A 4154  13.266   6.974   7.614 -0.4151 -0.1996  0.0229
  260loPI   C5A 4155  13.449   6.834   7.191 -0.0431  0.0953  0.0223
  260loPI   C6A 4156  13.632   6.970   6.838  0.0120 -0.1955 -0.0466
  260loPI   C1B 4157  13.048   6.618   8.875  0.1629 -0.0079 -0.1475
  260loPI   C2B 4158  12.705   6.816   8.742 -0.1521  0.4746 -0.1106
  260loPI   C3B 4159  12.529   7.122   8.472 -0.0140 -0.1146  0.0748
  260loPI   C4B 4160  12.301   7.136   8.139  0.0038  0.0326 -0.1517
  261loPI    C1 4161  13.757   9.279   9.905 -0.1263 -0.2235  0.0451
  261loPI    C2 4162  14.090   9.295  10.126 -0.1967 -0.2601  0.1548
  261loPI    C3 4163  13.805   9.572  10.174 -0.1043 -0.1245 -0.0660
  261loPI   PO4 4164  13.809   9.306   9.691 -0.0550 -0.3447  0.1668
  261loPI   GL1 4165  14.048   9.264   9.290  0.0825 -0.2722  0.2643
  261loPI   GL2 4166  13.925   8.900   9.271 -0.1224  0.1412 -0.0808
  261loPI   C1A 4167  14.343   9.233   8.960  0.1756  0.2315 -0.0429
  261loPI   C2A 4168  14.485   9.283   8.540  0.1828  0.1520  0.0111
  261loPI   C3A 4169  14.424   9.434   8.144  0.0004  0.2222  0.1120
  261loPI   C4A 4170  14.350   9.406   7.699  0.2240 -0.2677  0.2168
  261loPI   C5A 4171  14.453   9.099   7.315  0.1493 -0.4170 -0.3012
  261loPI   C6A 4172  14.555   8.672   7.206 -0.1178  0.0350  0.0359
  261loPI   C1B 4173  13.804   9.150   8.917  0.2752 -0.0116  0.2396
  261loPI   C2B 4174  13.888   9.410   8.562  0.0681  0.1829  0.0328
  261loPI   C3B 4175  13.919   9.238   8.150  0.1536  0.0461  0.2253
  261loPI   C4B 4176  13.984   9.130   7.706  0.1682  0.1886 -0.0384
  262loPI    C1 4177  14.164  10.405   9.881 -0.1414  0.1159  0.2292
  262loPI    C2 4178  14.128  10.448  10.277 -0.1169 -0.0668  0.2524
  262loPI    C3 4179  14.489  10.470  10.106 -0.1264  0.0026  0.2412
  262loPI   PO4 4180  14.012  10.208   9.731  0.0222  0.1681  0.2462
  262loPI   GL1 4181  13.611  10.145   9.450  0.1780 -0.0544 -0.3138
  262loPI   GL2 4182  13.786  10.390   9.295  0.1441  0.0272  0.0480
  262loPI   C1A 4183  13.472  10.080   9.008  0.2206 -0.1132 -0.1761
  262loPI   C2A 4184  13.352  10.196   8.662  0.2632  0.2636 -0.3033
  262loPI   C3A 4185  13.420  10.390   8.160 -0.0987  0.0814  0.1398
  262loPI   C4A 4186  13.539  10.464   7.699 -0.3361 -0.1178 -0.1926
  262loPI   C5A 4187  13.832  10.426   7.487 -0.0151 -0.3219 -0.0365
  262loPI   C6A 4188  14.048  10.032   7.525 -0.1515  0.0798  0.3151
  262loPI   C1B 4189  13.939  10.305   8.884 -0.3755  0.2206 -0.2778
  262loPI   C2B 4190  13.901  10.398   8.390  0.5375  0.0862 -0.2249
  262loPI   C3B 4191  13.922  10.205   8.101  0.0633  0.1759  0.1034
  262loPI   C4B 4192  13.893   9.777   7.877  0.3307  0.0816  0.2433
  263loPI    C1 4193   4.241   9.006   9.713  0.1100  0.0509  0.1487
  263loPI    C2 4194   4.310   8.952  10.104 -0.2003  0.1569  0.2205
  263loPI    C3 4195   3.959   8.842   9.945 -0.0552  0.0628 -0.0411
  263loPI   PO4 4196   4.429   8.967   9.601  0.0420  0.0842 -0.0953
  263loPI   GL1 4197   4.439   8.983   9.232 -0.2933  0.1458  0.2248
  263loPI   GL2 4198   4.388   9.266   9.073 -0.0134  0.0336 -0.0612
  263loPI   C1A 4199   4.478   8.789   8.807 -0.0868  0.4020  0.1844
  263loPI   C2A 4200   4.476   8.785   8.338  0.1525 -0.2992 -0.1646
  263loPI   C3A 4201   4.560   8.828   8.028 -0.1431 -0.1453 -0.0842
  263loPI   C4A 4202   4.597   8.850   7.580 -0.0365 -0.2515  0.5086
  263loPI   C5A 4203   4.500   9.001   7.237 -0.1253  0.5215  0.4377
  263loPI   C6A 4204   4.188   9.158   6.901 -0.3946 -0.3215  0.0343
  263loPI   C1B 4205   4.419   9.289   8.661 -0.0237 -0.0937  0.0339
  263loPI   C2B 4206   4.348   9.305   8.200 -0.0225  0.0210  0.0765
  263loPI   C3B 4207   4.224   9.181   7.872 -0.2557 -0.1935  0.2429
  263loPI   C4B 4208   4.071   9.167   7.400 -0.1684 -0.2323  0.0207
  264loPI    C1 4209  12.296  10.561  10.052 -0.1213 -0.1005  0.1248
  264loPI    C2 4210  12.459  10.838  10.290  0.1952 -0.2014  0.0308
  264loPI    C3 4211  12.204  10.570  10.441  0.0519  0.0072  0.1647
  264loPI   PO4 4212  12.505  10.536   9.876  0.0760  0.2058 -0.1303
  264loPI   GL1 4213  12.452  10.182   9.560  0.0665  0.2367 -0.0047
  264loPI   GL2 4214  12.424   9.837   9.364 -0.2952 -0.2458 -0.0293
  264loPI   C1A 4215  12.373  10.345   9.094  0.0168 -0.0254 -0.1520
  264loPI   C2A 4216  12.397  10.607   8.740  0.3315 -0.0292  0.0966
  264loPI   C3A 4217  12.492  10.836   8.310 -0.0694 -0.0483 -0.0045
  264loPI   C4A 4218  12.590  10.794   7.875 -0.2019  0.2701  0.1504
  264loPI   C5A 4219  12.559  10.963   7.401  0.0802  0.0943  0.3083
  264loPI   C6A 4220  12.370  10.726   7.067  0.0780 -0.1076 -0.0121
  264loPI   C1B 4221  12.553   9.682   8.993  0.4349 -0.1993 -0.3977
  264loPI   C2B 4222  12.361   9.772   8.656  0.0112 -0.0222 -0.0455
  264loPI   C3B 4223  12.496   9.811   8.169  0.0115  0.1619  0.2297
  264loPI   C4B 4224  12.557   9.534   7.826 -0.2702  0.0222  0.5027
  265loPI    C1 4225   2.741  13.898   9.859 -0.0959 -0.1399  0.0823
  265loPI    C2 4226   2.712  14.122  10.189 -0.1306 -0.2816  0.1765
  265loPI    C3 4227   2.524  13.769  10.169 -0.4159 -0.1184 -0.1273
  265loPI   PO4 4228   2.828  14.071   9.689  0.0039  0.1058  0.1491
  265loPI   GL1 4229   2.600  14.206   9.190 -0.0808  0.4811 -0.0898
  265loPI   GL2 4230   2.735  14.379   9.018  0.1459 -0.1583  0.4097
  265loPI   C1A 4231   2.662  13.899   8.892 -0.0162  0.1211  0.0394
  265loPI   C2A 4232   2.507  13.886   8.458 -0.0876  0.3029 -0.0360
  265loPI   C3A 4233   2.484  13.764   7.969 -0.0749  0.2009  0.0112
  265loPI   C4A 4234   2.316  13.925   7.559  0.3560 -0.2961 -0.0173
  265loPI   C5A 4235   1.925  14.082   7.454  0.0107  0.0270  0.0032
  265loPI   C6A 4236   1.583  14.298   7.241 -0.1512 -0.0756  0.1389
  265loPI   C1B 4237   2.691  14.284   8.622 -0.1601  0.1412  0.1621
  265loPI   C2B 4238   2.542  14.362   8.247  0.1610 -0.0663  0.1696
  265loPI   C3B 4239   2.643  14.206   7.891 -0.0541  0.0061 -0.4849
  265loPI   C4B 4240   2.763  14.042   7.555 -0.2225  0.0722  0.1054
  266loPI    C1 4241   0.914  18.421  10.158  0.0052  0.2112 -0.1567
  266loPI    C2 4242   0.938  18.820  10.143  0.2031  0.2129  0.1252
  266loPI    C3 4243   1.189  18.613  10.376  0.1069 -0.0784 -0.0247
  266loPI   PO4 4244   0.918  18.323   9.931  0.3237  0.2541 -0.3727
  266loPI   GL1 4245   1.136  18.305   9.540  0.1999  0.1261 -0.3183
  266loPI   GL2 4246   1.300  18.152   9.306  0.2596  0.0098 -0.1093
  266loPI   C1A 4247   0.971  18.567   9.165  0.2658 -0.1513 -0.1665
  266loPI   C2A 4248   1.006  18.561   8.789  0.1819  0.0539 -0.2017
  266loPI   C3A 4249   0.909  18.647   8.371  0.0192  0.1223  0.2250
  266loPI   C4A 4250   0.916  18.873   8.001  0.0569 -0.1125  0.2656
  266loPI   C5A 4251   0.997  18.955   7.651  0.0737 -0.0017  0.0832
  266loPI   C6A 4252   0.843  19.010   7.225  0.2024  0.0760 -0.1648
  266loPI   C1B 4253   1.262  18.059   8.898 -0.2105  0.2641 -0.2542
  266loPI   C2B 4254   1.465  18.200   8.638  0.1053 -0.1089  0.0130
  266loPI   C3B 4255   1.609  17.981   8.315 -0.1699 -0.1882  0.4274
  266loPI   C4B 4256   1.584  17.733   7.897 -0.5458 -0.2322  0.4279
  267loPI    C1 4257   8.059  18.174   9.944  0.2875 -0.1506 -0.2246
  267loPI    C2 4258   8.112  17.835  10.149  0.0239  0.1003  0.2782
  267loPI    C3 4259   8.325  18.160  10.242 -0.0081  0.1843  0.0642
  267loPI   PO4 4260   7.973  18.226   9.725 -0.2607 -0.1436  0.1508
  267loPI   GL1 4261   8.132  18.296   9.308  0.3216 -0.0545  0.1750
  267loPI   GL2 4262   8.121  18.017   9.249 -0.0952  0.4824  0.1125
  267loPI   C1A 4263   8.426  18.453   8.993  0.1870  0.0099  0.4415
  267loPI   C2A 4264   8.450  18.480   8.579  0.1088 -0.4068 -0.1541
  267loPI   C3A 4265   8.400  18.483   8.181 -0.2847  0.3445 -0.3160
  267loPI   C4A 4266   8.474  18.431   7.709  0.1674 -0.1188 -0.2431
  267loPI   C5A 4267   8.674  18.509   7.316 -0.2417  0.2744  0.2541
  267loPI   C6A 4268   9.114  18.620   7.074  0.0072 -0.0661 -0.1537
  267loPI   C1B 4269   8.148  18.048   8.831  0.3612  0.1814  0.2250
  267loPI   C2B 4270   8.065  18.147   8.387 -0.1526 -0.1114 -0.0627
  267loPI   C3B 4271   7.973  18.164   7.924 -0.1332  0.0727 -0.2231
  267loPI   C4B 4272   7.940  18.169   7.449 -0.1389  0.0156  0.2613
  268loPI    C1 4273   7.071  15.654   9.581 -0.0387  0.1445 -0.0050
  268loPI    C2 4274   7.358  15.681   9.858 -0.0703  0.2561  0.0173
  268loPI    C3 4275   6.974  15.669   9.968 -0.0736  0.0696 -0.0105
  268loPI   PO4 4276   7.161  15.774   9.427  0.1066 -0.0145  0.0132
  268loPI   GL1 4277   7.251  16.006   8.991  0.0253 -0.3479 -0.0628
  268loPI   GL2 4278   7.133  15.712   8.967 -0.0727 -0.1712 -0.0508
  268loPI   C1A 4279   7.433  16.062   8.693  0.1210 -0.2056  0.2883
  268loPI   C2A 4280   7.359  16.290   8.219  0.0018  0.0273 -0.0626
  268loPI   C3A 4281   7.424  16.180   7.781  0.0245 -0.2696  0.2045
  268loPI   C4A 4282   7.470  16.354   7.434 -0.2714 -0.1045 -0.1246
  268loPI   C5A 4283   7.499  16.625   7.235  0.2213 -0.1659 -0.0537
  268loPI   C6A 4284   7.554  16.962   7.058 -0.1066 -0.3716  0.0311
  268loPI   C1B 4285   7.082  15.805   8.449  0.0409 -0.1452  0.1845
  268loPI   C2B 4286   6.905  16.030   8.041  0.0232  0.4010 -0.3813
  268loPI   C3B 4287   6.805  16.092   7.628  0.0282 -0.2510 -0.1228
  268loPI   C4B 4288   6.576  16.020   7.225 -0.1502  0.3017  0.1119
  269loPI    C1 4289   6.146  12.145   9.801 -0.0163  0.0692 -0.0887
  269loPI    C2 4290   6.192  11.947  10.145  0.1255  0.1254 -0.0746
  269loPI    C3 4291   5.825  12.013  10.000  0.0752 -0.1072 -0.0567
  269loPI   PO4 4292   6.259  12.039   9.636 -0.2377 -0.1537 -0.3228
  269loPI   GL1 4293   6.445  11.951   9.330  0.1308 -0.3698 -0.0382
  269loPI   GL2 4294   6.539  12.251   9.243  0.0020 -0.2027  0.4493
  269loPI   C1A 4295   6.635  11.965   8.822  0.0824  0.0886  0.1226
  269loPI   C2A 4296   6.861  11.976   8.458  0.0676 -0.1464 -0.1619
  269loPI   C3A 4297   6.803  12.088   8.068  0.0714 -0.1395 -0.0995
  269loPI   C4A 4298   6.504  12.138   7.719 -0.2666  0.2830 -0.1451
  269loPI   C5A 4299   6.189  12.209   7.312  0.0966  0.0883  0.0706
  269loPI   C6A 4300   5.943  12.010   7.054 -0.1800  0.2075 -0.0220
  269loPI   C1B 4301   6.292  12.381   8.782 -0.2640  0.0164 -0.0136
  269loPI   C2B 4302   6.539  12.395   8.428  0.1796  0.1665 -0.2875
  269loPI   C3B 4303   6.770  12.608   8.147  0.1297  0.0761  0.0571
  269loPI   C4B 4304   7.008  12.546   7.812  0.0452  0.2721  0.0281
  270loPI    C1 4305  13.464   1.078   9.883  0.5195 -0.2391 -0.3906
  270loPI    C2 4306  13.545   1.415   9.682  0.0388  0.0593 -0.1052
  270loPI    C3 4307  13.637   1.386  10.071 -0.2392 -0.0015 -0.0420
  270loPI   PO4 4308  13.107   1.063   9.940 -0.3363 -0.2887  0.1048
  270loPI   GL1 4309  12.745   1.064   9.493  0.0917  0.1440 -0.0510
  270loPI   GL2 4310  13.109   1.066   9.414 -0.0931 -0.0398  0.3426
  270loPI   C1A 4311  12.629   0.971   9.116  0.2705 -0.0728  0.2557
  270loPI   C2A 4312  12.529   1.230   8.760 -0.0702  0.1976 -0.0827
  270loPI   C3A 4313  12.572   1.567   8.623 -0.0219  0.2071 -0.0113
  270loPI   C4A 4314  12.687   1.575   8.309  0.2969  0.0961 -0.0625
  270loPI   C5A 4315  12.716   1.977   8.056 -0.0311  0.4746 -0.0358
  270loPI   C6A 4316  12.597   2.141   7.638  0.0225 -0.3587 -0.0702
  270loPI   C1B 4317  13.107   0.888   9.028  0.0884  0.0591  0.1917
  270loPI   C2B 4318  12.904   0.822   8.588 -0.2886  0.1560 -0.3955
  270loPI   C3B 4319  12.519   0.996   8.324 -0.1215  0.2105  0.0755
  270loPI   C4B 4320  12.274   1.358   8.159 -0.0644  0.4005 -0.2649
  271loPI    C1 4321   5.067   0.207  10.020 -0.0675  0.3072  0.3770
  271loPI    C2 4322   5.364  -0.051  10.095 -0.2127  0.0127 -0.0256
  271loPI    C3 4323   5.427   0.343  10.132  0.1084 -0.0616  0.2739
  271loPI   PO4 4324   4.994   0.114   9.731 -0.0122 -0.0880  0.2874
  271loPI   GL1 4325   5.072   0.232   9.210  0.1038  0.1348  0.0673
  271loPI   GL2 4326   4.681   0.152   9.201 -0.0532 -0.2623 -0.0907
  271loPI   C1A 4327   5.065  -0.024   8.719  0.0340 -0.2365  0.2308
  271loPI   C2A 4328   5.093   0.149   8.188  0.1814 -0.0986 -0.2151
  271loPI   C3A 4329   5.188   0.124   7.730 -0.0455  0.1740 -0.0290
  271loPI   C4A 4330   5.325   0.359   7.289  0.2826 -0.1307  0.1927
  271loPI   C5A 4331   5.170   0.363   6.981 -0.0634 -0.0413  0.2610
  271loPI   C6A 4332   4.924   0.184   6.628 -0.2141 -0.3304  0.2286
  271loPI   C1B 4333   4.615   0.231   8.852  0.3125  0.2484 -0.1088
  271loPI   C2B 4334   4.596   0.077   8.441  0.0754  0.3279  0.0854
  271loPI   C3B 4335   4.611  -0.044   8.047  0.1360 -0.0859  0.0864
  271loPI   C4B 4336   4.578  -0.070   7.638 -0.0594 -0.2595  0.2640
  272loPI    C1 4337   6.267  19.061   9.748 -0.0918  0.0425  0.2765
  272loPI    C2 4338   6.495  19.338   9.925 -0.0372  0.1307  0.0713
  272loPI    C3 4339   6.273  19.091  10.146  0.2803  0.0232  0.2763
  272loPI   PO4 4340   6.378  19.157   9.434  0.0779  0.0838  0.0085
  272loPI   GL1 4341   6.369  19.367   8.937 -0.0226  0.5534  0.3314
  272loPI   GL2 4342   6.116  19.687   8.957 -0.0594  0.0101 -0.0011
  272loPI   C1A 4343   6.429  19.168   8.633  0.3454  0.0664 -0.0338
  272loPI   C2A 4344   6.484  19.099   8.205  0.3138  0.1215 -0.0038
  272loPI   C3A 4345   6.275  18.972   7.828 -0.1338  0.0708 -0.0393
  272loPI   C4A 4346   6.099  18.808   7.554 -0.3224 -0.2867 -0.0085
  272loPI   C5A 4347   6.152  18.380   7.222  0.2554  0.1995  0.1339
  272loPI   C6A 4348   6.174  17.963   6.975  0.0008  0.2024  0.1544
  272loPI   C1B 4349   6.291  19.696   8.522  0.0387  0.0127  0.2258
  272loPI   C2B 4350   6.194  19.665   8.171  0.1380 -0.1784 -0.0080
  272loPI   C3B 4351   6.227  19.467   7.713 -0.1952 -0.2821 -0.3590
  272loPI   C4B 4352   6.255  19.246   7.421 -0.0499  0.1748  0.1620
  273loPI    C1 4353  16.560   2.251   9.805 -0.0552 -0.0275 -0.1181
  273loPI    C2 4354  16.873   2.489   9.880  0.0507 -0.1393 -0.2028
  273loPI    C3 4355  16.504   2.606   9.982  0.1485 -0.1259  0.1496
  273loPI   PO4 4356  16.668   2.157   9.488  0.0074 -0.3818 -0.0698
  273loPI   GL1 4357  16.400   1.955   9.301 -0.0543 -0.0792  0.2324
  273loPI   GL2 4358  16.041   2.041   9.247 -0.1688  0.0952 -0.1283
  273loPI   C1A 4359  16.523   1.979   8.824 -0.4583 -0.0096 -0.1629
  273loPI   C2A 4360  16.669   1.957   8.391  0.1846 -0.1884 -0.1167
  273loPI   C3A 4361  16.965   2.240   8.308  0.1092  0.0859 -0.1907
  273loPI   C4A 4362  17.421   2.360   8.346  0.3941  0.0621 -0.1340
  273loPI   C5A 4363  17.775   2.391   8.049 -0.3385 -0.1006 -0.1903
  273loPI   C6A 4364  18.075   2.051   7.953 -0.1465 -0.3587  0.0683
  273loPI   C1B 4365  16.063   1.778   8.939  0.0223  0.0326 -0.4242
  273loPI   C2B 4366  15.951   1.546   8.526 -0.0270 -0.6000  0.0602
  273loPI   C3B 4367  16.088   1.452   8.024 -0.1568  0.0902  0.0068
  273loPI   C4B 4368  15.991   1.333   7.626  0.0296 -0.1774 -0.1774
  274loPI    C1 4369  13.794   8.727   9.968  0.2291 -0.0263  0.1238
  274loPI    C2 4370  13.638   8.581  10.306  0.0486 -0.0936  0.0136
  274loPI    C3 4371  13.616   8.973  10.228  0.0471 -0.0850  0.0564
  274loPI   PO4 4372  13.755   8.565   9.773  0.1462  0.3761 -0.3456
  274loPI   GL1 4373  13.547   8.508   9.325 -0.0502  0.1355  0.1184
  274loPI   GL2 4374  13.306   8.609   9.390  0.0935 -0.1418 -0.1375
  274loPI   C1A 4375  13.519   8.710   8.945  0.0251  0.0135 -0.3102
  274loPI   C2A 4376  13.446   8.548   8.547  0.0797 -0.0629  0.2235
  274loPI   C3A 4377  13.530   8.602   8.130 -0.0043 -0.1149 -0.0478
  274loPI   C4A 4378  13.648   8.743   7.866 -0.1636  0.1277 -0.1137
  274loPI   C5A 4379  13.599   8.888   7.495 -0.1083 -0.2907  0.0503
  274loPI   C6A 4380  13.289   9.098   7.398 -0.1941 -0.1705 -0.0376
  274loPI   C1B 4381  13.101   8.353   8.968  0.1205 -0.2017 -0.4002
  274loPI   C2B 4382  12.985   7.983   8.952 -0.2666  0.0949  0.4098
  274loPI   C3B 4383  12.862   7.555   9.124 -0.0431  0.0123 -0.1166
  274loPI   C4B 4384  12.515   7.262   8.987  0.0314  0.1101 -0.0699
  275loPI    C1 4385  16.654  15.855  10.441 -0.0510 -0.0298 -0.0633
  275loPI    C2 4386  16.819  16.208  10.531 -0.0113 -0.0402 -0.0947
  275loPI    C3 4387  16.438  16.190  10.411  0.0551  0.0184 -0.3189
  275loPI   PO4 4388  16.822  15.775  10.192  0.3246 -0.0017 -0.3066
  275loPI   GL1 4389  16.930  15.460   9.875 -0.0423 -0.0615  0.5082
  275loPI   GL2 4390  16.697  15.221   9.947  0.0046  0.2883  0.1239
  275loPI   C1A 4391  17.313  15.515   9.525 -0.3831  0.3654 -0.0208
  275loPI   C2A 4392  17.412  15.295   9.072  0.2045 -0.2693 -0.0846
  275loPI   C3A 4393  17.375  15.012   8.750  0.0921 -0.1599  0.0795
  275loPI   C4A 4394  17.517  14.856   8.390  0.0921 -0.1915  0.0340
  275loPI   C5A 4395  17.835  14.719   8.112 -0.1376 -0.0352 -0.2561
  275loPI   C6A 4396  17.678  14.655   7.656  0.2200  0.2303  0.3770
  275loPI   C1B 4397  16.582  15.332   9.577  0.1293 -0.1655 -0.1814
  275loPI   C2B 4398  16.898  15.344   9.233 -0.1597 -0.1014 -0.1971
  275loPI   C3B 4399  16.924  15.327   8.772  0.0922  0.3922  0.1963
  275loPI   C4B 4400  17.312  15.425   8.525 -0.0242 -0.0404  0.0597
  276loPI    C1 4401   3.108   3.874   9.863  0.1087 -0.0059  0.0207
  276loPI    C2 4402   3.210   3.509   9.990 -0.1056 -0.0808 -0.0184
  276loPI    C3 4403   2.927   3.716  10.182  0.0940  0.1130  0.0716
  276loPI   PO4 4404   3.178   3.881   9.567  0.2389  0.0362  0.1828
  276loPI   GL1 4405   2.727   3.801   9.306 -0.1115  0.0393  0.3119
  276loPI   GL2 4406   2.515   3.447   9.363 -0.2279 -0.3158  0.4089
  276loPI   C1A 4407   2.461   3.715   8.922 -0.1358  0.0410  0.1434
  276loPI   C2A 4408   2.331   3.496   8.511 -0.0871  0.1081  0.3821
  276loPI   C3A 4409   2.345   3.551   8.068  0.0266  0.1301 -0.3100
  276loPI   C4A 4410   2.229   3.519   7.685 -0.1567 -0.0725 -0.0853
  276loPI   C5A 4411   1.787   3.635   7.428  0.1894 -0.0908 -0.0636
  276loPI   C6A 4412   1.669   3.278   7.030 -0.2042 -0.1147  0.0240
  276loPI   C1B 4413   2.710   3.278   8.928 -0.2017  0.0852 -0.0232
  276loPI   C2B 4414   2.910   3.394   8.528  0.1657  0.1085  0.2375
  276loPI   C3B 4415   3.141   3.539   8.204  0.2240  0.1891 -0.1206
  276loPI   C4B 4416   3.278   3.781   7.775  0.1381 -0.1255 -0.1143
  277loPI    C1 4417   6.790  10.419   9.972  0.1971 -0.1454 -0.0501
  277loPI    C2 4418   6.651  10.045  10.008 -0.1206 -0.0298 -0.0481
  277loPI    C3 4419   6.931  10.179  10.260 -0.2602 -0.1539  0.1764
  277loPI   PO4 4420   6.916  10.433   9.761 -0.0056 -0.0743 -0.2004
  277loPI   GL1 4421   7.030  10.185   9.366  0.1484  0.2422 -0.1250
  277loPI   GL2 4422   6.806  10.301   9.065  0.3305 -0.0627  0.0287
  277loPI   C1A 4423   7.347  10.199   9.010 -0.4596  0.1160  0.2156
  277loPI   C2A 4424   7.391  10.443   8.456  0.1640  0.1007 -0.3239
  277loPI   C3A 4425   7.396  10.481   8.082 -0.1788  0.0062  0.0222
  277loPI   C4A 4426   7.633  10.249   7.713  0.2245 -0.3567 -0.0222
  277loPI   C5A 4427   7.840   9.883   7.462  0.1581 -0.0990  0.0493
  277loPI   C6A 4428   7.945   9.598   7.320  0.0580  0.3136  0.2580
  277loPI   C1B 4429   6.956  10.191   8.653 -0.3486 -0.1428 -0.0798
  277loPI   C2B 4430   7.132  10.111   8.193  0.0562 -0.2623  0.0569
  277loPI   C3B 4431   7.426   9.848   7.946 -0.3383 -0.2550 -0.1040
  277loPI   C4B 4432   7.496   9.505   7.573 -0.1778 -0.0308  0.0157
  278loPI    C1 4433  11.617   5.275   9.461  0.0997  0.0091 -0.2689
  278loPI    C2 4434  11.881   5.395   9.737 -0.1521  0.0330 -0.0339
  278loPI    C3 4435  11.760   5.014   9.729 -0.4187  0.1118  0.1236
  278loPI   PO4 4436  11.708   5.493   9.214  0.0770 -0.0067  0.2383
  278loPI   GL1 4437  11.802   5.915   8.932  0.0858 -0.1005 -0.3389
  278loPI   GL2 4438  11.492   6.196   8.863  0.1751 -0.2675 -0.4707
  278loPI   C1A 4439  11.760   5.751   8.533 -0.0578  0.0749  0.1687
  278loPI   C2A 4440  11.885   5.830   8.147 -0.4690  0.2578  0.1352
  278loPI   C3A 4441  12.029   5.866   7.741  0.1503 -0.1439  0.3597
  278loPI   C4A 4442  12.046   5.902   7.319 -0.0249 -0.1511  0.4089
  278loPI   C5A 4443  12.363   6.001   6.962  0.0482  0.0747  0.0878
  278loPI   C6A 4444  12.745   5.945   6.761  0.0869 -0.1177  0.1507
  278loPI   C1B 4445  11.370   6.105   8.478  0.2018 -0.2596 -0.1723
  278loPI   C2B 4446  11.343   6.007   8.096  0.0944  0.2550  0.1213
  278loPI   C3B 4447  11.485   6.074   7.574  0.0068  0.3091 -0.2481
  278loPI   C4B 4448  11.526   5.909   7.123 -0.0554 -0.0493  0.0572
  279loPI    C1 4449   9.644   1.418   9.428  0.0066 -0.0787 -0.2932
  279loPI    C2 4450   9.413   1.245   9.705  0.2056  0.0483 -0.0447
  279loPI    C3 4451   9.248   1.392   9.372 -0.0450 -0.0452  0.0357
  279loPI   PO4 4452   9.846   1.332   9.451  0.2659  0.0271 -0.1292
  279loPI   GL1 4453  10.088   1.043   9.256  0.4430 -0.1424 -0.1504
  279loPI   GL2 4454  10.196   1.446   9.158  0.2047  0.3096  0.3101
  279loPI   C1A 4455  10.109   0.832   8.900  0.0059 -0.5267 -0.4483
  279loPI   C2A 4456  10.200   0.928   8.565  0.0066 -0.1545  0.0184
  279loPI   C3A 4457  10.084   1.043   8.191  0.3755  0.0079  0.0842
  279loPI   C4A 4458  10.052   1.364   7.951  0.3301  0.1953 -0.1227
  279loPI   C5A 4459   9.917   1.486   7.478 -0.1261 -0.1056 -0.2865
  279loPI   C6A 4460   9.532   1.480   7.306  0.2919  0.2624  0.1429
  279loPI   C1B 4461  10.034   1.408   8.761 -0.2432  0.2007  0.0623
  279loPI   C2B 4462  10.010   1.649   8.484  0.0250  0.4354 -0.1877
  279loPI   C3B 4463  10.017   1.897   8.155 -0.2496 -0.1293 -0.0624
  279loPI   C4B 4464  10.112   1.830   7.780 -0.1855  0.1674 -0.0982
  280loPI    C1 4465  11.018  16.790   9.649 -0.1807  0.0085  0.2203
  280loPI    C2 4466  11.275  17.091   9.708 -0.1056 -0.0462  0.1752
  280loPI    C3 4467  11.214  16.821   9.997 -0.0339 -0.0920  0.1476
  280loPI   PO4 4468  10.949  16.843   9.368  0.1884 -0.0775 -0.1963
  280loPI   GL1 4469  11.021  17.258   9.290  0.0418 -0.2015 -0.1710
  280loPI   GL2 4470  11.103  17.568   9.141 -0.0724  0.3333 -0.4495
  280loPI   C1A 4471  11.502  17.183   9.072 -0.0889 -0.0204  0.1163
  280loPI   C2A 4472  11.661  17.212   8.687  0.0004  0.2098  0.1128
  280loPI   C3A 4473  11.739  17.158   8.232  0.1737 -0.1339  0.1029
  280loPI   C4A 4474  11.773  16.859   7.886  0.2081  0.1311 -0.0031
  280loPI   C5A 4475  11.741  16.652   7.466  0.0318  0.2639  0.0093
  280loPI   C6A 4476  11.537  16.383   7.233  0.1275  0.2057  0.2026
  280loPI   C1B 4477  11.125  17.251   8.753  0.1144 -0.0885 -0.0967
  280loPI   C2B 4478  11.228  17.208   8.419  0.3401  0.1009  0.0032
  280loPI   C3B 4479  11.332  17.019   8.014 -0.2380 -0.0744  0.1370
  280loPI   C4B 4480  11.288  16.728   7.676 -0.0373  0.0666  0.1054
  281loPI    C1 4481   4.800  11.937   9.913 -0.1008  0.0003  0.1343
  281loPI    C2 4482   4.962  11.573   9.937  0.0784  0.0746  0.0700
  281loPI    C3 4483   4.897  11.785  10.270 -0.0816 -0.0389  0.1125
  281loPI   PO4 4484   4.952  11.987   9.634  0.1423 -0.0022 -0.0580
  281loPI   GL1 4485   5.197  11.896   9.225 -0.0412 -0.2110 -0.1592
  281loPI   GL2 4486   5.511  11.954   9.247 -0.0784  0.2266 -0.0995
  281loPI   C1A 4487   4.832  11.896   8.977 -0.0379  0.0544 -0.3813
  281loPI   C2A 4488   4.739  11.765   8.517 -0.0427  0.1986  0.0415
  281loPI   C3A 4489   4.733  11.816   8.078 -0.1793  0.0084  0.0367
  281loPI   C4A 4490   4.863  11.787   7.636 -0.0445  0.2683 -0.2858
  281loPI   C5A 4491   5.201  11.871   7.325 -0.0833 -0.1487  0.1136
  281loPI   C6A 4492   5.442  12.154   7.227 -0.3078  0.1276 -0.0411
  281loPI   C1B 4493   5.387  12.110   8.782  0.1838  0.0309 -0.0033
  281loPI   C2B 4494   5.249  12.330   8.419  0.2167  0.0008  0.0165
  281loPI   C3B 4495   5.030  12.429   8.136 -0.1716 -0.3459 -0.1041
  281loPI   C4B 4496   4.903  12.781   7.749  0.2298  0.0497  0.0213
  282loPI    C1 4497  17.706  12.549  10.179  0.3177 -0.5552  0.2985
  282loPI    C2 4498  17.439  12.337  10.389 -0.2361  0.0352  0.2212
  282loPI    C3 4499  17.546  12.703  10.512  0.0145  0.0834 -0.1230
  282loPI   PO4 4500  17.642  12.600   9.939 -0.4249  0.1274  0.1897
  282loPI   GL1 4501  17.692  12.500   9.499  0.2044 -0.3324 -0.1701
  282loPI   GL2 4502  17.448  12.516   9.332  0.0691 -0.2210  0.4198
  282loPI   C1A 4503  17.894  12.420   9.076 -0.2020  0.0887  0.0989
  282loPI   C2A 4504  17.844  12.271   8.584 -0.5135 -0.1362  0.0514
  282loPI   C3A 4505  17.820  12.207   8.203 -0.0724  0.1594  0.1745
  282loPI   C4A 4506  17.919  12.285   7.832 -0.2220 -0.2304 -0.0582
  282loPI   C5A 4507  18.032  12.428   7.459 -0.2269 -0.3200  0.0138
  282loPI   C6A 4508  17.966  12.304   7.081  0.2814 -0.0101 -0.1558
  282loPI   C1B 4509  17.451  12.544   8.909 -0.1367 -0.1899 -0.0132
  282loPI   C2B 4510  17.202  12.842   8.684  0.0140 -0.1465  0.2074
  282loPI   C3B 4511  16.827  13.017   8.344  0.2071  0.0601  0.1921
  282loPI   C4B 4512  16.520  13.277   8.044 -0.3712  0.0448  0.1107
  283loPI    C1 4513   9.879   3.312  10.024 -0.0028  0.1762 -0.0357
  283loPI    C2 4514   9.550   3.131   9.884  0.1276  0.1264 -0.2833
  283loPI    C3 4515   9.529   3.506  10.021 -0.0733  0.0499 -0.1003
  283loPI   PO4 4516  10.021   3.246   9.820 -0.1541 -0.1762  0.1713
  283loPI   GL1 4517  10.067   3.383   9.464 -0.1378 -0.1860  0.1187
  283loPI   GL2 4518   9.692   3.400   9.494 -0.2738 -0.3945  0.3679
  283loPI   C1A 4519  10.047   3.306   8.992  0.0515 -0.1425 -0.1966
  283loPI   C2A 4520   9.996   3.394   8.495  0.0473 -0.0597 -0.1023
  283loPI   C3A 4521   9.910   3.371   8.125 -0.3247 -0.1148 -0.4587
  283loPI   C4A 4522   9.792   3.485   7.632  0.0891  0.1161 -0.0041
  283loPI   C5A 4523   9.733   3.386   7.195  0.0474 -0.0618  0.0775
  283loPI   C6A 4524   9.486   3.232   6.840  0.2902  0.0296 -0.0990
  283loPI   C1B 4525   9.478   3.195   9.183 -0.1030  0.0327  0.0058
  283loPI   C2B 4526   9.603   3.163   8.766  0.3386 -0.1095 -0.0786
  283loPI   C3B 4527   9.574   3.205   8.358  0.0440 -0.1064 -0.2365
  283loPI   C4B 4528   9.506   3.237   7.907  0.2339 -0.1351 -0.0713
  284loPI    C1 4529   6.809   7.144   9.550 -0.0229 -0.0539 -0.1027
  284loPI    C2 4530   7.136   7.244   9.756 -0.0605 -0.1866  0.0233
  284loPI    C3 4531   6.836   7.052   9.938 -0.2028 -0.0785 -0.0947
  284loPI   PO4 4532   6.843   7.197   9.325 -0.2276 -0.4020 -0.0132
  284loPI   GL1 4533   7.028   7.364   8.976  0.0549  0.0503  0.0144
  284loPI   GL2 4534   7.057   7.149   8.771  0.2956 -0.2976  0.1998
  284loPI   C1A 4535   6.562   7.437   8.852  0.4810  0.0848  0.1833
  284loPI   C2A 4536   6.380   7.741   8.557  0.0762  0.1935  0.3608
  284loPI   C3A 4537   6.364   8.010   8.116 -0.0173  0.1987 -0.0820
  284loPI   C4A 4538   6.260   8.162   7.734 -0.2042 -0.0038  0.0285
  284loPI   C5A 4539   5.960   8.133   7.341 -0.1946 -0.0798 -0.2745
  284loPI   C6A 4540   5.617   8.251   7.155  0.2516 -0.2113 -0.2647
  284loPI   C1B 4541   6.953   7.475   8.495 -0.0809  0.2556  0.0603
  284loPI   C2B 4542   6.712   7.557   8.148 -0.0578  0.2749 -0.0819
  284loPI   C3B 4543   6.878   7.864   7.901  0.3342  0.1464  0.1431
  284loPI   C4B 4544   7.149   7.971   7.523  0.3763 -0.0293  0.1623
  285loPI    C1 4545  17.775   9.066  10.041 -0.2339 -0.1024  0.0207
  285loPI    C2 4546  17.569   9.399  10.123 -0.2815 -0.1217 -0.0194
  285loPI    C3 4547  17.572   9.096  10.384 -0.1383 -0.0425  0.0722
  285loPI   PO4 4548  17.864   9.127   9.704 -0.0783 -0.0198  0.3610
  285loPI   GL1 4549  17.639   9.404   9.367  0.1084  0.0911  0.2804
  285loPI   GL2 4550  17.964   9.497   9.373  0.5145 -0.1871 -0.2279
  285loPI   C1A 4551  17.491   9.337   8.846  0.2254  0.0705 -0.2050
  285loPI   C2A 4552  16.956   9.357   8.782  0.0451  0.0440 -0.1103
  285loPI   C3A 4553  16.700   9.164   8.489  0.2377 -0.3054 -0.1757
  285loPI   C4A 4554  16.396   9.331   8.181 -0.1075  0.0459 -0.1263
  285loPI   C5A 4555  16.282   9.607   7.936  0.2270 -0.0819  0.0134
  285loPI   C6A 4556  16.111   9.855   7.579 -0.2156  0.2696  0.1014
  285loPI   C1B 4557  18.138   9.287   8.825 -0.2110 -0.2246  0.0501
  285loPI   C2B 4558  18.289   8.936   8.552 -0.2240 -0.2663 -0.0992
  285loPI   C3B 4559  18.285   9.008   8.149 -0.0151 -0.0578  0.0746
  285loPI   C4B 4560  18.391   9.220   7.766  0.2060 -0.1372 -0.1322
  286loPI    C1 4561  12.869  15.740  10.151  0.1888  0.0167 -0.1277
  286loPI    C2 4562  12.908  15.906  10.513  0.3951  0.2957 -0.2749
  286loPI    C3 4563  12.833  15.515  10.480 -0.0851  0.3496  0.0771
  286loPI   PO4 4564  12.788  15.981   9.976 -0.1806  0.0466  0.1737
  286loPI   GL1 4565  12.575  16.213   9.620  0.0388 -0.3228  0.1717
  286loPI   GL2 4566  12.706  15.878   9.488 -0.1411 -0.3195  0.0580
  286loPI   C1A 4567  12.529  16.398   9.200 -0.2019 -0.1281  0.1033
  286loPI   C2A 4568  12.309  16.606   8.760 -0.2286  0.1823  0.1778
  286loPI   C3A 4569  12.449  16.393   8.383 -0.1712 -0.1085 -0.1166
  286loPI   C4A 4570  12.536  16.417   7.970  0.2904 -0.0104 -0.0379
  286loPI   C5A 4571  12.380  16.319   7.535 -0.2175  0.2245  0.0399
  286loPI   C6A 4572  12.005  16.107   7.514 -0.0516  0.0018 -0.0888
  286loPI   C1B 4573  12.694  15.936   8.998 -0.0876  0.1832 -0.1088
  286loPI   C2B 4574  12.684  15.965   8.593 -0.2322  0.0733  0.2573
  286loPI   C3B 4575  12.739  15.937   8.122 -0.1746  0.1675  0.0470
  286loPI   C4B 4576  12.791  15.934   7.683 -0.0206  0.0146 -0.1713
  287loPI    C1 4577   2.561  14.652   9.653  0.3275 -0.0107 -0.1936
  287loPI    C2 4578   2.703  14.978   9.835 -0.2089  0.0842  0.0736
  287loPI    C3 4579   2.764  14.617   9.996  0.2743  0.0559 -0.1553
  287loPI   PO4 4580   2.588  14.699   9.370 -0.0599  0.0426 -0.0816
  287loPI   GL1 4581   2.407  14.839   9.058 -0.2268 -0.2195 -0.0265
  287loPI   GL2 4582   2.583  15.126   9.118  0.0741 -0.0465 -0.0942
  287loPI   C1A 4583   2.385  14.698   8.659 -0.0542 -0.0035  0.3672
  287loPI   C2A 4584   2.221  14.884   8.319 -0.0607 -0.1294  0.0763
  287loPI   C3A 4585   2.203  14.851   7.881 -0.0089 -0.1083 -0.3330
  287loPI   C4A 4586   2.374  14.843   7.451 -0.2333 -0.1786  0.3586
  287loPI   C5A 4587   2.503  14.724   6.903 -0.1635 -0.1192 -0.0401
  287loPI   C6A 4588   2.609  15.041   6.618  0.2017  0.0562  0.0424
  287loPI   C1B 4589   2.478  15.265   8.789  0.2434  0.0398 -0.0496
  287loPI   C2B 4590   2.518  15.273   8.424 -0.3286 -0.0515 -0.3258
  287loPI   C3B 4591   2.600  15.252   7.946 -0.3906 -0.0482  0.2055
  287loPI   C4B 4592   3.035  15.194   7.728 -0.0910  0.1408  0.0349
  288loPI    C1 4593  18.389  18.536   9.860  0.2035  0.0746  0.0748
  288loPI    C2 4594  18.185  18.330  10.136  0.0477 -0.0594 -0.1363
  288loPI    C3 4595  18.022  18.654   9.967  0.3489  0.3334  0.2994
  288loPI   PO4 4596  18.463  18.373   9.739 -0.0071 -0.1216  0.1992
  288loPI   GL1 4597  18.623  18.112   9.501 -0.2134 -0.0376  0.3266
  288loPI   GL2 4598  18.294  18.113   9.339 -0.3111 -0.0231  0.2599
  288loPI   C1A 4599  18.757  18.102   9.124 -0.0989 -0.2190  0.2233
  288loPI   C2A 4600  18.807  18.046   8.725 -0.0651 -0.2605  0.1157
  288loPI   C3A 4601  19.038  18.093   8.361 -0.1499 -0.2217  0.0235
  288loPI   C4A 4602  19.225  18.045   7.943 -0.1308  0.1084 -0.0983
  288loPI   C5A 4603  19.660  18.173   7.756 -0.2298  0.6675 -0.1998
  288loPI   C6A 4604  20.093  17.945   7.787  0.3096  0.2379 -0.3339
  288loPI   C1B 4605  18.277  18.095   8.882  0.1410  0.0761  0.0911
  288loPI   C2B 4606  18.336  17.996   8.468  0.3073  0.1764 -0.0194
  288loPI   C3B 4607  18.496  17.984   8.077  0.2400 -0.0549  0.1801
  288loPI   C4B 4608  18.829  17.791   7.888 -0.1427  0.2938 -0.0099
  289loPI    C1 4609   0.382   5.586  10.001 -0.0750  0.0842 -0.1972
  289loPI    C2 4610   0.157   5.840  10.213 -0.0223  0.1498 -0.2195
  289loPI    C3 4611   0.555   5.848  10.249 -0.0418 -0.2776  0.1708
  289loPI   PO4 4612   0.271   5.561   9.749  0.1316 -0.0679 -0.2945
  289loPI   GL1 4613   0.497   5.595   9.418 -0.1865 -0.0430  0.2605
  289loPI   GL2 4614   0.538   5.816   9.386 -0.0928 -0.0271  0.1268
  289loPI   C1A 4615   0.629   5.293   9.268 -0.3367 -0.2555 -0.1717
  289loPI   C2A 4616   0.720   5.275   8.840 -0.0260 -0.0506  0.1650
  289loPI   C3A 4617   0.645   5.294   8.414 -0.0637  0.2467 -0.2683
  289loPI   C4A 4618   0.704   5.150   8.035 -0.2299  0.0516 -0.1080
  289loPI   C5A 4619   0.752   5.321   7.566  0.0056 -0.2543  0.2954
  289loPI   C6A 4620   0.713   5.521   7.156 -0.1495  0.2967  0.2577
  289loPI   C1B 4621   0.606   5.730   8.902  0.1845  0.1412  0.4398
  289loPI   C2B 4622   0.632   5.812   8.386 -0.2144 -0.1850  0.2468
  289loPI   C3B 4623   0.738   5.692   8.061  0.1818  0.1330 -0.2680
  289loPI   C4B 4624   0.720   5.828   7.595 -0.0828 -0.1219 -0.0816
  290loPI    C1 4625  18.076  17.774   9.675 -0.0721  0.1638 -0.2164
  290loPI    C2 4626  18.004  17.807  10.067 -0.1076 -0.1778 -0.1911
  290loPI    C3 4627  18.355  17.928   9.917 -0.1094 -0.0079 -0.0625
  290loPI   PO4 4628  17.905  17.524   9.594 -0.2628  0.0609 -0.1258
  290loPI   GL1 4629  17.878  17.399   9.268  0.0611 -0.1107  0.0123
  290loPI   GL2 4630  18.067  17.636   9.137 -0.0938  0.0641 -0.0889
  290loPI   C1A 4631  17.943  17.142   8.969  0.1637  0.2197  0.1458
  290loPI   C2A 4632  17.761  17.121   8.538  0.2182 -0.1994  0.3265
  290loPI   C3A 4633  17.816  17.162   8.047  0.1393 -0.4327 -0.2395
  290loPI   C4A 4634  17.600  17.051   7.710  0.2626  0.0922  0.0531
  290loPI   C5A 4635  17.372  17.063   7.305 -0.2591  0.0034  0.0893
  290loPI   C6A 4636  17.337  16.692   6.974  0.0868 -0.0599 -0.3629
  290loPI   C1B 4637  18.113  17.547   8.683  0.0389  0.0167  0.0254
  290loPI   C2B 4638  18.072  17.567   8.320  0.2932 -0.0587  0.2572
  290loPI   C3B 4639  18.215  17.430   7.840 -0.0267  0.0305 -0.3366
  290loPI   C4B 4640  18.286  17.708   7.510 -0.1660 -0.0291 -0.2431
  291loPI    C1 4641   9.990  15.259  10.196 -0.0746 -0.1900  0.0238
  291loPI    C2 4642   9.660  15.035  10.223 -0.2682  0.0930  0.0447
  291loPI    C3 4643   9.690  15.373  10.435 -0.0480  0.1721 -0.1095
  291loPI   PO4 4644  10.000  15.334   9.926 -0.0391  0.2626 -0.0371
  291loPI   GL1 4645  10.129  15.328   9.544 -0.0628  0.1986 -0.1617
  291loPI   GL2 4646   9.995  15.208   9.270  0.0239 -0.2050 -0.6052
  291loPI   C1A 4647  10.418  15.600   9.380  0.0338  0.0148 -0.0326
  291loPI   C2A 4648  10.677  15.832   9.059 -0.0547  0.3387 -0.1253
  291loPI   C3A 4649  10.746  15.959   8.656  0.5239 -0.3927 -0.0734
  291loPI   C4A 4650  10.643  16.009   8.258  0.2059 -0.0377  0.2992
  291loPI   C5A 4651  10.452  16.011   7.842  0.0337 -0.1282 -0.1904
  291loPI   C6A 4652  10.550  16.134   7.337 -0.0140 -0.0268  0.3470
  291loPI   C1B 4653  10.092  15.090   8.859 -0.2665  0.0993 -0.0472
  291loPI   C2B 4654  10.117  15.080   8.449 -0.1845  0.0667  0.0048
  291loPI   C3B 4655  10.255  14.990   8.084  0.0261 -0.0454 -0.0152
  291loPI   C4B 4656  10.320  14.788   7.689 -0.2420 -0.0197  0.0301
  292loPI    C1 4657   3.518  18.014   9.951  0.4178  0.1314  0.0109
  292loPI    C2 4658   3.617  17.633  10.023  0.0323  0.0275  0.0103
  292loPI    C3 4659   3.505  17.871  10.325 -0.0274  0.0513 -0.0306
  292loPI   PO4 4660   3.579  18.213   9.785 -0.1997  0.1360  0.0535
  292loPI   GL1 4661   3.678  18.325   9.460  0.0536 -0.0556  0.0787
  292loPI   GL2 4662   3.931  18.095   9.301 -0.0627 -0.3802 -0.1015
  292loPI   C1A 4663   3.300  18.636   9.305  0.0419 -0.0867  0.4692
  292loPI   C2A 4664   3.309  18.861   8.991 -0.1527  0.1362  0.1370
  292loPI   C3A 4665   3.296  18.986   8.599 -0.1837 -0.1155 -0.2473
  292loPI   C4A 4666   3.233  18.952   8.181 -0.1758  0.1211  0.0634
  292loPI   C5A 4667   3.103  18.984   7.860  0.1859  0.0525  0.0824
  292loPI   C6A 4668   2.749  18.770   7.885  0.2346 -0.2262 -0.0134
  292loPI   C1B 4669   3.966  18.204   8.953  0.2098  0.1777 -0.0142
  292loPI   C2B 4670   3.924  18.159   8.554 -0.0572  0.0496  0.2205
  292loPI   C3B 4671   3.961  18.265   8.115 -0.0603  0.0000 -0.1992
  292loPI   C4B 4672   3.994  17.996   7.761  0.1113  0.0076 -0.1460
  293loPI    C1 4673  15.180   1.964   9.522  0.1900 -0.2322 -0.2555
  293loPI    C2 4674  14.805   1.833   9.570  0.0801  0.0087 -0.4354
  293loPI    C3 4675  15.056   1.838   9.881 -0.1369  0.0664 -0.2577
  293loPI   PO4 4676  15.113   2.233   9.306  0.1836  0.1139 -0.2495
  293loPI   GL1 4677  15.143   2.230   8.867  0.2711 -0.1919 -0.0252
  293loPI   GL2 4678  15.289   2.460   8.820 -0.0481 -0.0886 -0.0060
  293loPI   C1A 4679  15.170   2.160   8.419 -0.3561  0.4027 -0.1441
  293loPI   C2A 4680  15.202   2.436   8.239 -0.3147 -0.1215 -0.1614
  293loPI   C3A 4681  15.435   2.632   7.866  0.0525 -0.0164  0.0857
  293loPI   C4A 4682  15.646   2.882   7.675 -0.3252  0.1055 -0.1829
  293loPI   C5A 4683  15.889   2.793   7.247 -0.1073 -0.4863  0.0714
  293loPI   C6A 4684  15.654   2.948   6.896 -0.1025  0.0703  0.2620
  293loPI   C1B 4685  15.619   2.520   8.507 -0.1959 -0.1894  0.4389
  293loPI   C2B 4686  15.857   2.483   8.162 -0.1528  0.2611 -0.0929
  293loPI   C3B 4687  15.893   2.268   7.879 -0.1074 -0.0550 -0.1956
  293loPI   C4B 4688  16.176   2.058   7.471 -0.0806 -0.1163  0.2419
  294loPI    C1 4689  16.531  17.702  10.089  0.0098 -0.1027 -0.0277
  294loPI    C2 4690  16.771  17.988  10.233 -0.0638 -0.1262  0.1434
  294loPI    C3 4691  16.448  17.874  10.440 -0.1898 -0.1370 -0.0567
  294loPI   PO4 4692  16.714  17.500   9.910  0.0943 -0.1436 -0.1249
  294loPI   GL1 4693  16.921  17.319   9.567  0.1562 -0.1937 -0.0101
  294loPI   GL2 4694  16.670  17.573   9.429 -0.1595  0.0393 -0.0326
  294loPI   C1A 4695  16.785  17.135   9.178  0.2840 -0.1409 -0.0572
  294loPI   C2A 4696  16.641  16.896   8.763  0.2523 -0.0402  0.0058
  294loPI   C3A 4697  16.490  16.822   8.396  0.0571  0.1117 -0.0575
  294loPI   C4A 4698  16.225  16.599   8.090 -0.2828  0.0079  0.0108
  294loPI   C5A 4699  15.879  16.487   7.741  0.2548 -0.2320 -0.0156
  294loPI   C6A 4700  15.536  16.210   7.803 -0.0771  0.1719  0.0043
  294loPI   C1B 4701  16.952  17.629   9.102 -0.1931 -0.2887  0.0149
  294loPI   C2B 4702  16.985  17.693   8.701  0.0754 -0.0050  0.1602
  294loPI   C3B 4703  16.984  17.655   8.235  0.2282 -0.0313 -0.2383
  294loPI   C4B 4704  16.808  17.388   8.025 -0.3525  0.2135  0.0435
  295loPI    C1 4705   5.610   4.125   9.522 -0.0171 -0.1059 -0.0174
  295loPI    C2 4706   5.851   4.269   9.807 -0.1052 -0.1004  0.0546
  295loPI    C3 4707   5.579   4.507   9.636 -0.0108 -0.0872 -0.0783
  295loPI   PO4 4708   5.791   3.968   9.373 -0.1762 -0.1070 -0.2466
  295loPI   GL1 4709   5.953   3.795   8.968  0.4287 -0.0819 -0.0772
  295loPI   GL2 4710   6.066   3.631   9.172  0.2998 -0.0182  0.0168
  295loPI   C1A 4711   5.960   3.871   8.534 -0.0162 -0.0188  0.3134
  295loPI   C2A 4712   5.893   3.700   8.208 -0.2948 -0.0703  0.0150
  295loPI   C3A 4713   5.749   3.656   7.749 -0.2710 -0.0872  0.1840
  295loPI   C4A 4714   5.756   3.550   7.381  0.1388 -0.1583 -0.1438
  295loPI   C5A 4715   5.602   3.511   6.990 -0.0400  0.1691  0.0720
  295loPI   C6A 4716   5.415   3.276   6.676  0.2301  0.0107 -0.1342
  295loPI   C1B 4717   5.823   3.324   8.877 -0.1784  0.1770 -0.2248
  295loPI   C2B 4718   5.505   3.665   8.623  0.2092  0.0683  0.2682
  295loPI   C3B 4719   5.365   3.906   8.400  0.1904  0.2249  0.0458
  295loPI   C4B 4720   5.412   4.063   7.951  0.2107  0.2146  0.0558
  296loPI    C1 4721   9.259  18.277   9.896 -0.2826 -0.1012  0.0939
  296loPI    C2 4722   9.249  18.024  10.206  0.3620  0.2222  0.3992
  296loPI    C3 4723   9.579  18.052   9.982 -0.0173  0.1587 -0.1899
  296loPI   PO4 4724   9.022  18.128   9.737 -0.0033 -0.0824 -0.3338
  296loPI   GL1 4725   8.912  18.182   9.441 -0.1674 -0.0073  0.1685
  296loPI   GL2 4726   8.631  18.136   9.328  0.1315 -0.2618 -0.3284
  296loPI   C1A 4727   8.950  18.442   9.015 -0.0234 -0.4388  0.2390
  296loPI   C2A 4728   8.960  18.441   8.664 -0.4471 -0.2322 -0.0158
  296loPI   C3A 4729   8.956  18.546   8.331  0.2030 -0.0917  0.0094
  296loPI   C4A 4730   9.057  18.742   7.868 -0.2999 -0.2424 -0.0373
  296loPI   C5A 4731   8.984  18.951   7.443  0.2107 -0.0003  0.0060
  296loPI   C6A 4732   8.981  19.338   7.209 -0.0930  0.0121 -0.1149
  296loPI   C1B 4733   8.654  18.015   8.869  0.2053  0.0198 -0.0172
  296loPI   C2B 4734   8.643  18.086   8.426 -0.2838 -0.1654  0.0863
  296loPI   C3B 4735   8.795  18.203   8.012 -0.0413  0.2501  0.0705
  296loPI   C4B 4736   9.059  18.335   7.579 -0.0911  0.4067 -0.0021
  297loPI    C1 4737  18.938   7.550   9.715  0.1497  0.0662 -0.0493
  297loPI    C2 4738  18.677   7.514  10.016  0.0358 -0.0074 -0.1560
  297loPI    C3 4739  18.954   7.803  10.025 -0.0147  0.0375 -0.0167
  297loPI   PO4 4740  18.872   7.623   9.528  0.0108  0.1515  0.0094
  297loPI   GL1 4741  18.917   7.826   9.175 -0.2070 -0.2145  0.3090
  297loPI   GL2 4742  18.646   7.542   8.973  0.2530 -0.0244  0.0315
  297loPI   C1A 4743  19.052   8.035   8.828 -0.4034  0.4057  0.2262
  297loPI   C2A 4744  19.066   7.888   8.407  0.1842  0.1151 -0.1651
  297loPI   C3A 4745  18.912   7.914   7.870 -0.2961  0.1086  0.2097
  297loPI   C4A 4746  18.911   8.046   7.390  0.0381 -0.1807 -0.0436
  297loPI   C5A 4747  19.257   8.216   7.126  0.1419  0.1163  0.1507
  297loPI   C6A 4748  19.173   8.407   6.806  0.0462  0.2105 -0.0904
  297loPI   C1B 4749  18.601   7.808   8.536 -0.1020  0.0102 -0.0600
  297loPI   C2B 4750  18.521   7.941   8.143 -0.2639  0.1603 -0.0759
  297loPI   C3B 4751  18.431   7.854   7.719 -0.0881  0.0327  0.0372
  297loPI   C4B 4752  18.494   7.568   7.319 -0.0562  0.1619  0.1324
  298loPI    C1 4753   0.870   7.965   9.753  0.0745 -0.1668  0.0361
  298loPI    C2 4754   1.071   8.241   9.961 -0.1106  0.0519 -0.0710
  298loPI    C3 4755   1.059   7.863  10.091  0.0674  0.1120  0.1265
  298loPI   PO4 4756   0.921   8.023   9.479 -0.1424  0.0757  0.0529
  298loPI   GL1 4757   0.874   7.904   9.132  0.1168  0.1829  0.1750
  298loPI   GL2 4758   0.684   8.165   9.001 -0.0329 -0.1676  0.0315
  298loPI   C1A 4759   0.957   7.776   8.613  0.2915 -0.1285 -0.1671
  298loPI   C2A 4760   1.113   7.639   8.267  0.3223  0.2300 -0.0915
  298loPI   C3A 4761   1.025   7.511   7.810 -0.1413 -0.0025 -0.2117
  298loPI   C4A 4762   0.986   7.297   7.389 -0.2080  0.0601  0.0869
  298loPI   C5A 4763   1.036   6.881   7.391 -0.0624 -0.0789  0.0974
  298loPI   C6A 4764   1.005   6.435   7.414 -0.0032 -0.0352  0.2274
  298loPI   C1B 4765   0.525   8.088   8.589 -0.2090  0.0414  0.5986
  298loPI   C2B 4766   0.696   8.017   8.158 -0.0901  0.2078 -0.0022
  298loPI   C3B 4767   0.980   8.058   7.954 -0.2307 -0.0712  0.0210
  298loPI   C4B 4768   1.169   7.940   7.515 -0.0369  0.0272  0.0592
  299loPI    C1 4769   1.340   5.780   9.976  0.1187 -0.0223  0.1523
  299loPI    C2 4770   1.440   6.083  10.217 -0.0304 -0.2033  0.4483
  299loPI    C3 4771   1.061   5.956  10.203 -0.0700 -0.0530 -0.0520
  299loPI   PO4 4772   1.373   5.829   9.759  0.0488  0.0375  0.0157
  299loPI   GL1 4773   1.689   5.586   9.589 -0.1514 -0.2353 -0.0211
  299loPI   GL2 4774   1.770   5.897   9.399  0.1727 -0.3087 -0.0805
  299loPI   C1A 4775   1.582   5.384   9.270 -0.1647  0.1811  0.1749
  299loPI   C2A 4776   1.560   5.679   8.969  0.2248 -0.2907  0.1770
  299loPI   C3A 4777   1.535   5.787   8.567  0.0758  0.0872  0.0283
  299loPI   C4A 4778   1.544   5.741   8.201 -0.1995 -0.0589  0.0389
  299loPI   C5A 4779   1.689   5.637   7.836  0.2386  0.0488 -0.1945
  299loPI   C6A 4780   1.556   5.233   7.693  0.1053 -0.2525 -0.0146
  299loPI   C1B 4781   2.013   5.872   9.113 -0.0057  0.1384  0.1430
  299loPI   C2B 4782   1.958   5.948   8.767  0.0493  0.0045  0.3151
  299loPI   C3B 4783   1.834   6.244   8.351 -0.1745  0.0593  0.0877
  299loPI   C4B 4784   1.687   6.134   7.987  0.3391 -0.0164 -0.0975
  300loPI    C1 4785  16.813   3.337   9.746 -0.3161  0.1142 -0.1016
  300loPI    C2 4786  16.878   3.020   9.981  0.0605  0.2779  0.0222
  300loPI    C3 4787  16.739   3.360  10.138 -0.3293  0.1837 -0.1081
  300loPI   PO4 4788  16.742   3.202   9.441  0.2853  0.4402 -0.1013
  300loPI   GL1 4789  16.483   3.105   9.065  0.1166 -0.2705  0.0234
  300loPI   GL2 4790  16.589   2.970   8.848  0.0574 -0.2039 -0.0717
  300loPI   C1A 4791  16.434   3.535   8.920 -0.0678  0.5312 -0.2268
  300loPI   C2A 4792  16.388   3.547   8.454 -0.0796 -0.1699 -0.1093
  300loPI   C3A 4793  16.449   3.395   7.938 -0.2075 -0.4859 -0.2748
  300loPI   C4A 4794  16.468   3.536   7.428 -0.2851  0.2282 -0.1693
  300loPI   C5A 4795  16.723   3.385   7.114  0.0491  0.0979 -0.2375
  300loPI   C6A 4796  16.628   3.028   6.860 -0.2500 -0.0236 -0.3647
  300loPI   C1B 4797  16.867   2.865   8.609  0.0480  0.2699 -0.2782
  300loPI   C2B 4798  16.916   2.833   8.161  0.2378 -0.0827  0.1916
  300loPI   C3B 4799  16.904   2.467   7.833  0.1561 -0.3167 -0.1744
  300loPI   C4B 4800  16.652   2.360   7.570 -0.0451 -0.1180 -0.0985
  301loPI    C1 4801   9.952   4.286  10.009  0.1974  0.0473  0.2207
  301loPI    C2 4802   9.693   3.995  10.101  0.0038  0.0947 -0.1570
  301loPI    C3 4803   9.643   4.363  10.251 -0.0041  0.0425 -0.0305
  301loPI   PO4 4804   9.904   4.261   9.698 -0.2501  0.0520  0.2040
  301loPI   GL1 4805   9.606   4.331   9.282 -0.1155 -0.0054  0.0445
  301loPI   GL2 4806   9.588   4.533   9.053 -0.4929  0.0415 -0.1867
  301loPI   C1A 4807   9.784   4.068   8.787 -0.1248 -0.0979  0.1165
  301loPI   C2A 4808  10.106   3.797   8.717 -0.2693  0.0346 -0.0294
  301loPI   C3A 4809  10.504   3.545   8.607  0.1318  0.3107  0.1164
  301loPI   C4A 4810  10.539   3.391   8.206  0.4733  0.1609  0.2959
  301loPI   C5A 4811  10.342   3.172   7.814 -0.3793 -0.2112 -0.1610
  301loPI   C6A 4812  10.638   3.029   7.543  0.1599 -0.1081 -0.2310
  301loPI   C1B 4813   9.557   4.524   8.681 -0.2312 -0.2265 -0.0308
  301loPI   C2B 4814   9.644   4.540   8.248  0.3430 -0.5006  0.1013
  301loPI   C3B 4815   9.995   4.372   7.855  0.1184 -0.0251  0.0399
  301loPI   C4B 4816  10.338   4.329   7.596  0.2479  0.4016  0.1318
  302loPI    C1 4817   1.963  11.430  10.183  0.0629  0.1241  0.2596
  302loPI    C2 4818   1.662  11.339  10.431 -0.0121  0.0558  0.1447
  302loPI    C3 4819   1.947  11.069  10.354 -0.1521 -0.0309 -0.0776
  302loPI   PO4 4820   1.844  11.534   9.912  0.1971  0.2020 -0.2546
  302loPI   GL1 4821   1.727  11.690   9.565 -0.1394  0.0416 -0.1056
  302loPI   GL2 4822   1.402  11.614   9.561 -0.3182  0.0224 -0.0966
  302loPI   C1A 4823   1.787  11.537   9.190 -0.0085 -0.3090  0.0406
  302loPI   C2A 4824   1.806  11.638   8.811  0.0137 -0.2490  0.0549
  302loPI   C3A 4825   2.014  11.676   8.416 -0.2377 -0.0844 -0.0229
  302loPI   C4A 4826   1.889  11.788   8.090  0.0432  0.1344 -0.0761
  302loPI   C5A 4827   1.956  11.776   7.593  0.0068 -0.0136  0.0223
  302loPI   C6A 4828   1.808  11.618   7.254 -0.0288 -0.0258 -0.1435
  302loPI   C1B 4829   1.308  11.370   9.269  0.3079 -0.3081  0.2021
  302loPI   C2B 4830   1.364  11.408   8.875 -0.1394  0.0347  0.0884
  302loPI   C3B 4831   1.475  11.390   8.509 -0.0445  0.2010  0.1182
  302loPI   C4B 4832   1.553  11.439   8.044 -0.2092 -0.0824 -0.1182
  303loPI    C1 4833  19.176   0.910   9.921 -0.0472 -0.1594 -0.4708
  303loPI    C2 4834  18.888   1.159  10.043  0.2332 -0.0766  0.0535
  303loPI    C3 4835  18.882   0.775  10.156  0.2588 -0.1070 -0.0470
  303loPI   PO4 4836  19.255   0.936   9.707  0.3662 -0.0412  0.2323
  303loPI   GL1 4837  19.376   0.683   9.265  0.1350 -0.2362 -0.4057
  303loPI   GL2 4838  19.109   0.767   9.229 -0.0888  0.0514  0.0535
  303loPI   C1A 4839  19.636   0.405   9.167  0.0393 -0.1746  0.0316
  303loPI   C2A 4840  19.641   0.194   8.779 -0.3507  0.1707 -0.0602
  303loPI   C3A 4841  19.758   0.122   8.316  0.0650  0.5212  0.1430
  303loPI   C4A 4842  19.964   0.296   7.923  0.2087  0.1649 -0.0812
  303loPI   C5A 4843  20.139   0.515   7.572 -0.0931  0.2662  0.0859
  303loPI   C6A 4844  20.248   0.666   7.130  0.0708  0.0798 -0.1761
  303loPI   C1B 4845  19.080   0.924   8.869  0.1379 -0.0575 -0.3573
  303loPI   C2B 4846  19.013   1.090   8.557 -0.2653 -0.1208 -0.1181
  303loPI   C3B 4847  19.002   1.003   8.095  0.2613 -0.1992  0.0685
  303loPI   C4B 4848  19.095   0.567   7.831 -0.0024  0.1081 -0.3414
  304loPI    C1 4849   2.277   1.152  10.421 -0.2977 -0.2576  0.0125
  304loPI    C2 4850   2.142   1.512  10.530 -0.0853 -0.2156  0.1422
  304loPI    C3 4851   1.962   1.182  10.664 -0.1131 -0.1597  0.2437
  304loPI   PO4 4852   2.388   1.192  10.125 -0.0622 -0.1271 -0.2416
  304loPI   GL1 4853   2.190   0.978   9.760 -0.2559  0.0407  0.1358
  304loPI   GL2 4854   2.417   1.169   9.653  0.2623  0.0155  0.0701
  304loPI   C1A 4855   2.211   0.750   9.396  0.1684  0.0395 -0.1078
  304loPI   C2A 4856   2.095   0.840   8.985 -0.0418 -0.0181 -0.2518
  304loPI   C3A 4857   2.091   0.805   8.558  0.0960 -0.0159  0.1816
  304loPI   C4A 4858   2.032   0.849   8.131  0.0544  0.0858  0.0907
  304loPI   C5A 4859   2.029   0.911   7.707  0.1528  0.0287  0.1631
  304loPI   C6A 4860   2.270   0.994   7.286  0.1605  0.2123  0.2842
  304loPI   C1B 4861   2.452   1.202   9.145 -0.2809 -0.0098  0.0975
  304loPI   C2B 4862   2.428   1.165   8.705  0.0967 -0.0658 -0.0163
  304loPI   C3B 4863   2.415   1.146   8.229 -0.1962 -0.0274 -0.1826
  304loPI   C4B 4864   2.018   1.332   7.912 -0.1759  0.0484 -0.3890
  305loPI    C1 4865   8.272  10.526  10.051 -0.0950  0.3128 -0.3373
  305loPI    C2 4866   8.108  10.824  10.262  0.0771  0.0874  0.1302
  305loPI    C3 4867   7.894  10.496  10.178 -0.0382  0.2382 -0.1830
  305loPI   PO4 4868   8.441  10.647   9.860  0.1383 -0.0874 -0.1812
  305loPI   GL1 4869   8.360  10.647   9.452 -0.0354 -0.1094  0.0736
  305loPI   GL2 4870   8.269  10.542   9.140 -0.1174 -0.0223  0.2934
  305loPI   C1A 4871   8.330  11.078   9.285  0.1049 -0.3050 -0.1812
  305loPI   C2A 4872   8.291  11.122   8.773  0.0111  0.0149  0.0618
  305loPI   C3A 4873   8.213  10.797   8.482  0.3890  0.0240 -0.1639
  305loPI   C4A 4874   8.399  10.473   8.330 -0.1855 -0.1513  0.2879
  305loPI   C5A 4875   8.633  10.216   8.141  0.0498  0.0404 -0.0482
  305loPI   C6A 4876   8.569  10.062   7.823 -0.3688 -0.1386  0.0037
  305loPI   C1B 4877   8.596  10.754   8.872  0.1018  0.0424 -0.1326
  305loPI   C2B 4878   8.864  10.774   8.449  0.1534  0.0918  0.1219
  305loPI   C3B 4879   8.810  11.015   8.063 -0.1106 -0.2912 -0.1094
  305loPI   C4B 4880   8.834  11.355   7.674  0.1281  0.2663  0.0130
  306loPI    C1 4881  17.573   0.161   9.891  0.0232  0.2166  0.0298
  306loPI    C2 4882  17.524   0.550   9.972  0.0506  0.2177  0.0414
  306loPI    C3 4883  17.660   0.302  10.255 -0.3112  0.1321  0.1468
  306loPI   PO4 4884  17.724   0.180   9.623 -0.2173  0.2144  0.0537
  306loPI   GL1 4885  17.699   0.221   9.242 -0.0543 -0.1927 -0.2743
  306loPI   GL2 4886  17.761   0.504   9.028 -0.1049  0.2624 -0.3130
  306loPI   C1A 4887  18.076  -0.013   8.928  0.0225 -0.0078 -0.1152
  306loPI   C2A 4888  18.281  -0.051   8.558 -0.2909  0.1575 -0.3167
  306loPI   C3A 4889  18.315   0.039   8.081  0.4302  0.1443 -0.1014
  306loPI   C4A 4890  18.664   0.281   7.732  0.0989  0.2415  0.1827
  306loPI   C5A 4891  18.935   0.399   7.383  0.0951 -0.1871 -0.1228
  306loPI   C6A 4892  19.278   0.629   7.344  0.3229  0.0674  0.0065
  306loPI   C1B 4893  17.706   0.564   8.707 -0.1625 -0.0948  0.1930
  306loPI   C2B 4894  17.631   0.453   8.341 -0.3775  0.3677  0.0984
  306loPI   C3B 4895  17.832   0.357   7.978 -0.2634  0.0438  0.1075
  306loPI   C4B 4896  17.956   0.149   7.581 -0.1480 -0.1201  0.0193
  307loPI    C1 4897   4.482   1.074  10.091 -0.1130 -0.0605  0.0240
  307loPI    C2 4898   4.715   1.394  10.034 -0.0332 -0.2162 -0.5961
  307loPI    C3 4899   4.406   1.414  10.287  0.4667  0.0826  0.0166
  307loPI   PO4 4900   4.468   0.930   9.864  0.1413 -0.1774 -0.1040
  307loPI   GL1 4901   4.561   1.007   9.464 -0.0756  0.3027  0.0090
  307loPI   GL2 4902   4.733   0.853   9.206  0.2305 -0.1111 -0.2081
  307loPI   C1A 4903   4.386   1.083   9.006 -0.2547 -0.0265  0.2605
  307loPI   C2A 4904   4.277   1.323   8.750  0.0014 -0.2227  0.1901
  307loPI   C3A 4905   4.058   1.334   8.343  0.1592  0.2544 -0.2598
  307loPI   C4A 4906   3.861   1.378   7.857  0.2646 -0.2142  0.1168
  307loPI   C5A 4907   3.537   1.377   7.665 -0.1108 -0.0403  0.1124
  307loPI   C6A 4908   3.151   1.210   7.537 -0.0700  0.1471 -0.2769
  307loPI   C1B 4909   4.671   0.759   8.764  0.2402 -0.0475 -0.2883
  307loPI   C2B 4910   4.790   0.544   8.262 -0.1475 -0.1457 -0.0670
  307loPI   C3B 4911   4.807   0.380   7.864  0.0545 -0.1768 -0.1900
  307loPI   C4B 4912   4.839   0.432   7.481  0.1605  0.0278 -0.0103
  308loPI    C1 4913   6.434  13.709   9.746 -0.0711 -0.1541 -0.0211
  308loPI    C2 4914   6.344  13.962  10.043 -0.1239 -0.0840 -0.0962
  308loPI    C3 4915   6.610  13.669  10.103  0.0858  0.1094 -0.0661
  308loPI   PO4 4916   6.464  13.871   9.427  0.0909 -0.0747 -0.3716
  308loPI   GL1 4917   6.686  13.923   9.111 -0.2307 -0.0334 -0.0795
  308loPI   GL2 4918   6.720  14.265   9.214 -0.4535  0.1852 -0.1429
  308loPI   C1A 4919   6.947  13.899   8.744 -0.1723  0.0668  0.0785
  308loPI   C2A 4920   7.253  13.902   8.448  0.1523 -0.3063  0.0060
  308loPI   C3A 4921   7.315  13.939   8.019  0.1445  0.0674 -0.0671
  308loPI   C4A 4922   7.256  13.736   7.576 -0.3510 -0.4571 -0.0743
  308loPI   C5A 4923   7.192  13.275   7.501  0.0398  0.2509 -0.1217
  308loPI   C6A 4924   6.911  12.943   7.284 -0.0198 -0.0777  0.1835
  308loPI   C1B 4925   6.730  14.381   8.923  0.1746 -0.0062 -0.1266
  308loPI   C2B 4926   6.725  14.290   8.429 -0.2385 -0.0791  0.2709
  308loPI   C3B 4927   6.751  14.485   8.020  0.0726  0.1733 -0.0088
  308loPI   C4B 4928   6.750  14.551   7.622  0.0424 -0.3839 -0.3607
  309loPI    C1 4929  11.266   4.516   9.548 -0.1135 -0.0244 -0.0932
  309loPI    C2 4930  11.240   4.783   9.844 -0.1007 -0.0113 -0.1038
  309loPI    C3 4931  11.203   4.392   9.923  0.0937 -0.0209 -0.0562
  309loPI   PO4 4932  11.527   4.618   9.457 -0.1383 -0.2762  0.1442
  309loPI   GL1 4933  11.294   4.633   8.986 -0.4249  0.2978 -0.0746
  309loPI   GL2 4934  11.177   4.930   8.896  0.0557  0.0241 -0.0172
  309loPI   C1A 4935  11.501   4.659   8.521  0.1736 -0.3006 -0.0958
  309loPI   C2A 4936  11.751   4.872   8.205 -0.0228  0.0177  0.0265
  309loPI   C3A 4937  11.430   4.808   7.870 -0.1077 -0.1947 -0.1836
  309loPI   C4A 4938  11.391   5.081   7.478  0.2320  0.1976 -0.0174
  309loPI   C5A 4939  11.302   5.298   7.102  0.0443  0.0203 -0.1138
  309loPI   C6A 4940  11.004   5.194   6.732  0.0009 -0.1400 -0.2480
  309loPI   C1B 4941  11.009   4.869   8.531  0.2532 -0.0509 -0.4525
  309loPI   C2B 4942  11.044   4.888   8.134  0.0724  0.2083  0.4895
  309loPI   C3B 4943  10.897   4.974   7.737 -0.2398  0.6550  0.4000
  309loPI   C4B 4944  10.919   5.257   7.500  0.1440 -0.2759  0.0362
  310loPI    C1 4945  15.036   3.445   9.418 -0.0112 -0.0385 -0.0586
  310loPI    C2 4946  15.435   3.416   9.444 -0.0163 -0.1663 -0.1135
  310loPI    C3 4947  15.222   3.538   9.760  0.0442 -0.3489 -0.0012
  310loPI   PO4 4948  14.991   3.264   9.274  0.0992  0.1074 -0.2101
  310loPI   GL1 4949  14.881   3.074   8.908  0.0292  0.3461  0.0036
  310loPI   GL2 4950  15.071   3.236   8.648  0.1419 -0.1177 -0.1224
  310loPI   C1A 4951  14.892   2.859   8.418  0.0577  0.1650  0.0991
  310loPI   C2A 4952  14.881   2.835   8.006  0.0832  0.1070 -0.2656
  310loPI   C3A 4953  14.874   2.830   7.584  0.0681  0.3416  0.1767
  310loPI   C4A 4954  14.875   2.976   7.218  0.0905  0.0117  0.1476
  310loPI   C5A 4955  14.813   3.099   6.822 -0.0251  0.3127 -0.2304
  310loPI   C6A 4956  14.539   3.411   6.579  0.1625  0.0899 -0.1245
  310loPI   C1B 4957  14.843   3.375   8.232  0.1159 -0.1195  0.1616
  310loPI   C2B 4958  14.750   3.277   7.833 -0.0950 -0.1736 -0.2016
  310loPI   C3B 4959  14.493   3.278   7.499  0.2669  0.2976 -0.1499
  310loPI   C4B 4960  14.526   3.353   7.096  0.5177  0.2409 -0.0429
  311loPI    C1 4961  14.448  16.652  10.416 -0.1762  0.2065 -0.0292
  311loPI    C2 4962  14.626  16.321  10.278 -0.2381  0.1707 -0.0235
  311loPI    C3 4963  14.747  16.485  10.622 -0.2258  0.1384 -0.0124
  311loPI   PO4 4964  14.401  16.844  10.207 -0.1383 -0.0588  0.0348
  311loPI   GL1 4965  14.370  17.044   9.714  0.1459  0.0716 -0.1734
  311loPI   GL2 4966  14.584  17.027   9.774 -0.1282  0.0266 -0.4336
  311loPI   C1A 4967  14.414  16.726   9.320  0.1977 -0.5387 -0.2218
  311loPI   C2A 4968  14.294  16.655   8.914 -0.1466  0.4299  0.1434
  311loPI   C3A 4969  14.498  16.521   8.527 -0.5071  0.1711  0.1293
  311loPI   C4A 4970  14.611  16.500   8.083  0.2940 -0.3344  0.2216
  311loPI   C5A 4971  14.520  16.774   7.773 -0.1053 -0.0392 -0.1742
  311loPI   C6A 4972  14.419  16.893   7.360  0.2399 -0.5003 -0.1098
  311loPI   C1B 4973  14.934  16.787   9.536  0.6892  0.2232  0.0069
  311loPI   C2B 4974  14.922  16.641   9.177  0.1319 -0.3700  0.3335
  311loPI   C3B 4975  14.833  16.380   8.893  0.2736  0.0605  0.1788
  311loPI   C4B 4976  14.820  16.150   8.504 -0.1114  0.2081 -0.0279
  312loPI    C1 4977   0.961  10.142  10.212 -0.2607  0.0287 -0.1065
  312loPI    C2 4978   1.190   9.991  10.504 -0.3108  0.0005 -0.0817
  312loPI    C3 4979   0.850   9.807  10.401 -0.1354 -0.1683 -0.3753
  312loPI   PO4 4980   1.085  10.195  10.075 -0.4169  0.2285 -0.1677
  312loPI   GL1 4981   1.275  10.100   9.665  0.1313 -0.1230  0.1813
  312loPI   GL2 4982   1.411   9.960   9.452 -0.2167 -0.0774 -0.0233
  312loPI   C1A 4983   0.975  10.051   9.254  0.1282 -0.1593  0.0697
  312loPI   C2A 4984   0.790  10.159   8.870 -0.0842 -0.0413  0.3335
  312loPI   C3A 4985   0.912  10.180   8.490  0.0484  0.0570  0.1212
  312loPI   C4A 4986   0.891  10.165   7.988 -0.1352  0.1060 -0.0125
  312loPI   C5A 4987   1.007  10.257   7.575  0.1375 -0.0215  0.3448
  312loPI   C6A 4988   0.751  10.398   7.196 -0.4029 -0.1551 -0.1963
  312loPI   C1B 4989   1.421  10.001   9.014  0.2962  0.3054  0.1524
  312loPI   C2B 4990   1.355  10.087   8.642  0.1238 -0.1844  0.1077
  312loPI   C3B 4991   1.375  10.116   8.263  0.0822 -0.0207  0.0154
  312loPI   C4B 4992   1.416  10.037   7.881 -0.2146  0.1581 -0.1998
  313loPI    C1 4993   4.540   5.705   9.596 -0.1273  0.1102  0.0120
  313loPI    C2 4994   4.521   5.740   9.994  0.1409 -0.0018  0.0367
  313loPI    C3 4995   4.826   5.542   9.824 -0.1146 -0.1916 -0.2115
  313loPI   PO4 4996   4.193   5.655   9.538  0.0675  0.2999  0.4174
  313loPI   GL1 4997   4.072   5.602   9.104 -0.0463 -0.0694 -0.3827
  313loPI   GL2 4998   3.767   5.677   8.902  0.2221  0.1674  0.1820
  313loPI   C1A 4999   4.140   5.385   8.657  0.0450 -0.0872  0.3119
  313loPI   C2A 5000   4.422   5.396   8.317  0.0749 -0.1401 -0.4066
  313loPI   C3A 5001   4.391   5.300   7.900 -0.1247  0.1274 -0.1341
  313loPI   C4A 5002   4.338   5.025   7.503 -0.2558  0.2343 -0.4017
  313loPI   C5A 5003   4.577   4.779   7.272 -0.0926 -0.1733 -0.1545
  313loPI   C6A 5004   4.976   5.006   6.994 -0.1371  0.0467  0.1618
  313loPI   C1B 5005   3.398   5.549   8.746  0.1549  0.2397 -0.3394
  313loPI   C2B 5006   3.115   5.630   8.460  0.1565 -0.3336  0.0332
  313loPI   C3B 5007   3.010   5.522   8.122 -0.0945 -0.1651 -0.0796
  313loPI   C4B 5008   2.980   5.638   7.808  0.2508  0.0015 -0.0544
  314loPI    C1 5009   6.469   1.373   9.416 -0.1479 -0.0476 -0.1007
  314loPI    C2 5010   6.527   1.586   9.082  0.2022 -0.0929 -0.0718
  314loPI    C3 5011   6.810   1.575   9.364 -0.0286 -0.1780  0.1605
  314loPI   PO4 5012   6.235   1.222   9.286 -0.2945  0.3357 -0.2154
  314loPI   GL1 5013   6.344   1.108   8.929 -0.0090 -0.1274  0.1454
  314loPI   GL2 5014   6.388   0.755   8.924 -0.2119 -0.1178  0.1434
  314loPI   C1A 5015   6.316   0.960   8.479 -0.0206  0.0709  0.1563
  314loPI   C2A 5016   6.196   0.996   8.025 -0.5344  0.1167 -0.0992
  314loPI   C3A 5017   6.383   1.095   7.643  0.0923 -0.1224  0.0693
  314loPI   C4A 5018   6.654   0.824   7.341 -0.1829  0.1907  0.0660
  314loPI   C5A 5019   6.941   0.725   6.951 -0.4543 -0.3690 -0.2658
  314loPI   C6A 5020   6.868   1.087   6.642 -0.3643 -0.1455 -0.1048
  314loPI   C1B 5021   6.687   0.699   8.660 -0.3433  0.1144  0.0726
  314loPI   C2B 5022   6.618   0.582   8.318  0.0898 -0.3171  0.1020
  314loPI   C3B 5023   6.527   0.496   7.899  0.2876 -0.0104  0.0494
  314loPI   C4B 5024   6.275   0.600   7.529  0.1204 -0.3384  0.1453
  315loPI    C1 5025  15.797  14.281  10.486 -0.0460 -0.1074  0.3383
  315loPI    C2 5026  16.168  14.425  10.450 -0.0194 -0.2285  0.1090
  315loPI    C3 5027  16.084  14.157  10.735  0.0695 -0.2030  0.1595
  315loPI   PO4 5028  15.737  14.603  10.237 -0.0643 -0.2105  0.3165
  315loPI   GL1 5029  15.798  14.783   9.821 -0.0408 -0.2298 -0.4649
  315loPI   GL2 5030  16.010  14.700   9.667 -0.2247 -0.2628  0.2480
  315loPI   C1A 5031  15.617  14.960   9.424  0.2379 -0.2417  0.0462
  315loPI   C2A 5032  15.542  15.028   9.016  0.1297 -0.1512  0.1452
  315loPI   C3A 5033  15.471  14.847   8.641  0.1690 -0.1768 -0.0467
  315loPI   C4A 5034  15.395  14.875   8.291 -0.0356  0.3549 -0.0727
  315loPI   C5A 5035  15.370  14.722   7.829 -0.2542 -0.0731 -0.1363
  315loPI   C6A 5036  15.416  14.816   7.399  0.2119  0.0680 -0.0714
  315loPI   C1B 5037  16.089  14.908   9.219 -0.5476  0.1305 -0.2467
  315loPI   C2B 5038  16.015  14.977   8.796  0.1279  0.0025 -0.2727
  315loPI   C3B 5039  15.944  14.968   8.331  0.2018 -0.0222  0.0640
  315loPI   C4B 5040  15.752  15.024   7.965 -0.0245 -0.0243 -0.1027
  316loPI    C1 5041   7.277  13.941  10.017 -0.0015 -0.1398  0.3481
  316loPI    C2 5042   7.123  13.572  10.013 -0.2399 -0.0414  0.0076
  316loPI    C3 5043   7.280  13.719  10.350  0.0099 -0.5129  0.1058
  316loPI   PO4 5044   7.291  13.998   9.728 -0.2663  0.2284 -0.1265
  316loPI   GL1 5045   7.458  14.433   9.461  0.1214  0.2444 -0.2878
  316loPI   GL2 5046   7.651  14.224   9.397  0.0402  0.0239  0.0996
  316loPI   C1A 5047   7.301  14.334   9.070 -0.0474 -0.1591  0.0109
  316loPI   C2A 5048   7.210  14.368   8.593 -0.2245  0.1110 -0.1557
  316loPI   C3A 5049   7.184  14.389   8.213  0.3432  0.2888  0.2041
  316loPI   C4A 5050   7.177  14.313   7.722  0.2821  0.2754 -0.3035
  316loPI   C5A 5051   7.287  14.202   7.271  0.1141 -0.2763  0.0402
  316loPI   C6A 5052   7.130  13.931   6.962 -0.1136 -0.0042  0.1029
  316loPI   C1B 5053   7.302  13.831   9.095 -0.2045 -0.1617  0.1326
  316loPI   C2B 5054   7.254  13.484   8.750 -0.2301  0.3078  0.1724
  316loPI   C3B 5055   7.428  13.337   8.363  0.1490 -0.1188  0.0657
  316loPI   C4B 5056   7.525  13.392   7.931 -0.0694  0.0914  0.1735
  317loPI    C1 5057   3.909  10.427  10.000 -0.0713 -0.2461  0.3090
  317loPI    C2 5058   3.932  10.089   9.788  0.1357 -0.0454  0.0030
  317loPI    C3 5059   4.120  10.117  10.140  0.0377 -0.2799  0.0759
  317loPI   PO4 5060   3.963  10.593   9.778  0.2880 -0.0791 -0.1224
  317loPI   GL1 5061   3.861  10.696   9.355  0.0799 -0.3077  0.1611
  317loPI   GL2 5062   4.144  10.796   9.174  0.1376 -0.2331  0.0432
  317loPI   C1A 5063   3.591  10.536   9.023 -0.2497 -0.3515  0.3944
  317loPI   C2A 5064   3.621  10.573   8.595  0.2768 -0.0904 -0.0549
  317loPI   C3A 5065   3.671  10.583   8.210 -0.0542 -0.0533  0.0877
  317loPI   C4A 5066   3.322  10.628   8.021  0.0275 -0.2976 -0.0194
  317loPI   C5A 5067   3.211  10.404   7.697 -0.0500 -0.0555  0.3344
  317loPI   C6A 5068   2.936  10.068   7.506 -0.1998  0.1609  0.0516
  317loPI   C1B 5069   3.970  10.964   8.784  0.0338 -0.1773  0.0546
  317loPI   C2B 5070   4.097  10.916   8.270  0.4626  0.1571 -0.0034
  317loPI   C3B 5071   4.180  10.796   7.843 -0.1472  0.2845  0.0383
  317loPI   C4B 5072   4.367  10.542   7.624  0.0231  0.2996  0.0203
  318loPI    C1 5073   3.120  17.490  10.270  0.0557 -0.1629  0.0939
  318loPI    C2 5074   3.156  17.092  10.301 -0.2317 -0.1879  0.1281
  318loPI    C3 5075   3.416  17.332  10.489  0.0509 -0.3584 -0.0381
  318loPI   PO4 5076   3.129  17.571  10.024 -0.0264 -0.0911  0.0649
  318loPI   GL1 5077   3.063  17.627   9.531  0.1659  0.1786  0.0693
  318loPI   GL2 5078   2.805  17.628   9.467 -0.0929  0.2442  0.3128
  318loPI   C1A 5079   3.357  17.649   9.158  0.0296 -0.0651  0.0584
  318loPI   C2A 5080   3.708  17.757   9.032  0.0841 -0.1571 -0.1307
  318loPI   C3A 5081   4.040  17.646   8.762  0.0880  0.4460 -0.0367
  318loPI   C4A 5082   4.379  17.930   8.752 -0.0782 -0.3224 -0.2280
  318loPI   C5A 5083   4.720  18.215   8.741 -0.1470 -0.4164  0.0112
  318loPI   C6A 5084   4.596  18.361   8.336  0.0534  0.2060 -0.2696
  318loPI   C1B 5085   2.725  17.943   9.076  0.1529  0.0686 -0.0133
  318loPI   C2B 5086   2.888  18.020   8.674  0.2745  0.2591 -0.3506
  318loPI   C3B 5087   2.923  17.999   8.230 -0.0153  0.0688 -0.2302
  318loPI   C4B 5088   2.695  18.083   7.967  0.1817 -0.1236 -0.0021
  319loPI    C1 5089   6.136   9.339   9.971  0.1614  0.2170 -0.1442
  319loPI    C2 5090   6.014   9.019  10.178  0.2202  0.1720 -0.1785
  319loPI    C3 5091   5.891   9.385  10.284  0.5264  0.1835  0.1535
  319loPI   PO4 5092   6.318   9.156   9.810  0.2505  0.1958  0.3498
  319loPI   GL1 5093   6.463   9.299   9.519  0.4889  0.3127 -0.3152
  319loPI   GL2 5094   6.736   9.170   9.386 -0.1972 -0.2650  0.2694
  319loPI   C1A 5095   6.164   9.248   9.181  0.1560  0.0053  0.2863
  319loPI   C2A 5096   6.134   9.466   8.777  0.2783 -0.2305  0.3290
  319loPI   C3A 5097   6.008   9.484   8.460 -0.0978  0.2639  0.1580
  319loPI   C4A 5098   5.987   9.646   7.999 -0.0815  0.0961  0.0195
  319loPI   C5A 5099   5.890   9.516   7.562 -0.0627 -0.0094 -0.0388
  319loPI   C6A 5100   5.791   9.295   7.302  0.0544  0.0769  0.0853
  319loPI   C1B 5101   6.547   8.929   9.030 -0.2173 -0.1140 -0.1077
  319loPI   C2B 5102   6.331   8.804   8.616 -0.1865 -0.0235 -0.3797
  319loPI   C3B 5103   6.162   9.074   8.284 -0.0509 -0.0033 -0.1843
  319loPI   C4B 5104   5.918   9.148   7.973  0.2298  0.0526  0.1109
  320loPI    C1 5105   2.525   8.482  10.171 -0.0656 -0.2566 -0.1948
  320loPI    C2 5106   2.804   8.217  10.278  0.1133 -0.0648 -0.1798
  320loPI    C3 5107   2.822   8.593  10.414  0.0902  0.0634 -0.5200
  320loPI   PO4 5108   2.483   8.522   9.895 -0.1157 -0.2538  0.1431
  320loPI   GL1 5109   2.175   8.629   9.650 -0.1043 -0.0999  0.0596
  320loPI   GL2 5110   1.931   8.661   9.606 -0.2164  0.4429 -0.0243
  320loPI   C1A 5111   2.251   8.765   9.208 -0.3366  0.1072  0.3933
  320loPI   C2A 5112   2.385   8.977   8.844 -0.1776 -0.2776  0.0013
  320loPI   C3A 5113   2.464   9.209   8.488 -0.1275  0.0293 -0.2917
  320loPI   C4A 5114   2.350   9.009   8.128 -0.2324 -0.2990 -0.2256
  320loPI   C5A 5115   2.073   9.088   7.756 -0.0229  0.1480 -0.0768
  320loPI   C6A 5116   2.046   8.880   7.342 -0.1193  0.0493  0.0652
  320loPI   C1B 5117   1.780   8.556   9.245 -0.2187 -0.1263 -0.1650
  320loPI   C2B 5118   1.698   8.375   8.796  0.1545 -0.1832  0.0964
  320loPI   C3B 5119   1.637   8.232   8.416  0.1685 -0.1610  0.2707
  320loPI   C4B 5120   1.464   8.280   7.925 -0.0078 -0.5983 -0.0433
  321loPI    C1 5121   3.579  14.193   9.625  0.2707 -0.1475  0.1320
  321loPI    C2 5122   3.376  13.850   9.662  0.0700 -0.0053  0.3863
  321loPI    C3 5123   3.563  14.007   9.979 -0.2061  0.3416  0.3839
  321loPI   PO4 5124   3.663  14.146   9.408  0.2278 -0.0792  0.0823
  321loPI   GL1 5125   3.650  14.327   8.973  0.1507 -0.0455  0.3262
  321loPI   GL2 5126   3.898  14.533   9.017  0.1079 -0.1289  0.5032
  321loPI   C1A 5127   3.538  14.158   8.527 -0.0164  0.0248  0.2846
  321loPI   C2A 5128   3.573  14.298   8.082  0.3093 -0.3687 -0.2942
  321loPI   C3A 5129   3.680  14.454   7.600  0.1895  0.0263 -0.0039
  321loPI   C4A 5130   3.767  14.297   7.203 -0.4199  0.0003  0.2632
  321loPI   C5A 5131   3.878  13.854   7.106  0.2445 -0.3141  0.1528
  321loPI   C6A 5132   4.281  13.604   7.225  0.0717 -0.1229  0.2451
  321loPI   C1B 5133   3.789  14.630   8.520  0.0764  0.0660 -0.3328
  321loPI   C2B 5134   3.434  14.747   8.263  0.0275 -0.0593 -0.2615
  321loPI   C3B 5135   3.337  14.799   7.914  0.1502  0.1018 -0.0658
  321loPI   C4B 5136   3.323  14.786   7.522  0.0259 -0.0725  0.0955
  322loPI    C1 5137  13.216  18.606   9.991 -0.2938  0.3200 -0.0549
  322loPI    C2 5138  13.027  18.256   9.951  0.1753  0.0315  0.1725
  322loPI    C3 5139  13.071  18.419  10.314 -0.2558  0.4573  0.0429
  322loPI   PO4 5140  13.425  18.532   9.787  0.1319  0.1513  0.3471
  322loPI   GL1 5141  13.279  18.288   9.458  0.3030 -0.1211  0.0045
  322loPI   GL2 5142  13.022  18.127   9.481  0.0204  0.2716 -0.0737
  322loPI   C1A 5143  13.350  18.478   9.044 -0.2589 -0.2227  0.0910
  322loPI   C2A 5144  13.371  18.605   8.627 -0.0577  0.5013 -0.1029
  322loPI   C3A 5145  13.326  18.371   8.267  0.0868 -0.1865 -0.0862
  322loPI   C4A 5146  13.146  18.464   7.891  0.1589  0.1915  0.1306
  322loPI   C5A 5147  12.963  18.295   7.605 -0.1228 -0.1314  0.0915
  322loPI   C6A 5148  13.108  18.023   7.349  0.0231  0.1048  0.3882
  322loPI   C1B 5149  13.131  17.779   9.334  0.2617  0.2808 -0.2461
  322loPI   C2B 5150  13.161  17.572   8.937  0.1515  0.0621  0.1203
  322loPI   C3B 5151  13.285  17.497   8.496 -0.0980  0.4816 -0.0647
  322loPI   C4B 5152  13.476  17.486   8.129  0.1426  0.0892 -0.0040
  323loPI    C1 5153  13.593  11.696   9.946  0.1986  0.1722 -0.0426
  323loPI    C2 5154  13.453  11.669  10.319  0.0532 -0.0236 -0.1096
  323loPI    C3 5155  13.775  11.894  10.242  0.0011  0.1294  0.1090
  323loPI   PO4 5156  13.512  11.805   9.748 -0.0626 -0.0028  0.1658
  323loPI   GL1 5157  13.447  11.894   9.343 -0.0002 -0.1199 -0.1111
  323loPI   GL2 5158  13.247  11.750   9.245  0.2145 -0.0487  0.2369
  323loPI   C1A 5159  13.657  11.923   8.900 -0.0031  0.1375 -0.1411
  323loPI   C2A 5160  13.853  11.796   8.420  0.0246 -0.0399 -0.0089
  323loPI   C3A 5161  13.764  11.792   7.944  0.2579 -0.1920  0.1448
  323loPI   C4A 5162  13.793  11.664   7.484 -0.0765  0.1870  0.1181
  323loPI   C5A 5163  14.073  11.574   7.282  0.0245  0.0157 -0.0010
  323loPI   C6A 5164  14.386  11.412   7.469  0.0090  0.0109  0.2041
  323loPI   C1B 5165  13.168  12.034   8.955 -0.1072  0.0032  0.1485
  323loPI   C2B 5166  13.289  12.117   8.535  0.1108 -0.0663 -0.0195
  323loPI   C3B 5167  13.378  11.952   8.228 -0.1452 -0.1308  0.2253
  323loPI   C4B 5168  13.349  11.955   7.747 -0.1524 -0.2851  0.1841
  324loPI    C1 5169   8.954   2.429   9.991  0.0831  0.1348  0.1716
  324loPI    C2 5170   8.931   2.811   9.876  0.2048  0.1490  0.1927
  324loPI    C3 5171   9.279   2.661  10.003  0.1605  0.0274  0.1722
  324loPI   PO4 5172   8.838   2.285   9.742 -0.2325 -0.1468  0.1513
  324loPI   GL1 5173   8.839   2.146   9.310 -0.1023 -0.0328  0.0020
  324loPI   GL2 5174   8.570   2.201   9.145 -0.2503  0.4213 -0.2579
  324loPI   C1A 5175   9.019   1.872   8.843  0.2905 -0.0919 -0.0589
  324loPI   C2A 5176   9.023   1.910   8.393  0.0375  0.1749  0.2607
  324loPI   C3A 5177   8.855   2.098   7.993 -0.1775  0.0696  0.0317
  324loPI   C4A 5178   8.783   2.021   7.613 -0.2219  0.2550  0.0232
  324loPI   C5A 5179   8.670   1.839   7.322  0.0689  0.1121 -0.0841
  324loPI   C6A 5180   8.724   1.440   7.202  0.1434 -0.5357  0.1370
  324loPI   C1B 5181   8.601   2.248   8.757 -0.1608 -0.1678 -0.0286
  324loPI   C2B 5182   8.585   2.330   8.348  0.1924  0.2431  0.0212
  324loPI   C3B 5183   8.523   2.438   7.937 -0.0798 -0.2723 -0.2377
  324loPI   C4B 5184   8.470   2.421   7.504 -0.2411 -0.1461  0.2922
  325loPI    C1 5185  12.594   8.173   9.831 -0.1510 -0.1769  0.1767
  325loPI    C2 5186  12.480   8.557   9.834 -0.1655 -0.1759 -0.1579
  325loPI    C3 5187  12.521   8.358  10.178 -0.1161  0.1371  0.0210
  325loPI   PO4 5188  12.506   8.059   9.663  0.2076  0.0934  0.1132
  325loPI   GL1 5189  12.412   7.847   9.235  0.0589  0.1588 -0.0785
  325loPI   GL2 5190  12.150   8.048   9.004  0.3162  0.1439  0.2534
  325loPI   C1A 5191  12.523   7.753   8.867 -0.2768 -0.0179 -0.0682
  325loPI   C2A 5192  12.470   7.672   8.490 -0.0981 -0.0464  0.1162
  325loPI   C3A 5193  12.491   7.576   8.143  0.1298 -0.0836  0.0686
  325loPI   C4A 5194  12.513   7.509   7.692 -0.0660  0.2286 -0.1505
  325loPI   C5A 5195  12.349   7.374   7.256  0.0415 -0.2066 -0.3911
  325loPI   C6A 5196  12.403   7.485   6.860 -0.0483  0.3812 -0.0374
  325loPI   C1B 5197  12.217   8.274   8.598  0.2740  0.0631 -0.1570
  325loPI   C2B 5198  11.749   8.301   8.372 -0.0311 -0.1439  0.0470
  325loPI   C3B 5199  11.781   8.494   8.045  0.3216 -0.1611 -0.1522
  325loPI   C4B 5200  12.032   8.510   7.595  0.0385  0.3295  0.4449
  326loPI    C1 5201   7.720   5.233   9.185 -0.0590  0.0503  0.1496
  326loPI    C2 5202   7.983   5.346   9.464  0.0835  0.0103  0.0327
  326loPI    C3 5203   7.706   5.071   9.550  0.0097  0.1318  0.1889
  326loPI   PO4 5204   7.631   5.382   9.041 -0.1998  0.0610 -0.1500
  326loPI   GL1 5205   7.820   5.564   8.632  0.1722  0.4860  0.1330
  326loPI   GL2 5206   7.898   5.286   8.631  0.1133 -0.2272 -0.0055
  326loPI   C1A 5207   7.422   5.726   8.512  0.1042  0.0248  0.3745
  326loPI   C2A 5208   7.190   5.720   8.133 -0.0155 -0.2739  0.2675
  326loPI   C3A 5209   7.176   5.752   7.717 -0.1228 -0.0793  0.1141
  326loPI   C4A 5210   7.289   5.683   7.373 -0.2802 -0.2234  0.1270
  326loPI   C5A 5211   7.562   5.762   6.921  0.4459 -0.0748  0.1484
  326loPI   C6A 5212   7.914   5.478   6.805  0.0384  0.1115 -0.4500
  326loPI   C1B 5213   8.234   5.281   8.337 -0.2028 -0.0479  0.2843
  326loPI   C2B 5214   8.321   5.479   7.934 -0.3107 -0.1556  0.0419
  326loPI   C3B 5215   8.163   5.819   7.686 -0.0010  0.0315 -0.1247
  326loPI   C4B 5216   7.829   5.727   7.364 -0.2441 -0.0029 -0.0470
  327loPI    C1 5217   6.866   5.987   9.080 -0.0601  0.1393 -0.1312
  327loPI    C2 5218   7.165   5.950   8.816 -0.0436 -0.2031 -0.0684
  327loPI    C3 5219   6.882   6.227   8.760  0.1200 -0.0771 -0.2878
  327loPI   PO4 5220   6.703   5.792   9.138  0.0402  0.1734 -0.3114
  327loPI   GL1 5221   6.762   5.599   8.781  0.2078  0.1950 -0.2189
  327loPI   GL2 5222   6.685   5.344   8.683  0.2775 -0.1135 -0.1046
  327loPI   C1A 5223   6.879   5.872   8.452  0.2810 -0.1823 -0.3040
  327loPI   C2A 5224   6.798   6.017   8.070  0.1153  0.2362  0.1698
  327loPI   C3A 5225   6.698   6.130   7.764 -0.0282  0.1392 -0.0312
  327loPI   C4A 5226   6.880   6.083   7.318 -0.1677 -0.0455 -0.2637
  327loPI   C5A 5227   7.107   6.080   6.970 -0.0786  0.0718 -0.0263
  327loPI   C6A 5228   7.341   6.227   6.564 -0.4526 -0.1492 -0.0953
  327loPI   C1B 5229   6.529   5.463   8.327 -0.3908 -0.0136 -0.3459
  327loPI   C2B 5230   6.642   5.542   7.963  0.1959  0.3830 -0.0239
  327loPI   C3B 5231   6.741   5.520   7.546  0.0555 -0.0319 -0.2041
  327loPI   C4B 5232   6.834   5.654   7.090  0.0754  0.0220  0.2266
  328loPI    C1 5233  18.839  16.589   9.985 -0.1425 -0.1196  0.1962
  328loPI    C2 5234  19.109  16.879   9.932  0.0200 -0.3041 -0.0035
  328loPI    C3 5235  19.080  16.696  10.286 -0.1787  0.0466  0.1672
  328loPI   PO4 5236  18.871  16.410   9.780  0.0721 -0.1189 -0.1421
  328loPI   GL1 5237  19.205  16.170   9.573 -0.1923 -0.1690 -0.0662
  328loPI   GL2 5238  18.940  16.226   9.306  0.1442  0.1506  0.2198
  328loPI   C1A 5239  19.421  16.331   9.146 -0.0729 -0.0320  0.2997
  328loPI   C2A 5240  19.304  16.275   8.771 -0.0056  0.0478 -0.0136
  328loPI   C3A 5241  19.115  16.379   8.418  0.2264  0.1590  0.2820
  328loPI   C4A 5242  19.078  16.435   7.944  0.2084 -0.1374 -0.0475
  328loPI   C5A 5243  19.038  16.087   7.776 -0.0263 -0.3040  0.3404
  328loPI   C6A 5244  18.813  15.708   7.893 -0.2185 -0.2464  0.0193
  328loPI   C1B 5245  18.906  16.393   8.993 -0.0526  0.1689 -0.3807
  328loPI   C2B 5246  19.013  16.813   8.788 -0.0244  0.3092 -0.1869
  328loPI   C3B 5247  19.020  16.950   8.361  0.0421  0.1789  0.0333
  328loPI   C4B 5248  19.074  17.131   7.968  0.3472 -0.0578  0.0022
  329loPI    C1 5249   2.319   4.800  10.109  0.0863  0.2141  0.1198
  329loPI    C2 5250   1.958   4.630  10.132  0.1485  0.0512 -0.0839
  329loPI    C3 5251   1.994   5.027  10.160 -0.0160  0.0474  0.2184
  329loPI   PO4 5252   2.435   4.584   9.925 -0.4010  0.0994 -0.0347
  329loPI   GL1 5253   2.533   4.566   9.474 -0.0408  0.5882 -0.1964
  329loPI   GL2 5254   2.360   4.825   9.263 -0.3445 -0.1500  0.2600
  329loPI   C1A 5255   2.476   4.287   9.134 -0.0965 -0.2028 -0.1353
  329loPI   C2A 5256   2.386   4.355   8.661 -0.1410 -0.2450  0.0223
  329loPI   C3A 5257   2.282   4.354   8.213 -0.0700  0.0584  0.1896
  329loPI   C4A 5258   1.947   4.423   7.829 -0.1863 -0.2759  0.2659
  329loPI   C5A 5259   1.675   4.188   7.614 -0.0067 -0.0696  0.0105
  329loPI   C6A 5260   1.361   4.229   7.338  0.0654  0.0537  0.0236
  329loPI   C1B 5261   2.034   4.894   9.030 -0.1680  0.1059  0.1217
  329loPI   C2B 5262   1.646   4.962   8.910  0.1021  0.1664 -0.3183
  329loPI   C3B 5263   1.576   5.066   8.503  0.1367 -0.2202  0.2026
  329loPI   C4B 5264   1.677   5.267   8.232 -0.2353 -0.1269 -0.0920
  330loPI    C1 5265   4.233   6.779   9.853 -0.1904 -0.0683  0.0899
  330loPI    C2 5266   4.356   7.158   9.824 -0.0934 -0.1171 -0.1687
  330loPI    C3 5267   4.268   7.003  10.182  0.1648  0.0550 -0.0273
  330loPI   PO4 5268   4.406   6.645   9.623  0.1334 -0.4948 -0.0139
  330loPI   GL1 5269   4.481   6.953   9.175  0.0020 -0.3251  0.1064
  330loPI   GL2 5270   4.253   7.042   9.326  0.1875 -0.1238  0.1121
  330loPI   C1A 5271   4.761   6.889   8.766 -0.1865  0.0445 -0.0226
  330loPI   C2A 5272   4.795   6.813   8.335  0.2071  0.0435 -0.2392
  330loPI   C3A 5273   4.674   6.598   7.864 -0.0051 -0.0921 -0.1151
  330loPI   C4A 5274   4.727   6.713   7.445 -0.1148 -0.0643  0.2700
  330loPI   C5A 5275   4.587   6.441   7.184  0.3277  0.2971  0.1959
  330loPI   C6A 5276   4.550   6.370   6.764 -0.0371 -0.1875  0.2227
  330loPI   C1B 5277   4.082   7.237   8.928  0.1307  0.2579 -0.2508
  330loPI   C2B 5278   3.973   7.156   8.492  0.1948 -0.1503 -0.0171
  330loPI   C3B 5279   3.859   7.252   7.920  0.4086  0.2883  0.0649
  330loPI   C4B 5280   3.691   7.148   7.581 -0.1185  0.1484  0.0480
  331loPI    C1 5281  14.830   7.673   9.851 -0.1383 -0.0753  0.0804
  331loPI    C2 5282  15.194   7.818   9.929 -0.1204 -0.0727 -0.0061
  331loPI    C3 5283  14.930   7.771  10.225 -0.0006 -0.2110  0.0801
  331loPI   PO4 5284  14.855   7.590   9.597 -0.2334 -0.1993 -0.3326
  331loPI   GL1 5285  14.973   7.583   9.248  0.1420  0.0256  0.2661
  331loPI   GL2 5286  15.159   7.276   9.128 -0.1212 -0.2416  0.0154
  331loPI   C1A 5287  14.841   7.586   8.875  0.0709  0.1433 -0.0837
  331loPI   C2A 5288  14.701   7.656   8.497  0.0406 -0.2470 -0.2899
  331loPI   C3A 5289  14.622   7.747   8.092  0.0309  0.3187 -0.1199
  331loPI   C4A 5290  14.650   7.671   7.633 -0.1001 -0.0938 -0.0642
  331loPI   C5A 5291  14.577   8.007   7.260 -0.1362 -0.0354  0.0225
  331loPI   C6A 5292  14.215   8.211   7.160  0.0277  0.0415  0.2053
  331loPI   C1B 5293  15.291   7.393   8.673  0.1508 -0.1523  0.0982
  331loPI   C2B 5294  15.162   7.584   8.324 -0.2384  0.0312 -0.1470
  331loPI   C3B 5295  15.067   7.615   7.972  0.3820  0.2100 -0.1187
  331loPI   C4B 5296  15.078   7.400   7.599  0.0715 -0.0654  0.1095
  332loPI    C1 5297   2.624  10.451   9.952  0.0464 -0.1988  0.0414
  332loPI    C2 5298   2.336  10.380   9.683 -0.0165  0.0313  0.0460
  332loPI    C3 5299   2.591  10.089   9.784 -0.0736 -0.0944 -0.1649
  332loPI   PO4 5300   2.515  10.815   9.945 -0.1592  0.0398  0.2360
  332loPI   GL1 5301   2.375  10.915   9.496  0.0230 -0.0726 -0.2245
  332loPI   GL2 5302   2.673  10.767   9.507 -0.0174 -0.1403 -0.1190
  332loPI   C1A 5303   2.159  11.062   9.132 -0.1204  0.1728 -0.0225
  332loPI   C2A 5304   2.115  11.230   8.674  0.0348 -0.0005 -0.0621
  332loPI   C3A 5305   2.055  11.214   8.243 -0.4945 -0.2730  0.3003
  332loPI   C4A 5306   2.019  11.286   7.853  0.0279  0.2338 -0.3106
  332loPI   C5A 5307   1.629  11.270   7.564 -0.0404 -0.1501  0.0175
  332loPI   C6A 5308   1.454  11.266   7.249  0.2273  0.2831  0.2236
  332loPI   C1B 5309   2.715  10.653   9.134  0.4288 -0.2334 -0.0280
  332loPI   C2B 5310   2.669  10.540   8.839  0.1946  0.1077 -0.0994
  332loPI   C3B 5311   2.703  10.422   8.399  0.2712 -0.2293 -0.1899
  332loPI   C4B 5312   2.669  10.388   7.934 -0.0060  0.1586 -0.0228
  333loPI    C1 5313  18.430   9.524   9.672 -0.0363 -0.2019  0.1108
  333loPI    C2 5314  18.741   9.387   9.462  0.0315 -0.0682  0.1228
  333loPI    C3 5315  18.390   9.194   9.449  0.0688 -0.1282 -0.0184
  333loPI   PO4 5316  18.406   9.743   9.631  0.0607  0.2185  0.1101
  333loPI   GL1 5317  18.281   9.915   9.301 -0.1053  0.0069 -0.3399
  333loPI   GL2 5318  18.349   9.699   9.007 -0.0085 -0.2029  0.0076
  333loPI   C1A 5319  18.136  10.176   8.922  0.0835 -0.2740 -0.0540
  333loPI   C2A 5320  17.968  10.100   8.508  0.4274  0.0948 -0.2810
  333loPI   C3A 5321  17.969  10.014   8.106  0.1643  0.0747 -0.4198
  333loPI   C4A 5322  17.779  10.272   7.839  0.3360  0.2324 -0.3010
  333loPI   C5A 5323  17.626  10.385   7.470  0.1919  0.0399 -0.2221
  333loPI   C6A 5324  17.269  10.629   7.276 -0.0368 -0.3588 -0.0526
  333loPI   C1B 5325  18.336   9.789   8.589 -0.0636 -0.3728 -0.2077
  333loPI   C2B 5326  18.158   9.556   8.327  0.4252  0.0350  0.1362
  333loPI   C3B 5327  18.048   9.574   7.924  0.1434  0.0006  0.1981
  333loPI   C4B 5328  18.033   9.874   7.525 -0.2656  0.1830 -0.1685
  334loPI    C1 5329  10.461  18.247   9.950  0.0641  0.1332 -0.1264
  334loPI    C2 5330  10.368  17.899   9.777  0.1882 -0.0230  0.1155
  334loPI    C3 5331  10.194  18.004  10.122  0.2425  0.0973  0.1067
  334loPI   PO4 5332  10.475  18.377   9.738  0.0913 -0.0241  0.3664
  334loPI   GL1 5333  10.739  18.144   9.398 -0.4095  0.0931  0.0660
  334loPI   GL2 5334  10.701  18.313   9.269 -0.2980 -0.2137 -0.2925
  334loPI   C1A 5335  10.783  17.886   9.036  0.0674  0.1423  0.1840
  334loPI   C2A 5336  10.852  17.834   8.543 -0.0341  0.0100  0.1025
  334loPI   C3A 5337  11.018  17.665   8.289 -0.0413  0.2746  0.1641
  334loPI   C4A 5338  10.995  17.444   7.920  0.0224  0.2135  0.0682
  334loPI   C5A 5339  11.133  17.189   7.511  0.1668  0.2693  0.0239
  334loPI   C6A 5340  11.249  17.310   7.114 -0.0462 -0.0695 -0.2445
  334loPI   C1B 5341  10.656  18.383   8.865  0.2882  0.2226  0.1903
  334loPI   C2B 5342  10.537  18.304   8.465 -0.1508  0.3584 -0.1477
  334loPI   C3B 5343  10.442  18.177   8.029  0.2146 -0.1749 -0.1081
  334loPI   C4B 5344  10.519  17.960   7.649  0.2265  0.0338 -0.2244
  335loPI    C1 5345   6.258   4.061   9.299 -0.0794 -0.0787  0.0931
  335loPI    C2 5346   6.367   4.338   9.566  0.1692 -0.1834  0.1027
  335loPI    C3 5347   6.302   3.961   9.684  0.2804 -0.2300  0.0170
  335loPI   PO4 5348   6.367   4.149   9.110 -0.0266  0.1406  0.2355
  335loPI   GL1 5349   6.499   4.212   8.740  0.0552  0.2133  0.1074
  335loPI   GL2 5350   6.744   4.480   8.715 -0.1038 -0.1805  0.0039
  335loPI   C1A 5351   6.316   4.223   8.324  0.0745  0.0515 -0.1889
  335loPI   C2A 5352   6.124   4.193   7.869 -0.2186 -0.2666  0.3488
  335loPI   C3A 5353   5.781   4.147   7.623 -0.4077  0.2634 -0.0730
  335loPI   C4A 5354   5.453   3.959   7.399  0.2541 -0.0457 -0.5560
  335loPI   C5A 5355   5.196   3.646   7.259 -0.0228 -0.1505  0.1689
  335loPI   C6A 5356   4.829   3.602   7.242  0.0778 -0.1021  0.1575
  335loPI   C1B 5357   6.750   4.437   8.221  0.1856 -0.0967 -0.2852
  335loPI   C2B 5358   6.568   4.370   7.859 -0.1736  0.0630 -0.5427
  335loPI   C3B 5359   6.392   4.464   7.526  0.0348  0.1398  0.0584
  335loPI   C4B 5360   6.074   4.552   7.311  0.1069 -0.1477  0.0876
  336loPI    C1 5361  12.302   6.375   9.879  0.1281 -0.0347 -0.0278
  336loPI    C2 5362  12.055   6.613   9.673 -0.0198 -0.1141  0.0563
  336loPI    C3 5363  12.104   6.668  10.066 -0.0084 -0.1845  0.0650
  336loPI   PO4 5364  12.558   6.476   9.630  0.2834  0.4412  0.1528
  336loPI   GL1 5365  12.676   6.361   9.228  0.3094 -0.1357 -0.2038
  336loPI   GL2 5366  12.762   6.053   9.053 -0.1121 -0.1471  0.0067
  336loPI   C1A 5367  12.495   6.365   8.758  0.0285 -0.0071  0.5194
  336loPI   C2A 5368  12.067   6.310   8.757  0.0660  0.1454 -0.1016
  336loPI   C3A 5369  11.891   6.256   8.387  0.0373  0.0875  0.0006
  336loPI   C4A 5370  11.732   6.348   8.073  0.0189  0.0558 -0.0626
  336loPI   C5A 5371  11.860   6.753   7.841 -0.0668 -0.1515  0.0258
  336loPI   C6A 5372  12.212   7.040   7.656 -0.2690 -0.1879 -0.1796
  336loPI   C1B 5373  12.744   5.968   8.631 -0.4101 -0.2464  0.1880
  336loPI   C2B 5374  12.879   6.216   8.277  0.1109 -0.1302  0.1788
  336loPI   C3B 5375  12.819   6.381   7.867  0.2234  0.2081 -0.0997
  336loPI   C4B 5376  12.498   6.620   7.687 -0.2418  0.1411 -0.1647
  337loPI    C1 5377  12.475   1.988   9.945  0.2044  0.1287 -0.0443
  337loPI    C2 5378  12.845   2.042  10.086  0.1140 -0.1952  0.3347
  337loPI    C3 5379  12.560   1.894  10.324 -0.2105 -0.1438 -0.0122
  337loPI   PO4 5380  12.579   1.877   9.676 -0.0969 -0.1227 -0.0003
  337loPI   GL1 5381  12.734   1.856   9.293 -0.3309  0.0684 -0.2245
  337loPI   GL2 5382  12.620   1.670   9.226 -0.1408  0.0105 -0.0064
  337loPI   C1A 5383  12.958   1.862   8.850 -0.3446  0.1941  0.1198
  337loPI   C2A 5384  13.269   1.925   8.497 -0.1127  0.0814  0.1169
  337loPI   C3A 5385  13.560   2.004   8.168 -0.0420 -0.4193 -0.0514
  337loPI   C4A 5386  13.658   2.091   7.751  0.1896 -0.1477 -0.0142
  337loPI   C5A 5387  13.558   1.774   7.478 -0.2214  0.2652  0.5174
  337loPI   C6A 5388  13.354   1.566   7.095  0.2768 -0.1052 -0.2569
  337loPI   C1B 5389  12.898   1.376   9.040 -0.3473 -0.6261  0.0789
  337loPI   C2B 5390  13.097   1.309   8.661  0.1581  0.1362  0.0208
  337loPI   C3B 5391  13.037   1.211   8.262 -0.0288  0.0492  0.0238
  337loPI   C4B 5392  12.836   1.105   7.870  0.1019 -0.0835  0.3284
  338loPI    C1 5393   6.256  18.241   9.856 -0.0642 -0.0494  0.0307
  338loPI    C2 5394   5.883  18.254   9.712  0.0575 -0.0906 -0.2975
  338loPI    C3 5395   5.945  18.264  10.107 -0.2770  0.1791 -0.2467
  338loPI   PO4 5396   6.330  18.497   9.693  0.1492  0.0132  0.0917
  338loPI   GL1 5397   6.059  18.664   9.355  0.2092  0.1434  0.1153
  338loPI   GL2 5398   6.347  18.594   9.215  0.1081  0.1273 -0.1416
  338loPI   C1A 5399   6.018  18.853   8.908  0.4108  0.3258  0.5314
  338loPI   C2A 5400   5.969  18.799   8.460 -0.1015  0.1952  0.2440
  338loPI   C3A 5401   5.917  18.687   8.019 -0.2238  0.0258 -0.1737
  338loPI   C4A 5402   5.579  18.842   7.896  0.0746 -0.1157 -0.1203
  338loPI   C5A 5403   5.549  18.899   7.421  0.0193 -0.0212  0.4364
  338loPI   C6A 5404   5.655  18.603   7.135  0.2150 -0.2790 -0.1063
  338loPI   C1B 5405   6.478  18.670   8.807  0.3311  0.2349  0.0388
  338loPI   C2B 5406   6.456  18.616   8.344  0.3125  0.1923 -0.3101
  338loPI   C3B 5407   6.493  18.506   7.917  0.0388 -0.0539 -0.2638
  338loPI   C4B 5408   6.218  18.278   7.713 -0.1732  0.2676  0.1886
  339loPI    C1 5409  11.007  17.646   9.693  0.1098  0.1492  0.1382
  339loPI    C2 5410  10.976  18.015   9.844 -0.0219  0.1085  0.2128
  339loPI    C3 5411  11.066  17.708  10.084 -0.3300  0.0279  0.2284
  339loPI   PO4 5412  10.766  17.596   9.577  0.0682 -0.1692  0.3724
  339loPI   GL1 5413  10.626  17.425   9.137 -0.1623  0.3481  0.0178
  339loPI   GL2 5414  10.297  17.287   9.095 -0.2323 -0.1095  0.2421
  339loPI   C1A 5415  10.585  17.449   8.738 -0.3997 -0.0892  0.0027
  339loPI   C2A 5416  10.672  17.270   8.383 -0.0342  0.1556  0.2565
  339loPI   C3A 5417  10.826  16.780   8.357  0.1454 -0.2730 -0.2028
  339loPI   C4A 5418  10.963  16.376   8.014  0.0066  0.3689 -0.0013
  339loPI   C5A 5419  10.970  16.006   7.686  0.4674 -0.0353 -0.1549
  339loPI   C6A 5420  10.800  15.625   7.449 -0.0384  0.1349  0.0361
  339loPI   C1B 5421  10.099  17.492   8.798  0.0516 -0.0176 -0.2078
  339loPI   C2B 5422   9.852  17.585   8.504 -0.0642 -0.2264  0.0904
  339loPI   C3B 5423   9.785  17.436   8.103 -0.0964 -0.2039  0.0327
  339loPI   C4B 5424   9.857  17.281   7.692 -0.1108 -0.0140 -0.1254
  340loPI    C1 5425  11.566  19.336   9.741 -0.0095  0.0952 -0.1480
  340loPI    C2 5426  11.422  19.170  10.075  0.3391  0.0192 -0.0309
  340loPI    C3 5427  11.305  19.033   9.718 -0.1020  0.1578  0.0536
  340loPI   PO4 5428  11.623  19.517   9.807  0.1812 -0.0408  0.0255
  340loPI   GL1 5429  11.872  19.913   9.523  0.1557 -0.3045  0.4501
  340loPI   GL2 5430  12.051  19.570   9.463  0.2469 -0.2243 -0.0254
  340loPI   C1A 5431  11.661  20.118   9.200 -0.2987  0.1569 -0.3091
  340loPI   C2A 5432  11.558  20.089   8.800  0.2847  0.0493  0.1192
  340loPI   C3A 5433  11.673  20.078   8.322  0.2889 -0.5289  0.0375
  340loPI   C4A 5434  11.620  19.985   7.886 -0.2881 -0.3254 -0.0400
  340loPI   C5A 5435  11.623  19.702   7.568 -0.0442 -0.2386  0.0854
  340loPI   C6A 5436  11.736  19.487   7.270 -0.1031  0.1874 -0.2122
  340loPI   C1B 5437  12.047  19.823   9.003  0.1897  0.2351  0.2030
  340loPI   C2B 5438  12.009  19.850   8.581 -0.0733 -0.3701 -0.1262
  340loPI   C3B 5439  12.172  19.937   8.188 -0.1987  0.1847  0.0460
  340loPI   C4B 5440  12.489  20.084   7.894  0.1370 -0.1115 -0.3223
  341loPI    C1 5441  11.732   8.351   9.639 -0.1005  0.1185 -0.0223
  341loPI    C2 5442  11.945   8.666   9.762 -0.0376  0.0150  0.1380
  341loPI    C3 5443  12.024   8.303   9.908 -0.1544 -0.0650  0.0049
  341loPI   PO4 5444  11.765   8.337   9.320 -0.1641  0.4645  0.2686
  341loPI   GL1 5445  11.693   8.243   8.958  0.1201 -0.2990 -0.2116
  341loPI   GL2 5446  11.409   8.149   8.845 -0.3577 -0.1026 -0.0710
  341loPI   C1A 5447  11.852   8.646   8.705  0.2557 -0.0171  0.2018
  341loPI   C2A 5448  12.091   8.714   8.372 -0.0107  0.0506  0.0969
  341loPI   C3A 5449  12.134   8.921   7.866 -0.1560 -0.0902 -0.1342
  341loPI   C4A 5450  12.236   8.901   7.366  0.1094  0.0074 -0.2556
  341loPI   C5A 5451  12.192   8.443   7.146  0.1730 -0.1568 -0.0227
  341loPI   C6A 5452  12.133   8.028   6.907 -0.0782 -0.2815  0.1602
  341loPI   C1B 5453  11.244   8.308   8.432  0.2632  0.3423 -0.0075
  341loPI   C2B 5454  11.314   8.534   8.069 -0.6150 -0.0562  0.3035
  341loPI   C3B 5455  11.232   8.632   7.686 -0.2341  0.0811  0.4501
  341loPI   C4B 5456  11.069   8.874   7.391 -0.1808 -0.2633  0.4560
  342loPI    C1 5457  18.788   2.188   9.815  0.1478 -0.1032 -0.0027
  342loPI    C2 5458  18.489   2.021  10.022  0.1201  0.0307  0.0666
  342loPI    C3 5459  18.813   2.158  10.213  0.0514  0.2441  0.0332
  342loPI   PO4 5460  18.561   2.379   9.627  0.0629 -0.0645  0.3290
  342loPI   GL1 5461  18.413   2.444   9.160 -0.3491  0.3069 -0.0498
  342loPI   GL2 5462  18.136   2.135   9.138 -0.1426 -0.0944  0.3490
  342loPI   C1A 5463  18.258   2.589   8.861  0.0558 -0.0703  0.1560
  342loPI   C2A 5464  18.194   2.545   8.502  0.0957  0.1893  0.3072
  342loPI   C3A 5465  18.286   2.505   8.126 -0.4582 -0.5366 -0.0228
  342loPI   C4A 5466  18.385   2.420   7.699 -0.1540 -0.3209  0.0826
  342loPI   C5A 5467  18.647   2.338   7.435  0.0939 -0.0168  0.2609
  342loPI   C6A 5468  19.098   2.431   7.469  0.0706  0.0124 -0.1084
  342loPI   C1B 5469  18.170   2.102   8.768  0.1586  0.0803 -0.0634
  342loPI   C2B 5470  17.989   2.121   8.415 -0.2026  0.1848 -0.0001
  342loPI   C3B 5471  17.664   1.919   8.212  0.2205 -0.1324 -0.0173
  342loPI   C4B 5472  17.247   1.920   7.989  0.0839 -0.0593  0.1330
  343loPI    C1 5473   5.740   5.749   9.484 -0.2168 -0.0660 -0.1580
  343loPI    C2 5474   5.782   6.136   9.393  0.0194 -0.1898 -0.6119
  343loPI    C3 5475   6.048   5.957   9.631 -0.2612 -0.0081 -0.1464
  343loPI   PO4 5476   5.764   5.730   9.052  0.2950  0.1093 -0.1135
  343loPI   GL1 5477   5.765   5.992   8.705  0.1013 -0.0165 -0.0894
  343loPI   GL2 5478   5.578   6.243   8.995 -0.1049  0.0165  0.0981
  343loPI   C1A 5479   5.899   6.186   8.408  0.0718 -0.2430 -0.1756
  343loPI   C2A 5480   6.032   6.307   8.012  0.0787  0.2237 -0.0198
  343loPI   C3A 5481   6.238   6.420   7.655 -0.1550  0.2220 -0.3392
  343loPI   C4A 5482   6.538   6.480   7.404 -0.4575  0.0852  0.1803
  343loPI   C5A 5483   6.616   6.394   7.023 -0.3399  0.1329 -0.0915
  343loPI   C6A 5484   6.604   6.133   6.593  0.1677  0.3340 -0.0240
  343loPI   C1B 5485   5.554   6.498   8.671 -0.2942 -0.1039  0.0536
  343loPI   C2B 5486   5.620   6.610   8.285 -0.1090 -0.0789 -0.1128
  343loPI   C3B 5487   5.639   6.665   7.764 -0.1122 -0.1310  0.0071
  343loPI   C4B 5488   5.912   6.788   7.445  0.0315 -0.1430  0.1048
  344loPI    C1 5489  11.516   3.886   9.481  0.0384  0.1271 -0.1644
  344loPI    C2 5490  11.789   3.910   9.773 -0.0630 -0.0989 -0.0481
  344loPI    C3 5491  11.399   3.925   9.862 -0.0930  0.0054 -0.1915
  344loPI   PO4 5492  11.530   4.095   9.313 -0.1746  0.1045  0.0395
  344loPI   GL1 5493  11.780   3.906   8.958  0.4044 -0.2354 -0.0119
  344loPI   GL2 5494  12.062   3.927   8.909 -0.1547  0.0299 -0.0234
  344loPI   C1A 5495  11.593   4.110   8.505  0.3224 -0.0168  0.0229
  344loPI   C2A 5496  11.588   4.358   8.136  0.0589 -0.0848 -0.1046
  344loPI   C3A 5497  11.814   4.447   7.822 -0.1436 -0.1588 -0.1324
  344loPI   C4A 5498  11.685   4.606   7.405 -0.1795 -0.1604  0.1515
  344loPI   C5A 5499  11.609   4.417   7.081  0.3182 -0.0685 -0.3085
  344loPI   C6A 5500  11.718   3.956   6.981 -0.2552  0.2902 -0.0725
  344loPI   C1B 5501  12.092   3.934   8.374  0.1470  0.0800 -0.2532
  344loPI   C2B 5502  11.991   3.938   7.927  0.1704 -0.1367 -0.3760
  344loPI   C3B 5503  11.738   3.925   7.582 -0.0028 -0.1627 -0.2258
  344loPI   C4B 5504  11.335   4.024   7.285  0.1683  0.1347 -0.0087
  345loPI    C1 5505  13.902  16.763  10.309 -0.0110 -0.0212  0.0236
  345loPI    C2 5506  13.627  16.493  10.203  0.0494  0.0416 -0.3052
  345loPI    C3 5507  13.554  16.747  10.504 -0.0910 -0.2013 -0.1312
  345loPI   PO4 5508  13.945  16.850  10.064  0.0538  0.1229  0.5202
  345loPI   GL1 5509  14.010  16.552   9.718  0.2570  0.0466  0.1792
  345loPI   GL2 5510  13.687  16.592   9.721 -0.0630  0.1893 -0.1591
  345loPI   C1A 5511  13.991  16.361   9.284  0.0532 -0.0312 -0.1124
  345loPI   C2A 5512  13.973  16.275   8.828  0.0598 -0.1893  0.2552
  345loPI   C3A 5513  14.020  16.298   8.429  0.1063 -0.0430  0.0665
  345loPI   C4A 5514  13.949  16.169   7.981 -0.1679  0.0126  0.0577
  345loPI   C5A 5515  13.638  16.251   7.650  0.2018 -0.0658 -0.0083
  345loPI   C6A 5516  13.331  16.131   7.405  0.1846  0.4245 -0.2831
  345loPI   C1B 5517  13.661  16.756   9.391 -0.2057  0.3456  0.2237
  345loPI   C2B 5518  13.667  16.796   8.992  0.2404 -0.0566 -0.0767
  345loPI   C3B 5519  13.772  16.767   8.538  0.2363  0.1069 -0.3045
  345loPI   C4B 5520  14.071  16.711   8.112  0.0833 -0.1108  0.0147
  346loPI    C1 5521   8.228   3.902   9.531 -0.2202  0.0423  0.1816
  346loPI    C2 5522   8.507   4.177   9.611  0.0305 -0.1947  0.1344
  346loPI    C3 5523   8.298   4.013   9.909  0.1448 -0.2263  0.1981
  346loPI   PO4 5524   8.196   4.027   9.232  0.0476  0.1276 -0.3004
  346loPI   GL1 5525   8.130   3.907   8.863 -0.1913 -0.0641 -0.0751
  346loPI   GL2 5526   8.370   4.146   8.794  0.3986 -0.0318 -0.0910
  346loPI   C1A 5527   8.318   3.707   8.533 -0.1883 -0.1094 -0.0214
  346loPI   C2A 5528   8.232   3.793   8.127  0.1853  0.0394  0.2914
  346loPI   C3A 5529   8.311   3.823   7.684 -0.2859 -0.3169 -0.0857
  346loPI   C4A 5530   8.140   3.884   7.321 -0.0602 -0.3506  0.1758
  346loPI   C5A 5531   7.878   3.696   7.069  0.2843  0.1258  0.1172
  346loPI   C6A 5532   7.789   3.257   7.015 -0.0558  0.0036  0.0088
  346loPI   C1B 5533   8.307   4.237   8.320 -0.1228 -0.0520 -0.0035
  346loPI   C2B 5534   8.383   4.283   7.951 -0.0564  0.2968  0.0652
  346loPI   C3B 5535   8.112   4.313   7.601  0.4515 -0.0181  0.1180
  346loPI   C4B 5536   8.118   4.471   7.203 -0.0717 -0.1692  0.2084
  347loPI    C1 5537  16.419   5.014   9.771 -0.1709 -0.0639  0.0240
  347loPI    C2 5538  16.590   5.352   9.900 -0.0473 -0.0772 -0.1022
  347loPI    C3 5539  16.312   5.171  10.123  0.1089 -0.0593  0.1098
  347loPI   PO4 5540  16.631   5.007   9.517  0.4384 -0.0090  0.0754
  347loPI   GL1 5541  16.686   4.876   9.154  0.1781  0.1334 -0.0199
  347loPI   GL2 5542  16.614   4.640   9.016 -0.1666  0.1903  0.0730
  347loPI   C1A 5543  16.516   5.050   8.691 -0.2125 -0.5515  0.0727
  347loPI   C2A 5544  16.494   4.974   8.319 -0.1472  0.3572 -0.1859
  347loPI   C3A 5545  16.465   4.802   7.859  0.0404 -0.4926 -0.3235
  347loPI   C4A 5546  16.410   4.896   7.454  0.0248  0.0824  0.2351
  347loPI   C5A 5547  16.366   4.814   7.043  0.0768  0.0078 -0.2246
  347loPI   C6A 5548  16.336   5.049   6.638 -0.2521 -0.0500 -0.0359
  347loPI   C1B 5549  16.741   4.574   8.550 -0.1978  0.2428  0.2545
  347loPI   C2B 5550  16.761   4.482   8.102 -0.1871 -0.1730 -0.0221
  347loPI   C3B 5551  16.673   4.375   7.737  0.2245  0.2472  0.2065
  347loPI   C4B 5552  16.637   4.408   7.211 -0.1127  0.3371  0.1500
  348loPI    C1 5553   5.479   9.266   9.991  0.1611  0.2206 -0.0775
  348loPI    C2 5554   5.182   9.429   9.778  0.1241  0.1182 -0.1048
  348loPI    C3 5555   5.112   9.296  10.149  0.1268  0.0603 -0.1249
  348loPI   PO4 5556   5.639   9.180   9.837 -0.1493  0.1192  0.2989
  348loPI   GL1 5557   5.469   9.142   9.444 -0.3935  0.1354  0.4536
  348loPI   GL2 5558   5.262   9.319   9.241 -0.2668  0.0509  0.0634
  348loPI   C1A 5559   5.781   8.877   9.183  0.0262  0.2407  0.0062
  348loPI   C2A 5560   5.860   9.090   8.726  0.0478  0.1104  0.1035
  348loPI   C3A 5561   5.653   9.083   8.386  0.0496 -0.3148 -0.0742
  348loPI   C4A 5562   5.315   8.900   8.247 -0.0337  0.0727  0.0781
  348loPI   C5A 5563   5.439   8.485   7.976 -0.1193  0.4731  0.0144
  348loPI   C6A 5564   5.555   8.282   7.672 -0.0576  0.0362 -0.0007
  348loPI   C1B 5565   5.379   9.077   8.920  0.0950 -0.1900 -0.0918
  348loPI   C2B 5566   5.430   8.793   8.742  0.0039  0.0584 -0.0566
  348loPI   C3B 5567   5.428   8.383   8.539  0.2648 -0.1317  0.0391
  348loPI   C4B 5568   5.497   7.901   8.605  0.2891 -0.2737 -0.1445
  349loPI    C1 5569   5.211   8.014   9.759 -0.1654 -0.2121  0.0552
  349loPI    C2 5570   5.059   7.936  10.121 -0.0871  0.1418  0.1681
  349loPI    C3 5571   5.378   8.174  10.086  0.0171 -0.0361 -0.1219
  349loPI   PO4 5572   5.156   8.188   9.516 -0.0694 -0.1437 -0.2175
  349loPI   GL1 5573   4.910   8.122   9.121  0.0332 -0.1760  0.1281
  349loPI   GL2 5574   4.941   7.793   9.302 -0.1286 -0.0580 -0.0257
  349loPI   C1A 5575   5.052   8.043   8.716  0.3286 -0.1867  0.2158
  349loPI   C2A 5576   5.114   8.017   8.284  0.0787 -0.0007 -0.0774
  349loPI   C3A 5577   5.145   8.047   7.845  0.0506  0.1463 -0.2113
  349loPI   C4A 5578   5.133   7.914   7.386  0.2616  0.0154 -0.0881
  349loPI   C5A 5579   5.196   8.091   6.967  0.0120  0.3065  0.3375
  349loPI   C6A 5580   5.448   8.043   6.547  0.2084 -0.0852 -0.3558
  349loPI   C1B 5581   4.707   7.706   8.956 -0.0084 -0.1898 -0.1159
  349loPI   C2B 5582   4.658   7.791   8.419 -0.0106  0.0251  0.1332
  349loPI   C3B 5583   4.664   7.781   8.011  0.0185  0.2012  0.0526
  349loPI   C4B 5584   4.645   7.971   7.595 -0.0827 -0.0006 -0.1671
  350loPI    C1 5585  17.954  16.161  10.008  0.0336 -0.2219  0.2052
  350loPI    C2 5586  17.766  16.407  10.262  0.2004  0.0985  0.0242
  350loPI    C3 5587  18.155  16.327  10.311  0.2243  0.1324 -0.1069
  350loPI   PO4 5588  17.757  15.868   9.952 -0.2331 -0.2424  0.0180
  350loPI   GL1 5589  17.636  15.911   9.640  0.3718  0.4053  0.1307
  350loPI   GL2 5590  17.354  16.018   9.711 -0.0834  0.2368  0.0659
  350loPI   C1A 5591  17.384  15.912   9.201  0.1099  0.0470 -0.1135
  350loPI   C2A 5592  17.123  15.765   8.880 -0.1793 -0.2270 -0.0228
  350loPI   C3A 5593  16.909  15.798   8.514 -0.1242 -0.1820 -0.0342
  350loPI   C4A 5594  16.975  15.529   8.113  0.0504 -0.0824  0.2009
  350loPI   C5A 5595  17.332  15.629   7.812 -0.1537 -0.1112 -0.0337
  350loPI   C6A 5596  17.685  15.511   7.521  0.1957 -0.0998 -0.2144
  350loPI   C1B 5597  16.949  15.830   9.533  0.1140 -0.1743  0.1320
  350loPI   C2B 5598  16.724  15.764   9.218  0.0892 -0.0889  0.0221
  350loPI   C3B 5599  16.559  15.747   8.897  0.0785 -0.3054  0.0835
  350loPI   C4B 5600  16.380  15.871   8.549 -0.4048 -0.3830 -0.2197
  351loPI    C1 5601   0.047   1.943  10.062  0.0746 -0.0868 -0.0481
  351loPI    C2 5602  -0.132   1.881  10.414  0.1724 -0.1380 -0.0071
  351loPI    C3 5603   0.063   1.582  10.234  0.3257 -0.0494  0.0104
  351loPI   PO4 5604  -0.078   2.085   9.939 -0.1953  0.1042 -0.1168
  351loPI   GL1 5605   0.005   2.335   9.626 -0.1571  0.3004  0.2024
  351loPI   GL2 5606  -0.213   2.347   9.489 -0.3975  0.1317 -0.1670
  351loPI   C1A 5607   0.065   2.578   9.219  0.0722 -0.0168  0.2134
  351loPI   C2A 5608  -0.163   2.567   8.820 -0.2210 -0.0708  0.0461
  351loPI   C3A 5609  -0.344   2.403   8.472  0.0094  0.1492  0.0110
  351loPI   C4A 5610  -0.563   2.578   8.180 -0.0622  0.0525 -0.0280
  351loPI   C5A 5611  -0.643   2.826   7.735 -0.0067  0.0671  0.0841
  351loPI   C6A 5612  -0.941   2.831   7.384  0.0089  0.1492 -0.0074
  351loPI   C1B 5613  -0.301   2.120   9.144  0.3227 -0.2347 -0.0616
  351loPI   C2B 5614  -0.252   1.900   8.684  0.1349  0.1802 -0.4015
  351loPI   C3B 5615  -0.137   1.932   8.292  0.0122 -0.2359 -0.2504
  351loPI   C4B 5616  -0.137   2.156   7.917 -0.1641  0.0953  0.1156
  352loPI    C1 5617  10.578  18.984   9.727 -0.0952 -0.0825 -0.1744
  352loPI    C2 5618  10.295  19.166   9.943  0.0953  0.1457 -0.1128
  352loPI    C3 5619  10.406  18.792  10.033 -0.1182  0.0892 -0.0785
  352loPI   PO4 5620  10.738  19.153   9.587 -0.0978  0.3577 -0.1837
  352loPI   GL1 5621  10.778  19.251   9.093  0.1375 -0.0282  0.2338
  352loPI   GL2 5622  10.450  19.227   9.205 -0.1504 -0.0901  0.1448
  352loPI   C1A 5623  10.629  19.271   8.540 -0.1067 -0.0280 -0.0423
  352loPI   C2A 5624  10.723  19.609   8.223 -0.1220 -0.1760 -0.1094
  352loPI   C3A 5625  10.772  19.906   7.872 -0.0081 -0.1540  0.1019
  352loPI   C4A 5626  11.145  19.946   7.496 -0.2686 -0.1353  0.0659
  352loPI   C5A 5627  11.324  20.285   7.127  0.2511 -0.0018 -0.0419
  352loPI   C6A 5628  11.231  20.657   6.903 -0.1804 -0.1626  0.2667
  352loPI   C1B 5629  10.458  18.885   8.799  0.4315  0.1642  0.0367
  352loPI   C2B 5630  10.377  18.892   8.385 -0.1411 -0.0633  0.2273
  352loPI   C3B 5631  10.559  18.666   8.013  0.0295 -0.2818 -0.0698
  352loPI   C4B 5632  10.753  18.384   7.619 -0.0416  0.2881 -0.0127
  353loPI    C1 5633  18.628  19.378   9.830  0.0064  0.0479 -0.0162
  353loPI    C2 5634  18.691  19.407  10.224  0.0146 -0.0908 -0.0069
  353loPI    C3 5635  18.485  19.691  10.033 -0.3082 -0.2063  0.1629
  353loPI   PO4 5636  18.834  19.377   9.699  0.2053  0.0214  0.0500
  353loPI   GL1 5637  18.972  19.190   9.406 -0.1821  0.1207 -0.2559
  353loPI   GL2 5638  18.989  19.490   9.264  0.0062 -0.0157  0.0086
  353loPI   C1A 5639  19.099  19.268   8.856 -0.1394  0.0754 -0.0122
  353loPI   C2A 5640  19.174  19.236   8.456 -0.0999  0.0545 -0.0397
  353loPI   C3A 5641  19.278  19.342   8.057 -0.0226 -0.0031  0.1144
  353loPI   C4A 5642  19.514  19.475   7.740 -0.2326  0.1134 -0.0231
  353loPI   C5A 5643  19.742  19.654   7.405  0.2118  0.1363  0.2009
  353loPI   C6A 5644  19.784  20.020   7.240  0.0544  0.1468  0.1107
  353loPI   C1B 5645  19.051  19.754   8.925 -0.1327  0.3025  0.0996
  353loPI   C2B 5646  19.196  19.779   8.613  0.0483  0.1471 -0.2239
  353loPI   C3B 5647  19.429  19.908   8.251  0.0077  0.0072 -0.1132
  353loPI   C4B 5648  19.608  19.970   7.803 -0.0297 -0.3612 -0.2016
  354loPI    C1 5649   2.846   7.011   9.947  0.2093 -0.1555 -0.0087
  354loPI    C2 5650   2.840   7.031  10.346 -0.0515  0.1136 -0.0229
  354loPI    C3 5651   2.584   6.791  10.155  0.0637 -0.0042 -0.0307
  354loPI   PO4 5652   2.863   7.255   9.810  0.1925 -0.0729  0.2402
  354loPI   GL1 5653   2.935   7.391   9.373  0.2748  0.2447  0.1575
  354loPI   GL2 5654   3.194   7.319   9.131  0.2509 -0.0079 -0.3137
  354loPI   C1A 5655   2.782   7.244   8.985 -0.1690 -0.3738 -0.0320
  354loPI   C2A 5656   2.741   7.073   8.724 -0.1116 -0.2253  0.0300
  354loPI   C3A 5657   2.904   7.147   8.383  0.2776  0.5732  0.0257
  354loPI   C4A 5658   2.823   7.142   7.882  0.0726 -0.2597  0.2487
  354loPI   C5A 5659   2.621   7.174   7.455  0.3976 -0.0291 -0.0845
  354loPI   C6A 5660   2.497   7.102   6.996  0.0934  0.1386  0.0164
  354loPI   C1B 5661   3.386   7.144   8.764  0.0929  0.1726 -0.0875
  354loPI   C2B 5662   3.479   7.147   8.306 -0.1635 -0.2657 -0.2953
  354loPI   C3B 5663   3.431   6.915   7.912 -0.2120 -0.1600  0.2862
  354loPI   C4B 5664   3.285   6.751   7.571  0.2163 -0.3652  0.4259
  355loPI    C1 5665   4.268   8.474  10.197  0.2408 -0.3768  0.1245
  355loPI    C2 5666   4.628   8.611  10.304  0.1834 -0.2954  0.2155
  355loPI    C3 5667   4.383   8.458  10.580  0.0597 -0.1441  0.1907
  355loPI   PO4 5668   4.373   8.459   9.884  0.0242 -0.0289  0.0234
  355loPI   GL1 5669   4.315   8.303   9.457  0.0469 -0.1958 -0.0537
  355loPI   GL2 5670   4.048   8.066   9.384  0.0849 -0.2618 -0.1621
  355loPI   C1A 5671   4.492   8.299   9.033  0.2354 -0.3997 -0.1034
  355loPI   C2A 5672   4.505   8.249   8.558 -0.0225  0.1929  0.3742
  355loPI   C3A 5673   4.716   8.266   8.064 -0.2816  0.0048 -0.1034
  355loPI   C4A 5674   4.477   8.406   7.681  0.1328  0.1918 -0.0954
  355loPI   C5A 5675   4.145   8.680   7.483  0.0331 -0.3000 -0.1302
  355loPI   C6A 5676   3.765   8.687   7.658 -0.3170  0.1088  0.1168
  355loPI   C1B 5677   4.057   7.800   9.040  0.0801  0.0856  0.3127
  355loPI   C2B 5678   4.253   7.668   8.685  0.1918  0.1370 -0.0042
  355loPI   C3B 5679   4.578   7.331   8.639 -0.0227  0.1140 -0.0415
  355loPI   C4B 5680   4.813   7.320   8.420 -0.2201  0.0381 -0.0634
  356loPI    C1 5681  16.280  12.828  10.157 -0.0907 -0.1325 -0.1059
  356loPI    C2 5682  15.991  12.559  10.218 -0.1131 -0.0522  0.1599
  356loPI    C3 5683  16.142  12.762  10.527 -0.0964  0.2415 -0.0374
  356loPI   PO4 5684  16.218  12.824   9.875 -0.1442  0.0269  0.1613
  356loPI   GL1 5685  16.085  13.051   9.559 -0.1571  0.1263 -0.0197
  356loPI   GL2 5686  15.797  12.947   9.451  0.2635 -0.0659  0.1001
  356loPI   C1A 5687  16.024  13.398   9.322 -0.3430 -0.0412  0.1855
  356loPI   C2A 5688  15.794  13.561   8.904 -0.3084 -0.0500 -0.0061
  356loPI   C3A 5689  15.563  13.473   8.508  0.0599  0.3340  0.1514
  356loPI   C4A 5690  15.545  13.519   8.066 -0.0318  0.0322 -0.1745
  356loPI   C5A 5691  15.521  13.445   7.632  0.0505  0.0484  0.0330
  356loPI   C6A 5692  15.546  13.500   7.231 -0.1380 -0.0054  0.1566
  356loPI   C1B 5693  15.832  13.045   8.970  0.0481  0.0541  0.1434
  356loPI   C2B 5694  15.852  13.066   8.628  0.0199 -0.3164  0.1102
  356loPI   C3B 5695  15.908  13.219   8.178 -0.0086  0.1565 -0.1737
  356loPI   C4B 5696  16.056  13.298   7.700  0.0735  0.1138  0.2922
  357loPI    C1 5697  10.831  14.846  10.067  0.1604  0.1381  0.1982
  357loPI    C2 5698  11.092  14.689  10.327  0.0447 -0.1029  0.1711
  357loPI    C3 5699  10.714  14.760  10.440  0.0373 -0.0545  0.1164
  357loPI   PO4 5700  10.871  14.682   9.827  0.1350 -0.0771 -0.0261
  357loPI   GL1 5701  11.078  14.715   9.391  0.1020 -0.0678  0.2915
  357loPI   GL2 5702  11.087  15.001   9.311  0.1619  0.2944  0.2254
  357loPI   C1A 5703  10.920  14.614   8.973 -0.1402  0.0726 -0.2543
  357loPI   C2A 5704  10.913  14.610   8.587 -0.1764  0.2511  0.2396
  357loPI   C3A 5705  10.961  14.783   8.282  0.2614 -0.2460  0.0665
  357loPI   C4A 5706  11.005  15.120   7.983  0.1831  0.2934 -0.1285
  357loPI   C5A 5707  10.933  15.125   7.467  0.1127  0.2159 -0.2683
  357loPI   C6A 5708  11.026  14.859   6.983  0.3629  0.0666  0.0010
  357loPI   C1B 5709  11.038  15.148   8.845  0.1102 -0.2536 -0.2582
  357loPI   C2B 5710  11.267  15.242   8.421  0.0379 -0.2233 -0.2050
  357loPI   C3B 5711  11.539  15.670   8.397 -0.1751  0.0246 -0.0738
  357loPI   C4B 5712  11.817  15.896   8.091 -0.0894  0.2213 -0.0523
  358loPI    C1 5713   7.488   3.663   9.599 -0.1299 -0.0393  0.1954
  358loPI    C2 5714   7.769   3.930   9.698 -0.2602  0.2073 -0.0814
  358loPI    C3 5715   7.501   3.811   9.971  0.0108  0.0909  0.1396
  358loPI   PO4 5716   7.540   3.341   9.450  0.1339 -0.1177  0.0604
  358loPI   GL1 5717   7.499   3.309   9.019  0.2658  0.1685 -0.2089
  358loPI   GL2 5718   7.308   3.456   8.851  0.1345  0.1721  0.0908
  358loPI   C1A 5719   7.533   2.938   8.756 -0.2525 -0.0952  0.1358
  358loPI   C2A 5720   7.711   2.968   8.347  0.0785 -0.1005  0.1180
  358loPI   C3A 5721   7.723   2.838   7.966 -0.1590  0.0621  0.0540
  358loPI   C4A 5722   7.609   2.716   7.533  0.1436  0.0048 -0.0883
  358loPI   C5A 5723   7.637   2.839   7.183 -0.0456  0.3784 -0.5247
  358loPI   C6A 5724   7.390   3.030   6.784  0.0219  0.1124 -0.1293
  358loPI   C1B 5725   7.327   3.304   8.485  0.2385 -0.2754 -0.1014
  358loPI   C2B 5726   7.388   3.328   8.124  0.3149  0.1398 -0.0530
  358loPI   C3B 5727   7.308   3.349   7.673 -0.2170 -0.0209  0.1077
  358loPI   C4B 5728   7.317   3.224   7.263 -0.0044  0.2591  0.2833
  359loPI    C1 5729  17.525  18.380   9.774 -0.0731 -0.1712  0.0746
  359loPI    C2 5730  17.888  18.221   9.724 -0.0721 -0.1910  0.1455
  359loPI    C3 5731  17.726  18.238  10.090  0.0154  0.1591  0.1711
  359loPI   PO4 5732  17.536  18.630   9.605  0.2339 -0.0103 -0.1944
  359loPI   GL1 5733  17.243  18.704   9.304 -0.0226 -0.2468  0.0933
  359loPI   GL2 5734  17.154  18.919   9.140  0.1663  0.0154 -0.0567
  359loPI   C1A 5735  17.506  18.701   8.903 -0.1632  0.0140  0.4841
  359loPI   C2A 5736  17.575  18.709   8.472  0.0512 -0.0017 -0.0572
  359loPI   C3A 5737  17.595  18.674   8.143 -0.1691  0.3241  0.4724
  359loPI   C4A 5738  17.816  18.619   7.847  0.0047  0.3766  0.0459
  359loPI   C5A 5739  17.732  18.485   7.384  0.2235 -0.1064  0.0092
  359loPI   C6A 5740  17.896  18.285   6.927  0.0189 -0.0195  0.1681
  359loPI   C1B 5741  17.115  18.923   8.642 -0.0575 -0.0524  0.1216
  359loPI   C2B 5742  17.278  19.005   8.130  0.2596  0.6048 -0.4567
  359loPI   C3B 5743  17.647  19.200   7.875 -0.2544  0.2624  0.1392
  359loPI   C4B 5744  18.121  18.986   7.702 -0.2498  0.3118  0.3823
  360loPI    C1 5745   2.980  13.546   9.096  0.2299 -0.0378 -0.0172
  360loPI    C2 5746   2.734  13.742   9.343  0.2464 -0.0384 -0.0002
  360loPI    C3 5747   2.660  13.360   9.249  0.2241 -0.0294 -0.0192
  360loPI   PO4 5748   3.228  13.691   9.187  0.0240  0.3884  0.0379
  360loPI   GL1 5749   3.528  13.870   9.007 -0.0752  0.1977 -0.1911
  360loPI   GL2 5750   3.129  14.016   8.785  0.0460  0.0092  0.0283
  360loPI   C1A 5751   3.860  13.788   8.619  0.2126  0.3444 -0.2001
  360loPI   C2A 5752   4.015  13.626   8.090  0.1306  0.0798  0.0169
  360loPI   C3A 5753   4.346  13.581   7.759  0.0085 -0.1299  0.1198
  360loPI   C4A 5754   4.238  13.217   7.645 -0.2916  0.3761 -0.1424
  360loPI   C5A 5755   4.397  13.082   7.176  0.0465  0.0196 -0.1196
  360loPI   C6A 5756   4.622  12.707   6.875  0.1309 -0.0138  0.1258
  360loPI   C1B 5757   3.034  13.926   8.314  0.2264  0.0273 -0.2035
  360loPI   C2B 5758   3.052  13.857   7.905  0.1186 -0.5803 -0.0134
  360loPI   C3B 5759   3.218  13.908   7.452  0.0333  0.4918  0.0497
  360loPI   C4B 5760   2.938  13.926   7.096  0.2665 -0.0795  0.1072
  361loPI    C1 5761   9.967  12.174  10.131 -0.1883  0.0207  0.0410
  361loPI    C2 5762  10.041  11.987  10.477 -0.2848  0.0376  0.0712
  361loPI    C3 5763   9.890  12.357  10.478  0.0095  0.1608  0.0128
  361loPI   PO4 5764  10.253  12.067   9.993 -0.3085  0.1480  0.2192
  361loPI   GL1 5765  10.280  11.651   9.629 -0.0106  0.2838  0.0050
  361loPI   GL2 5766   9.933  11.461   9.805 -0.0213  0.0135 -0.0852
  361loPI   C1A 5767  10.278  11.564   9.190  0.0897  0.2272 -0.0694
  361loPI   C2A 5768  10.267  11.818   8.888 -0.1498 -0.1480  0.0941
  361loPI   C3A 5769  10.116  11.593   8.483 -0.2086 -0.1469  0.1821
  361loPI   C4A 5770  10.062  11.495   8.045  0.4879 -0.0760 -0.4058
  361loPI   C5A 5771   9.747  11.325   7.851  0.2459 -0.1413  0.1069
  361loPI   C6A 5772   9.357  11.403   7.568 -0.1524  0.0366  0.3025
  361loPI   C1B 5773   9.849  11.696   9.358  0.0244 -0.2189 -0.1224
  361loPI   C2B 5774   9.665  11.589   8.918 -0.0174 -0.1611  0.0921
  361loPI   C3B 5775   9.509  11.645   8.586  0.1760 -0.4125 -0.2636
  361loPI   C4B 5776   9.515  11.407   8.294  0.1081 -0.4641  0.1583
  362loPI    C1 5777  15.870  13.536  10.394  0.0059  0.1009  0.1087
  362loPI    C2 5778  15.571  13.646  10.636  0.0859  0.0032  0.2541
  362loPI    C3 5779  15.938  13.588  10.785  0.0777 -0.3176  0.1574
  362loPI   PO4 5780  15.813  13.605  10.144 -0.0925  0.0459 -0.0841
  362loPI   GL1 5781  16.000  13.697   9.880 -0.0206  0.0152 -0.1091
  362loPI   GL2 5782  16.338  13.633   9.816 -0.1341  0.0590  0.2257
  362loPI   C1A 5783  15.938  13.840   9.509  0.0645  0.2386 -0.2964
  362loPI   C2A 5784  16.004  13.959   9.133  0.1786  0.1273 -0.1141
  362loPI   C3A 5785  16.204  14.142   8.723 -0.4787 -0.2039 -0.0083
  362loPI   C4A 5786  16.123  14.190   8.351  0.0958  0.0177 -0.0307
  362loPI   C5A 5787  16.188  14.197   8.091 -0.0029 -0.1252 -0.0335
  362loPI   C6A 5788  16.355  14.179   7.727 -0.2927 -0.1547  0.2348
  362loPI   C1B 5789  16.483  13.441   9.558  0.2531 -0.2675  0.5664
  362loPI   C2B 5790  16.681  13.346   9.148 -0.1211  0.0470  0.0365
  362loPI   C3B 5791  16.707  13.040   8.851 -0.0760 -0.0201  0.0240
  362loPI   C4B 5792  16.630  12.603   9.021 -0.1068 -0.1531 -0.0045
  363loPI    C1 5793  14.953  17.640  10.035  0.0305 -0.2673 -0.0089
  363loPI    C2 5794  14.839  18.019   9.981  0.1154 -0.2298  0.0721
  363loPI    C3 5795  15.163  17.937  10.200  0.1354 -0.3458 -0.0002
  363loPI   PO4 5796  14.955  17.529   9.878  0.0080 -0.2329 -0.0672
  363loPI   GL1 5797  15.283  17.239   9.647 -0.1750  0.2567  0.3114
  363loPI   GL2 5798  15.044  17.468   9.407 -0.0260 -0.0306 -0.0686
  363loPI   C1A 5799  15.581  17.416   9.337 -0.3261 -0.2657  0.1233
  363loPI   C2A 5800  15.599  17.504   8.883 -0.1759 -0.2051  0.1213
  363loPI   C3A 5801  15.538  17.535   8.505 -0.0269 -0.1045 -0.1207
  363loPI   C4A 5802  15.625  17.352   8.148 -0.2648  0.3207 -0.0202
  363loPI   C5A 5803  15.771  17.231   7.720 -0.1015  0.0792  0.3401
  363loPI   C6A 5804  16.105  17.051   7.611  0.1952 -0.0293 -0.3025
  363loPI   C1B 5805  15.222  17.137   9.075  0.1155 -0.3234 -0.3277
  363loPI   C2B 5806  15.319  17.107   8.670 -0.0779  0.1813  0.1839
  363loPI   C3B 5807  15.401  16.872   8.333 -0.0341 -0.0410  0.2279
  363loPI   C4B 5808  15.357  17.016   7.908  0.1404 -0.1296 -0.1918
  364loPI    C1 5809   8.998  19.092   9.760 -0.0244 -0.1934  0.0821
  364loPI    C2 5810   9.294  18.902   9.950  0.0780 -0.1546 -0.0370
  364loPI    C3 5811   8.942  18.719   9.893  0.1315 -0.2593 -0.0341
  364loPI   PO4 5812   9.162  19.244   9.580 -0.0389  0.3739 -0.1800
  364loPI   GL1 5813   9.227  19.441   9.190  0.2404 -0.1163  0.0755
  364loPI   GL2 5814   9.005  19.606   9.162  0.1310  0.2382  0.3046
  364loPI   C1A 5815   9.167  19.410   8.712  0.2193  0.2172 -0.0929
  364loPI   C2A 5816   9.093  19.529   8.266  0.2575  0.1542  0.0780
  364loPI   C3A 5817   9.154  19.624   7.897  0.1819 -0.4552  0.2222
  364loPI   C4A 5818   9.094  19.708   7.484  0.1145  0.0104  0.0576
  364loPI   C5A 5819   8.892  19.795   7.086  0.3003  0.4586  0.1853
  364loPI   C6A 5820   8.499  19.909   6.878 -0.3697 -0.1097 -0.0711
  364loPI   C1B 5821   8.861  19.798   8.850  0.1040  0.0020 -0.1153
  364loPI   C2B 5822   8.732  19.903   8.503  0.2281  0.2879  0.1530
  364loPI   C3B 5823   8.775  19.972   8.156 -0.1608 -0.2774  0.1296
  364loPI   C4B 5824   8.955  20.131   7.843  0.0345 -0.1083  0.4191
  365loPI    C1 5825   5.579   6.561   9.657 -0.1138  0.1806 -0.0745
  365loPI    C2 5826   5.443   6.905   9.808 -0.2264  0.1576 -0.1222
  365loPI    C3 5827   5.510   6.594  10.050  0.0495  0.2681 -0.0525
  365loPI   PO4 5828   5.404   6.541   9.429 -0.2037  0.2107 -0.0151
  365loPI   GL1 5829   5.235   6.646   8.977 -0.0623 -0.0833  0.0377
  365loPI   GL2 5830   5.072   6.304   8.998 -0.1019  0.0874  0.0267
  365loPI   C1A 5831   5.234   6.881   8.632 -0.0967  0.0522  0.2196
  365loPI   C2A 5832   5.211   7.000   8.162 -0.0394 -0.0291  0.0902
  365loPI   C3A 5833   4.978   7.002   7.829  0.0718  0.1598 -0.2191
  365loPI   C4A 5834   4.555   7.222   7.799 -0.0193  0.0624  0.1522
  365loPI   C5A 5835   4.181   7.301   7.501  0.2088  0.2488 -0.3919
  365loPI   C6A 5836   3.977   7.259   7.114 -0.2512 -0.0895  0.0385
  365loPI   C1B 5837   5.102   6.410   8.487 -0.0622 -0.2057  0.1796
  365loPI   C2B 5838   5.120   6.499   8.056 -0.0190 -0.0656 -0.4410
  365loPI   C3B 5839   5.133   6.523   7.600 -0.0032  0.1257  0.0068
  365loPI   C4B 5840   5.558   6.421   7.297 -0.1300 -0.2409  0.3061
  366loPI    C1 5841   2.192  10.652  10.243  0.0106  0.0246 -0.1346
  366loPI    C2 5842   2.035  10.644  10.611 -0.0263  0.1352 -0.1476
  366loPI    C3 5843   2.416  10.754  10.558 -0.0275  0.1407 -0.1447
  366loPI   PO4 5844   2.074  10.617  10.037  0.0460 -0.0152  0.1304
  366loPI   GL1 5845   1.833  10.646   9.658  0.1421 -0.0343 -0.0511
  366loPI   GL2 5846   1.659  10.399   9.335 -0.0628  0.1570 -0.2514
  366loPI   C1A 5847   2.128  10.562   9.288 -0.2212 -0.1018 -0.0223
  366loPI   C2A 5848   2.139  10.626   8.941  0.1462  0.2298 -0.2060
  366loPI   C3A 5849   2.131  10.706   8.623 -0.1933  0.0072  0.1488
  366loPI   C4A 5850   2.251  10.624   8.338  0.1546 -0.1052 -0.0142
  366loPI   C5A 5851   2.181  10.602   7.845  0.4481 -0.2307  0.1460
  366loPI   C6A 5852   1.890  10.802   7.552 -0.2112  0.0753 -0.1256
  366loPI   C1B 5853   1.775  10.310   8.957  0.2208  0.0015 -0.2441
  366loPI   C2B 5854   1.758  10.297   8.528  0.1052  0.2524  0.0082
  366loPI   C3B 5855   1.808  10.393   8.130  0.2342  0.1235  0.0492
  366loPI   C4B 5856   1.891  10.217   7.641 -0.3745  0.0874 -0.0610
  367loPI    C1 5857   4.280  13.115   9.470 -0.0029  0.1860  0.0599
  367loPI    C2 5858   4.159  13.081   9.849  0.1064  0.1098  0.0885
  367loPI    C3 5859   4.250  12.754   9.639 -0.1434  0.1369 -0.0667
  367loPI   PO4 5860   4.176  13.209   9.264 -0.0841 -0.0295  0.4314
  367loPI   GL1 5861   4.139  13.076   8.863  0.1251  0.1165 -0.1943
  367loPI   GL2 5862   4.437  13.137   8.733 -0.0187  0.1938 -0.2315
  367loPI   C1A 5863   3.921  12.696   8.610  0.2361  0.0124 -0.2280
  367loPI   C2A 5864   3.628  12.406   8.335  0.1147 -0.1306  0.0025
  367loPI   C3A 5865   3.248  12.282   7.939  0.1659 -0.4480 -0.1989
  367loPI   C4A 5866   3.068  12.465   7.419  0.1238 -0.0339  0.0013
  367loPI   C5A 5867   3.099  12.426   7.027 -0.1712  0.1771 -0.2658
  367loPI   C6A 5868   3.296  12.548   6.694  0.1095 -0.0488  0.3041
  367loPI   C1B 5869   4.302  13.103   8.258  0.0538 -0.1859  0.3367
  367loPI   C2B 5870   3.955  12.827   8.067 -0.1289  0.3083 -0.0862
  367loPI   C3B 5871   3.687  12.577   7.898  0.0571 -0.0685 -0.2182
  367loPI   C4B 5872   3.569  12.403   7.515 -0.0388 -0.0037  0.2127
  368loPI    C1 5873   6.819  10.956  10.337  0.1691 -0.2374  0.2104
  368loPI    C2 5874   6.978  10.637  10.519  0.2626 -0.2619  0.0876
  368loPI    C3 5875   7.197  10.968  10.467  0.2292 -0.2472  0.0393
  368loPI   PO4 5876   6.589  10.836  10.178 -0.0474  0.1672  0.1243
  368loPI   GL1 5877   6.756  10.892   9.602  0.2060  0.0855  0.3293
  368loPI   GL2 5878   6.675  10.670   9.411  0.1814  0.0459  0.0923
  368loPI   C1A 5879   6.899  11.080   9.129  0.0672  0.0667  0.0452
  368loPI   C2A 5880   6.832  11.098   8.734 -0.2176  0.0056  0.1158
  368loPI   C3A 5881   6.722  11.108   8.291 -0.4596  0.1199 -0.0526
  368loPI   C4A 5882   6.436  11.022   7.945 -0.0662  0.0466 -0.0510
  368loPI   C5A 5883   6.162  11.190   7.622 -0.3701  0.2352 -0.1235
  368loPI   C6A 5884   5.911  10.915   7.162  0.0191 -0.0210  0.1175
  368loPI   C1B 5885   6.605  10.716   8.915  0.0940 -0.0665 -0.0932
  368loPI   C2B 5886   6.433  10.774   8.432  0.0592  0.0761 -0.4351
  368loPI   C3B 5887   6.206  10.583   7.966  0.1410  0.1102  0.1318
  368loPI   C4B 5888   6.429  10.357   7.620 -0.0700 -0.2088 -0.2865
  369loPI    C1 5889  12.803  14.763  10.150 -0.2741 -0.0232 -0.0568
  369loPI    C2 5890  12.523  14.807  10.432 -0.0947  0.0377  0.1144
  369loPI    C3 5891  12.620  15.116  10.197 -0.2489 -0.0149 -0.0212
  369loPI   PO4 5892  12.748  14.550  10.021 -0.2651  0.0139  0.3820
  369loPI   GL1 5893  12.631  14.366   9.697  0.1465 -0.0504 -0.0330
  369loPI   GL2 5894  12.571  14.674   9.528  0.3081  0.0403  0.1302
  369loPI   C1A 5895  12.611  14.049   9.503  0.2567  0.1586  0.3195
  369loPI   C2A 5896  12.556  13.785   9.148  0.2704  0.0117 -0.0429
  369loPI   C3A 5897  12.578  13.703   8.664 -0.0378 -0.1359  0.1867
  369loPI   C4A 5898  12.597  13.735   8.237 -0.0480 -0.2602  0.1513
  369loPI   C5A 5899  12.374  13.544   7.814 -0.1549 -0.0543 -0.5561
  369loPI   C6A 5900  12.240  13.392   7.477 -0.0496  0.1311 -0.1406
  369loPI   C1B 5901  12.619  14.670   9.084 -0.1999 -0.2510  0.1209
  369loPI   C2B 5902  12.557  14.614   8.654  0.3824 -0.1726  0.0269
  369loPI   C3B 5903  12.517  14.580   8.145  0.1096 -0.3452 -0.0841
  369loPI   C4B 5904  12.435  14.787   7.775 -0.2353  0.0091  0.0376
  370loPI    C1 5905  15.296   0.994   9.904  0.1486  0.1489  0.1131
  370loPI    C2 5906  15.402   0.642  10.062 -0.3013 -0.1928 -0.3161
  370loPI    C3 5907  15.229   0.921  10.292  0.0892 -0.2303  0.0351
  370loPI   PO4 5908  15.354   0.982   9.674  0.0457 -0.0755  0.1489
  370loPI   GL1 5909  15.284   1.003   9.312 -0.0037 -0.1768 -0.2641
  370loPI   GL2 5910  15.146   1.171   9.167 -0.1177 -0.0262 -0.1424
  370loPI   C1A 5911  15.379   0.874   8.781  0.1806  0.0008 -0.3423
  370loPI   C2A 5912  15.308   0.901   8.395  0.2133  0.0677  0.1358
  370loPI   C3A 5913  15.346   0.845   7.987  0.1303 -0.1582 -0.2393
  370loPI   C4A 5914  15.021   0.868   7.634  0.0586  0.0761 -0.1676
  370loPI   C5A 5915  14.874   0.780   7.318 -0.2776  0.3022 -0.0168
  370loPI   C6A 5916  14.583   0.946   7.055 -0.2156 -0.0772 -0.2752
  370loPI   C1B 5917  14.906   1.150   8.779 -0.0595  0.1806 -0.0748
  370loPI   C2B 5918  14.839   1.095   8.364  0.4524  0.0842  0.1148
  370loPI   C3B 5919  15.023   1.205   8.004 -0.2587 -0.2461  0.0292
  370loPI   C4B 5920  15.072   1.315   7.508  0.2765  0.1230 -0.4092
  371loPI    C1 5921   7.877   9.644   9.625 -0.1655 -0.0806 -0.2483
  371loPI    C2 5922   7.533   9.628   9.827 -0.0232  0.1352  0.0182
  371loPI    C3 5923   7.867   9.481   9.990  0.0331  0.0230 -0.1949
  371loPI   PO4 5924   7.792   9.477   9.375  0.0020  0.3804  0.2582
  371loPI   GL1 5925   7.592   9.168   9.208  0.0417 -0.1268  0.2726
  371loPI   GL2 5926   7.477   8.867   9.044  0.3893  0.0921  0.2413
  371loPI   C1A 5927   7.184   9.292   9.211  0.1031  0.2399 -0.1661
  371loPI   C2A 5928   6.763   9.362   8.853 -0.2012 -0.0857  0.0766
  371loPI   C3A 5929   6.534   9.407   8.494 -0.2674 -0.2039  0.1485
  371loPI   C4A 5930   6.347   9.763   8.237 -0.0228 -0.0402 -0.5332
  371loPI   C5A 5931   6.476   9.917   7.855 -0.1374 -0.1186 -0.3510
  371loPI   C6A 5932   6.537   9.685   7.452  0.0195 -0.1346  0.2151
  371loPI   C1B 5933   7.558   8.816   8.597 -0.0331  0.1308  0.0205
  371loPI   C2B 5934   7.674   8.959   8.204  0.0158  0.3741  0.1431
  371loPI   C3B 5935   7.528   8.833   7.776  0.1024  0.2189 -0.1274
  371loPI   C4B 5936   7.559   8.721   7.284 -0.1657 -0.4125  0.0222
  372loPI    C1 5937  16.338   0.079   9.449  0.1294  0.1585  0.1821
  372loPI    C2 5938  15.992   0.268   9.515  0.1255  0.2337 -0.0461
  372loPI    C3 5939  16.151   0.038   9.800 -0.0615  0.2782  0.0964
  372loPI   PO4 5940  16.393   0.156   9.171  0.1833  0.0729 -0.1223
  372loPI   GL1 5941  16.701   0.022   8.948 -0.1712 -0.1940 -0.2762
  372loPI   GL2 5942  16.825   0.374   9.046  0.2839 -0.2028  0.1406
  372loPI   C1A 5943  16.864   0.060   8.596  0.1117  0.4121  0.2097
  372loPI   C2A 5944  17.102  -0.004   8.341 -0.1250  0.0958 -0.1608
  372loPI   C3A 5945  17.350   0.133   8.034  0.0406 -0.1786 -0.1777
  372loPI   C4A 5946  17.402   0.261   7.647  0.0320  0.1832 -0.3747
  372loPI   C5A 5947  17.650   0.537   7.257 -0.2718  0.0569  0.0354
  372loPI   C6A 5948  17.717   0.484   6.930  0.0352  0.5091  0.2646
  372loPI   C1B 5949  16.648   0.513   8.570  0.1724 -0.1257  0.1510
  372loPI   C2B 5950  16.535   0.686   8.154  0.0398  0.0742 -0.1549
  372loPI   C3B 5951  16.496   0.522   7.691  0.1967 -0.0389  0.1097
  372loPI   C4B 5952  16.353   0.378   7.235  0.0825 -0.1272  0.0151
  373loPI    C1 5953  11.944  15.215  10.085  0.1182 -0.1923 -0.0312
  373loPI    C2 5954  12.030  14.952  10.374 -0.1946  0.0092  0.2525
  373loPI    C3 5955  11.649  15.018  10.271 -0.1121  0.2647  0.1032
  373loPI   PO4 5956  12.163  15.209   9.883  0.0749 -0.3316  0.0644
  373loPI   GL1 5957  12.081  15.013   9.575  0.2691  0.3686 -0.0912
  373loPI   GL2 5958  12.254  15.231   9.402  0.0616  0.0198 -0.3389
  373loPI   C1A 5959  12.021  14.713   9.157 -0.1489 -0.3454  0.0264
  373loPI   C2A 5960  12.035  14.554   8.725 -0.1098 -0.0476 -0.1844
  373loPI   C3A 5961  12.056  14.522   8.298  0.1422  0.0092  0.0132
  373loPI   C4A 5962  12.021  14.522   7.917  0.2083 -0.3281 -0.0125
  373loPI   C5A 5963  12.064  14.419   7.511  0.0159 -0.2669 -0.3068
  373loPI   C6A 5964  11.766  14.149   7.189  0.0300  0.1027  0.2373
  373loPI   C1B 5965  12.396  15.038   8.970  0.0120 -0.2823  0.1388
  373loPI   C2B 5966  12.113  15.004   8.633  0.1246  0.3057 -0.2826
  373loPI   C3B 5967  12.111  15.016   8.174 -0.0552 -0.0827 -0.4014
  373loPI   C4B 5968  11.955  14.988   7.793  0.1119  0.1053  0.4677
  374loPI    C1 5969   0.547   1.656   9.925 -0.3564 -0.2719 -0.1851
  374loPI    C2 5970   0.834   1.788   9.680 -0.1230 -0.1705  0.1356
  374loPI    C3 5971   0.663   2.038   9.941 -0.1037 -0.3619  0.3347
  374loPI   PO4 5972   0.449   1.475   9.823  0.0696 -0.3743  0.0043
  374loPI   GL1 5973   0.233   1.458   9.324  0.0305 -0.1397  0.2399
  374loPI   GL2 5974   0.261   1.100   9.430  0.3878  0.2944  0.1908
  374loPI   C1A 5975   0.082   1.833   9.108  0.1740  0.0319  0.1314
  374loPI   C2A 5976   0.121   2.150   8.873  0.0883  0.0971 -0.0589
  374loPI   C3A 5977   0.195   2.289   8.416 -0.2870  0.0580 -0.1184
  374loPI   C4A 5978   0.289   2.437   7.937 -0.4738  0.1212  0.0611
  374loPI   C5A 5979   0.213   2.465   7.508  0.1748  0.0308 -0.2041
  374loPI   C6A 5980   0.515   2.529   7.184 -0.2417 -0.2303  0.1295
  374loPI   C1B 5981   0.243   0.936   8.874 -0.1304  0.1900  0.1251
  374loPI   C2B 5982   0.131   0.948   8.442  0.0748  0.2093 -0.0868
  374loPI   C3B 5983   0.206   1.035   8.035  0.0605  0.1251 -0.1214
  374loPI   C4B 5984  -0.038   1.021   7.632  0.0814 -0.1941 -0.2695
  375loPI    C1 5985  10.729   1.543   9.823  0.2322 -0.1830  0.2728
  375loPI    C2 5986  10.374   1.652   9.972  0.2676  0.1838  0.1024
  375loPI    C3 5987  10.660   1.513  10.216  0.1859  0.3854  0.3173
  375loPI   PO4 5988  10.667   1.598   9.518 -0.1426  0.0936  0.2359
  375loPI   GL1 5989  10.729   1.887   9.048  0.1488 -0.1118  0.2584
  375loPI   GL2 5990  10.822   2.103   9.103  0.1177  0.0627 -0.0466
  375loPI   C1A 5991  10.832   1.788   8.659 -0.1313 -0.0181  0.2417
  375loPI   C2A 5992  10.957   1.893   8.288 -0.0028 -0.1125 -0.1660
  375loPI   C3A 5993  10.977   1.846   7.828  0.0015 -0.0126  0.0004
  375loPI   C4A 5994  11.002   1.821   7.348  0.0576 -0.1590 -0.0339
  375loPI   C5A 5995  10.705   2.037   7.084  0.1078  0.0264 -0.2149
  375loPI   C6A 5996  10.600   2.339   6.729 -0.0199  0.2358 -0.0173
  375loPI   C1B 5997  10.970   2.288   8.701  0.3640 -0.1319 -0.1179
  375loPI   C2B 5998  10.815   2.374   8.370  0.1821 -0.4528  0.1514
  375loPI   C3B 5999  10.886   2.390   8.022 -0.3078  0.0799 -0.0157
  375loPI   C4B 6000  10.921   2.542   7.678  0.2081  0.0684  0.2842
  376loPI    C1 6001  17.234   2.951   9.657 -0.2028  0.0082  0.1109
  376loPI    C2 6002  17.536   2.702   9.740 -0.2860 -0.1233  0.0216
  376loPI    C3 6003  17.376   2.926  10.030 -0.2704 -0.2405  0.1215
  376loPI   PO4 6004  17.068   2.814   9.530  0.3870  0.0183 -0.0675
  376loPI   GL1 6005  16.982   2.851   9.124  0.1517  0.0552 -0.2530
  376loPI   GL2 6006  16.886   2.557   9.084  0.2592  0.0962  0.0030
  376loPI   C1A 6007  17.279   3.072   8.827  0.0734 -0.2255  0.0828
  376loPI   C2A 6008  17.636   3.193   8.552 -0.0051  0.1172 -0.0203
  376loPI   C3A 6009  17.436   3.341   8.155 -0.0618 -0.1983  0.1987
  376loPI   C4A 6010  17.495   3.322   7.795  0.1399 -0.1779 -0.1973
  376loPI   C5A 6011  17.538   3.263   7.364  0.2713 -0.0887  0.0572
  376loPI   C6A 6012  17.677   3.539   7.081  0.0784 -0.1387 -0.0638
  376loPI   C1B 6013  16.934   2.205   8.812 -0.1071  0.0976  0.0436
  376loPI   C2B 6014  17.284   1.934   8.628  0.0633  0.1753 -0.2938
  376loPI   C3B 6015  17.624   1.812   8.688 -0.0405 -0.0026 -0.0308
  376loPI   C4B 6016  17.883   1.594   8.519  0.0817 -0.2988  0.0015
  377loPI    C1 6017  10.286   0.688   9.848 -0.0113  0.2151  0.1069
  377loPI    C2 6018   9.933   0.598  10.011  0.0353 -0.0458  0.0676
  377loPI    C3 6019  10.258   0.623  10.242  0.0716 -0.2541  0.0415
  377loPI   PO4 6020  10.252   0.688   9.612  0.1270 -0.1582  0.0349
  377loPI   GL1 6021  10.442   0.629   9.242  0.1526 -0.0688  0.2024
  377loPI   GL2 6022  10.309   0.323   9.015 -0.2244 -0.0004 -0.1304
  377loPI   C1A 6023  10.609   0.758   8.934  0.1437  0.0225 -0.1683
  377loPI   C2A 6024  10.672   0.838   8.496 -0.0974  0.1155  0.1249
  377loPI   C3A 6025  10.669   1.020   8.090 -0.1735  0.0234 -0.1974
  377loPI   C4A 6026  10.381   1.009   7.739  0.0214  0.2561  0.2376
  377loPI   C5A 6027  10.346   0.998   7.348  0.3287 -0.3534  0.3720
  377loPI   C6A 6028  10.187   0.743   7.093  0.2253 -0.1559  0.2281
  377loPI   C1B 6029  10.353   0.451   8.618  0.0871 -0.2139  0.3181
  377loPI   C2B 6030  10.351   0.610   8.201  0.0820 -0.0055 -0.1118
  377loPI   C3B 6031  10.229   0.250   7.890  0.1584  0.3878 -0.2674
  377loPI   C4B 6032  10.083   0.037   7.452 -0.0896 -0.0050  0.1890
  378loPI    C1 6033   3.047  10.147  10.210  0.0122  0.1123  0.0904
  378loPI    C2 6034   2.767   9.861  10.205  0.0097  0.1171 -0.1046
  378loPI    C3 6035   2.998   9.909  10.528  0.0409 -0.1347 -0.0872
  378loPI   PO4 6036   3.137  10.110   9.935  0.1159 -0.2120 -0.0467
  378loPI   GL1 6037   3.007  10.186   9.562  0.4075  0.2614 -0.0231
  378loPI   GL2 6038   3.123  10.420   9.317  0.1898  0.2067 -0.0038
  378loPI   C1A 6039   2.706  10.149   9.263  0.2060 -0.3120 -0.0328
  378loPI   C2A 6040   2.385  10.145   9.088 -0.1000 -0.1079 -0.1823
  378loPI   C3A 6041   2.252  10.206   8.662  0.0543  0.1309 -0.0166
  378loPI   C4A 6042   2.274  10.188   8.154  0.1539 -0.0336  0.0438
  378loPI   C5A 6043   2.419   9.986   7.793 -0.1119  0.3154 -0.0178
  378loPI   C6A 6044   2.452   9.743   7.397  0.1283 -0.2959  0.1656
  378loPI   C1B 6045   3.009  10.214   8.867  0.0016  0.0335  0.1677
  378loPI   C2B 6046   3.198  10.368   8.506  0.0442  0.3132 -0.0689
  378loPI   C3B 6047   3.019  10.075   8.140 -0.2231  0.3162 -0.4886
  378loPI   C4B 6048   2.798   9.713   7.901 -0.1270 -0.2970  0.2750
  379loPI    C1 6049   7.515  12.621   9.769 -0.0447  0.1535 -0.1196
  379loPI    C2 6050   7.865  12.429   9.792 -0.1099  0.0047 -0.3331
  379loPI    C3 6051   7.671  12.531  10.127  0.0289 -0.1110 -0.2155
  379loPI   PO4 6052   7.551  12.840   9.579 -0.1745  0.0957 -0.2678
  379loPI   GL1 6053   7.496  13.110   9.312  0.0051  0.0142  0.0526
  379loPI   GL2 6054   7.217  13.301   9.286  0.4620 -0.2330  0.1176
  379loPI   C1A 6055   7.701  13.360   9.072 -0.0884  0.0119  0.2593
  379loPI   C2A 6056   7.988  13.450   8.680  0.1151  0.0059 -0.0534
  379loPI   C3A 6057   8.150  13.838   8.524  0.1309  0.0368  0.1813
  379loPI   C4A 6058   8.071  14.170   8.182  0.1141  0.0017  0.0316
  379loPI   C5A 6059   8.126  14.229   7.704  0.0385  0.1659  0.0758
  379loPI   C6A 6060   8.247  14.120   7.311 -0.2879  0.1408  0.0458
  379loPI   C1B 6061   7.155  13.007   8.960  0.3382 -0.0343 -0.0039
  379loPI   C2B 6062   7.278  12.884   8.524 -0.0203 -0.0637 -0.2800
  379loPI   C3B 6063   7.095  13.076   8.154  0.2991 -0.0767 -0.0435
  379loPI   C4B 6064   7.036  13.522   7.980 -0.0497  0.2550  0.2064
  380loPI    C1 6065  18.289   5.353  10.087  0.1134  0.0371 -0.2218
  380loPI    C2 6066  18.197   5.664   9.852  0.0587  0.1844 -0.0082
  380loPI    C3 6067  18.016   5.620  10.206  0.2068  0.0151  0.0481
  380loPI   PO4 6068  18.212   5.135   9.810  0.0669  0.2441  0.1393
  380loPI   GL1 6069  18.171   5.093   9.308  0.0642  0.2403 -0.2967
  380loPI   GL2 6070  17.926   5.037   9.085  0.0485  0.2335 -0.0050
  380loPI   C1A 6071  18.359   4.843   9.031 -0.2933  0.2645 -0.1400
  380loPI   C2A 6072  18.341   4.730   8.578 -0.0684  0.3047 -0.3379
  380loPI   C3A 6073  18.395   4.769   8.207  0.2406 -0.1358 -0.1312
  380loPI   C4A 6074  18.382   4.747   7.719 -0.0886  0.0914  0.1564
  380loPI   C5A 6075  18.338   4.728   7.317 -0.1471 -0.3044  0.1638
  380loPI   C6A 6076  18.162   4.808   6.905  0.1402 -0.1090 -0.1500
  380loPI   C1B 6077  17.874   5.035   8.574 -0.4415  0.2791 -0.0972
  380loPI   C2B 6078  17.930   5.008   8.178 -0.0204  0.2594 -0.1465
  380loPI   C3B 6079  17.898   4.934   7.699  0.1040  0.3838  0.0168
  380loPI   C4B 6080  17.896   4.914   7.279  0.3104  0.1086  0.1751
  381loPI    C1 6081   4.172   0.646  10.289  0.1890  0.0353 -0.1736
  381loPI    C2 6082   4.016   1.014  10.274 -0.0360 -0.0391  0.2011
  381loPI    C3 6083   4.317   0.934  10.526  0.3164 -0.0075 -0.1985
  381loPI   PO4 6084   4.091   0.544  10.036 -0.3720 -0.1544 -0.1478
  381loPI   GL1 6085   4.237   0.574   9.596  0.2497 -0.2883  0.1081
  381loPI   GL2 6086   4.145   0.321   9.470 -0.0691 -0.0742  0.0547
  381loPI   C1A 6087   4.259   0.648   9.086 -0.2395 -0.1640 -0.1339
  381loPI   C2A 6088   4.173   0.718   8.710  0.0613  0.0042 -0.0451
  381loPI   C3A 6089   4.394   0.803   8.333  0.0993 -0.0864  0.0776
  381loPI   C4A 6090   4.567   1.150   8.190  0.4229 -0.2905 -0.2131
  381loPI   C5A 6091   4.352   1.530   7.932 -0.0866  0.2376  0.0394
  381loPI   C6A 6092   4.372   1.912   7.671  0.0303  0.4179 -0.3276
  381loPI   C1B 6093   4.040   0.183   9.157  0.0041 -0.2791 -0.0051
  381loPI   C2B 6094   4.100   0.234   8.732 -0.1751 -0.3592  0.2683
  381loPI   C3B 6095   4.100   0.315   8.258 -0.1008  0.1410 -0.2351
  381loPI   C4B 6096   4.307   0.509   7.889  0.0973  0.0917  0.0301
  382loPI    C1 6097  13.062   9.929   9.701 -0.0095 -0.1105 -0.0391
  382loPI    C2 6098  13.235  10.259   9.848  0.0237 -0.1624  0.0394
  382loPI    C3 6099  12.889  10.129  10.001 -0.1516  0.0123 -0.2005
  382loPI   PO4 6100  12.989   9.982   9.497 -0.0758  0.1025  0.2224
  382loPI   GL1 6101  12.895  10.203   9.106 -0.0337 -0.3305 -0.0360
  382loPI   GL2 6102  12.982   9.852   9.037 -0.2283  0.1159  0.1561
  382loPI   C1A 6103  12.704  10.229   8.669  0.0845  0.1352 -0.2064
  382loPI   C2A 6104  12.377  10.320   8.377 -0.2534  0.0947  0.0030
  382loPI   C3A 6105  12.268  10.413   7.930  0.0829  0.0383 -0.0727
  382loPI   C4A 6106  12.425  10.469   7.549 -0.1219 -0.0850  0.3486
  382loPI   C5A 6107  12.693  10.414   7.319  0.1228 -0.0883 -0.2478
  382loPI   C6A 6108  12.893  10.663   7.169  0.2753  0.0282 -0.2005
  382loPI   C1B 6109  13.000   9.884   8.592 -0.1094 -0.0799 -0.2065
  382loPI   C2B 6110  13.027   9.897   8.220 -0.1345 -0.0701  0.3239
  382loPI   C3B 6111  13.324   9.964   7.850  0.0389  0.0489  0.3932
  382loPI   C4B 6112  13.526   9.980   7.433 -0.0688  0.0201 -0.0628
  383loPI    C1 6113   3.711   5.900   9.510 -0.0419 -0.0727  0.0387
  383loPI    C2 6114   3.657   5.526   9.381  0.4166 -0.1261 -0.0168
  383loPI    C3 6115   3.719   5.596   9.769  0.2519 -0.0971  0.0049
  383loPI   PO4 6116   3.857   6.034   9.329  0.4955  0.2359  0.1620
  383loPI   GL1 6117   3.951   6.310   9.110 -0.0878  0.2623  0.0518
  383loPI   GL2 6118   4.053   6.553   9.266  0.3949  0.1188  0.4879
  383loPI   C1A 6119   3.823   6.317   8.681 -0.2413  0.1060  0.5684
  383loPI   C2A 6120   3.948   6.370   8.286  0.0135  0.2364  0.0516
  383loPI   C3A 6121   3.883   6.148   7.976 -0.0286  0.0240 -0.0502
  383loPI   C4A 6122   3.977   5.857   7.688  0.0592 -0.2910 -0.2280
  383loPI   C5A 6123   4.032   5.853   7.229  0.3340  0.3805  0.0414
  383loPI   C6A 6124   3.928   5.766   6.808  0.0097  0.0760 -0.1039
  383loPI   C1B 6125   4.056   6.746   8.880  0.0653  0.0912 -0.3471
  383loPI   C2B 6126   4.325   6.828   8.529 -0.2172 -0.1696 -0.4157
  383loPI   C3B 6127   4.401   7.070   8.197 -0.0988  0.0466 -0.1431
  383loPI   C4B 6128   4.211   7.487   8.196  0.1648  0.2054 -0.0439
  384loPI    C1 6129   1.686  16.316   9.838 -0.0037 -0.4257  0.0372
  384loPI    C2 6130   2.021  16.154   9.692  0.1800 -0.0244 -0.0009
  384loPI    C3 6131   1.965  16.175  10.087  0.1574 -0.1721  0.0044
  384loPI   PO4 6132   1.529  16.362   9.507  0.1312  0.0500 -0.1349
  384loPI   GL1 6133   1.518  16.098   9.098  0.0871 -0.1515  0.1280
  384loPI   GL2 6134   1.627  15.821   9.027  0.0255 -0.0887 -0.1088
  384loPI   C1A 6135   1.333  16.201   8.727  0.3724  0.0670  0.2089
  384loPI   C2A 6136   0.943  16.297   8.520 -0.2101  0.1366  0.1290
  384loPI   C3A 6137   0.695  16.511   8.192 -0.2362 -0.0514  0.4560
  384loPI   C4A 6138   0.474  16.639   7.860  0.2426 -0.0600 -0.0218
  384loPI   C5A 6139   0.473  16.928   7.464 -0.0111  0.0852  0.3109
  384loPI   C6A 6140   0.091  17.162   7.251 -0.0468  0.1791  0.2935
  384loPI   C1B 6141   1.677  15.805   8.518 -0.0359 -0.1054  0.0195
  384loPI   C2B 6142   1.546  15.908   8.046 -0.3126  0.0319  0.0967
  384loPI   C3B 6143   1.459  15.956   7.608 -0.0932 -0.2096 -0.0107
  384loPI   C4B 6144   1.378  15.703   7.317  0.3861 -0.1317 -0.0406
  385loPI    C1 6145  11.724  10.276   9.947 -0.0508  0.2683 -0.0976
  385loPI    C2 6146  11.846  10.268  10.327 -0.0426 -0.0383 -0.1043
  385loPI    C3 6147  11.652   9.954  10.173 -0.2576  0.1802 -0.2851
  385loPI   PO4 6148  11.552  10.516   9.835 -0.1647 -0.0191 -0.0494
  385loPI   GL1 6149  11.553  10.688   9.447 -0.2121 -0.0672 -0.0257
  385loPI   GL2 6150  11.152  10.901   9.469 -0.4079  0.1581 -0.2493
  385loPI   C1A 6151  11.321  10.539   9.150 -0.1302  0.0390 -0.2832
  385loPI   C2A 6152  11.323  10.679   8.757 -0.1984 -0.0914 -0.0694
  385loPI   C3A 6153  11.420  10.768   8.367  0.3622 -0.0545 -0.0832
  385loPI   C4A 6154  11.404  10.698   7.959  0.1371 -0.2892 -0.0950
  385loPI   C5A 6155  11.198  10.547   7.488  0.3671 -0.0197 -0.1341
  385loPI   C6A 6156  10.804  10.409   7.398 -0.1130 -0.3424  0.3341
  385loPI   C1B 6157  11.150  11.204   9.046  0.0776  0.0233  0.1048
  385loPI   C2B 6158  11.095  11.582   8.775  0.2185  0.1145  0.0505
  385loPI   C3B 6159  11.045  11.589   8.297 -0.0975 -0.1131 -0.2601
  385loPI   C4B 6160  10.967  11.478   7.864  0.0022  0.0670  0.2173
  386loPI    C1 6161  11.952  18.257   9.856 -0.1162  0.1035 -0.0858
  386loPI    C2 6162  12.184  18.580   9.813  0.1945 -0.0642  0.2697
  386loPI    C3 6163  12.072  18.461  10.178  0.0687 -0.3491  0.1415
  386loPI   PO4 6164  11.800  18.289   9.680 -0.0348  0.0336  0.0097
  386loPI   GL1 6165  11.693  18.115   9.383  0.0198 -0.2503 -0.2923
  386loPI   GL2 6166  11.921  17.808   9.462  0.1367  0.2458  0.3071
  386loPI   C1A 6167  11.763  18.280   8.948 -0.0152  0.3843  0.2207
  386loPI   C2A 6168  11.801  18.081   8.668  0.1897 -0.2037  0.2900
  386loPI   C3A 6169  11.727  18.106   8.213 -0.1078  0.0369 -0.2500
  386loPI   C4A 6170  11.874  17.721   8.029 -0.0514 -0.0121  0.0434
  386loPI   C5A 6171  11.933  17.833   7.593 -0.0148 -0.1038  0.1719
  386loPI   C6A 6172  12.189  18.197   7.505 -0.2725  0.3235 -0.0082
  386loPI   C1B 6173  11.654  17.689   9.029  0.0669 -0.1504  0.0107
  386loPI   C2B 6174  11.564  17.650   8.490  0.0264 -0.0948 -0.0042
  386loPI   C3B 6175  11.363  17.803   8.015  0.2825  0.2432  0.1064
  386loPI   C4B 6176  11.478  18.266   7.740  0.1365 -0.1715 -0.0989
  387loPI    C1 6177  18.421   6.290   9.357 -0.1931 -0.3265 -0.1775
  387loPI    C2 6178  18.366   5.907   9.458  0.1194 -0.2955  0.1286
  387loPI    C3 6179  18.305   6.196   9.728  0.3610 -0.1658  0.0468
  387loPI   PO4 6180  18.234   6.381   9.075  0.2338 -0.0547 -0.0394
  387loPI   GL1 6181  18.160   6.346   8.727 -0.1421 -0.1425 -0.1185
  387loPI   GL2 6182  17.907   6.087   8.828  0.2240  0.2436 -0.1169
  387loPI   C1A 6183  18.193   6.347   8.252 -0.0801 -0.0499  0.2914
  387loPI   C2A 6184  18.341   6.341   7.852 -0.1844  0.0284 -0.0180
  387loPI   C3A 6185  18.375   6.214   7.375  0.1817  0.1251 -0.1563
  387loPI   C4A 6186  18.313   6.076   6.897 -0.0765 -0.0928 -0.0394
  387loPI   C5A 6187  18.237   5.596   6.667 -0.1225  0.0294  0.1099
  387loPI   C6A 6188  18.165   5.218   6.549  0.2141 -0.0327 -0.3727
  387loPI   C1B 6189  17.893   5.983   8.398  0.0084  0.0771 -0.0308
  387loPI   C2B 6190  17.842   5.874   7.978 -0.0817 -0.0022  0.1576
  387loPI   C3B 6191  18.178   5.813   7.695  0.2125 -0.1752  0.1048
  387loPI   C4B 6192  18.321   5.695   7.241 -0.0627 -0.1425 -0.1183
  388loPI    C1 6193   4.330  15.934   9.933  0.2151 -0.1090 -0.1251
  388loPI    C2 6194   4.626  15.767  10.144  0.0201 -0.0178  0.2302
  388loPI    C3 6195   4.248  15.730  10.267 -0.0957  0.0682 -0.0898
  388loPI   PO4 6196   4.438  15.939   9.640  0.2306  0.2372  0.1681
  388loPI   GL1 6197   4.596  15.800   9.325 -0.0496  0.3088  0.0084
  388loPI   GL2 6198   4.306  15.628   9.217  0.0794  0.0802 -0.0659
  388loPI   C1A 6199   4.558  15.850   8.870  0.1141  0.0885  0.3254
  388loPI   C2A 6200   4.510  15.807   8.507 -0.1976  0.0275 -0.3597
  388loPI   C3A 6201   4.378  15.917   8.051 -0.0124  0.2601  0.3643
  388loPI   C4A 6202   4.456  16.011   7.589  0.6033 -0.4055 -0.4618
  388loPI   C5A 6203   4.444  16.327   7.201  0.3568  0.0779  0.0631
  388loPI   C6A 6204   4.152  16.356   6.898  0.0111  0.1115  0.5077
  388loPI   C1B 6205   4.160  15.558   8.813  0.1702  0.1827 -0.3174
  388loPI   C2B 6206   4.017  15.514   8.351 -0.0456 -0.1280  0.2291
  388loPI   C3B 6207   3.910  15.392   7.870  0.0947  0.0729 -0.1640
  388loPI   C4B 6208   3.732  15.078   7.551  0.1642  0.0243 -0.0350
  389loPI    C1 6209   1.626   8.771   9.974 -0.1721 -0.2434  0.1290
  389loPI    C2 6210   1.735   8.723  10.356 -0.1527 -0.3172  0.1145
  389loPI    C3 6211   1.410   8.938  10.266  0.1244  0.1285  0.1434
  389loPI   PO4 6212   1.517   8.508   9.880  0.2102 -0.0715  0.0262
  389loPI   GL1 6213   1.321   8.415   9.538  0.3216  0.0035  0.1961
  389loPI   GL2 6214   1.406   8.771   9.469  0.0759 -0.0509  0.0442
  389loPI   C1A 6215   1.393   8.212   9.169 -0.0335  0.0753 -0.1510
  389loPI   C2A 6216   1.194   8.190   8.786  0.1636  0.5984 -0.1392
  389loPI   C3A 6217   0.995   8.325   8.429 -0.0824 -0.1252 -0.2210
  389loPI   C4A 6218   0.775   8.489   8.106  0.0360 -0.1932 -0.4439
  389loPI   C5A 6219   0.512   8.351   7.842  0.0397 -0.0879  0.2593
  389loPI   C6A 6220   0.438   7.963   7.575 -0.2062  0.1032 -0.0078
  389loPI   C1B 6221   1.424   8.768   8.940 -0.1791 -0.0812 -0.2707
  389loPI   C2B 6222   1.479   8.669   8.474  0.2233 -0.1857 -0.0097
  389loPI   C3B 6223   1.251   8.691   8.059 -0.1332  0.0582 -0.0928
  389loPI   C4B 6224   1.115   8.788   7.664 -0.2438  0.0612  0.2028
  390loPI    C1 6225   2.896  12.789   9.735 -0.0852  0.1696 -0.0384
  390loPI    C2 6226   3.291  12.751   9.783 -0.1519 -0.2930  0.2066
  390loPI    C3 6227   3.097  13.056   9.953  0.1055 -0.0227  0.0253
  390loPI   PO4 6228   2.893  12.874   9.434 -0.2011 -0.0783 -0.0032
  390loPI   GL1 6229   2.970  12.929   9.051 -0.1380 -0.3193 -0.1918
  390loPI   GL2 6230   2.812  12.635   8.970 -0.1172  0.3341  0.2186
  390loPI   C1A 6231   2.920  13.281   8.645 -0.0055  0.2650 -0.2521
  390loPI   C2A 6232   2.977  13.410   8.271 -0.0544  0.0909  0.1129
  390loPI   C3A 6233   3.220  13.407   7.876  0.1846  0.1362  0.1576
  390loPI   C4A 6234   3.328  13.379   7.534  0.2252  0.2028 -0.1379
  390loPI   C5A 6235   3.437  13.497   7.090 -0.1410  0.0293  0.0102
  390loPI   C6A 6236   3.559  13.207   6.706  0.0291 -0.0318  0.0496
  390loPI   C1B 6237   2.705  12.822   8.507  0.3518 -0.0379  0.3778
  390loPI   C2B 6238   2.756  12.925   8.024  0.1297  0.0830  0.0332
  390loPI   C3B 6239   2.773  13.345   7.809  0.0433 -0.2120 -0.0397
  390loPI   C4B 6240   2.679  13.564   7.553  0.1117  0.2234  0.0379
  391loPI    C1 6241  12.168  13.249  10.534 -0.1434  0.0632 -0.1347
  391loPI    C2 6242  12.308  12.893  10.652 -0.0993 -0.0778 -0.5946
  391loPI    C3 6243  11.930  12.996  10.733  0.0474  0.0086  0.0273
  391loPI   PO4 6244  12.298  13.243  10.169 -0.0758  0.0657  0.1397
  391loPI   GL1 6245  12.214  13.030   9.806  0.0555  0.3028  0.1787
  391loPI   GL2 6246  11.840  12.878   9.696 -0.3783 -0.0270  0.0268
  391loPI   C1A 6247  12.250  12.816   9.456 -0.1721  0.2540  0.2698
  391loPI   C2A 6248  12.096  12.801   8.994  0.0718 -0.1086  0.4192
  391loPI   C3A 6249  11.935  12.773   8.573 -0.1696  0.0547  0.1042
  391loPI   C4A 6250  11.786  12.785   8.169  0.2306  0.2870  0.1775
  391loPI   C5A 6251  11.682  13.048   7.913  0.3680  0.2168 -0.0356
  391loPI   C6A 6252  11.678  13.164   7.526 -0.2189 -0.0516  0.1994
  391loPI   C1B 6253  11.848  13.128   9.308 -0.1226  0.1308  0.1627
  391loPI   C2B 6254  11.810  13.321   8.888  0.1246 -0.1576 -0.0325
  391loPI   C3B 6255  11.792  13.241   8.377  0.1623  0.0204 -0.0147
  391loPI   C4B 6256  11.801  13.520   7.868 -0.1751 -0.1455  0.0065
  392loPI    C1 6257  10.121  10.902  10.345 -0.0391  0.1767  0.0042
  392loPI    C2 6258  10.508  10.872  10.439 -0.0790 -0.1158  0.0845
  392loPI    C3 6259  10.236  10.933  10.726 -0.1144 -0.1294  0.0539
  392loPI   PO4 6260  10.113  11.103  10.114 -0.1630  0.2235 -0.0204
  392loPI   GL1 6261   9.786  10.895   9.806 -0.1492  0.0207  0.1611
  392loPI   GL2 6262   9.972  10.621   9.811  0.1347 -0.1148  0.0941
  392loPI   C1A 6263   9.887  10.928   9.338  0.0474  0.5165 -0.0710
  392loPI   C2A 6264   9.904  11.226   9.054  0.0380  0.3178 -0.1132
  392loPI   C3A 6265   9.825  11.215   8.665  0.0391  0.1063  0.1452
  392loPI   C4A 6266   9.902  11.057   8.272  0.1730  0.4394 -0.1283
  392loPI   C5A 6267   9.800  10.857   7.871 -0.0076  0.0526 -0.1852
  392loPI   C6A 6268   9.865  10.396   7.695 -0.0075 -0.0753  0.1974
  392loPI   C1B 6269   9.875  10.453   9.371  0.0599  0.1122 -0.0841
  392loPI   C2B 6270   9.698  10.651   8.948  0.0218 -0.0285  0.1639
  392loPI   C3B 6271   9.613  10.539   8.477  0.0095  0.2669 -0.0819
  392loPI   C4B 6272   9.549  10.452   8.048 -0.0094  0.0425 -0.0030
  393loPI    C1 6273  17.555  15.136  10.332 -0.0854  0.3142 -0.0792
  393loPI    C2 6274  17.723  15.496  10.373  0.2618  0.1231  0.2397
  393loPI    C3 6275  17.544  15.322  10.686  0.1437 -0.0060  0.1017
  393loPI   PO4 6276  17.417  15.143  10.097  0.0422 -0.3759 -0.1361
  393loPI   GL1 6277  17.490  14.940   9.733 -0.0591 -0.3569 -0.0143
  393loPI   GL2 6278  17.675  15.358   9.804  0.0511 -0.0509 -0.2606
  393loPI   C1A 6279  17.521  14.630   9.366 -0.0606  0.2930  0.1625
  393loPI   C2A 6280  17.620  14.517   8.943 -0.1685 -0.2922  0.2315
  393loPI   C3A 6281  17.669  14.387   8.550  0.2544  0.0517 -0.0254
  393loPI   C4A 6282  17.584  14.166   8.299  0.2504 -0.1040  0.0032
  393loPI   C5A 6283  17.578  14.208   7.935 -0.6783  0.1695 -0.0895
  393loPI   C6A 6284  17.375  14.242   7.611 -0.2291  0.2114  0.1245
  393loPI   C1B 6285  17.791  15.515   9.384 -0.0045 -0.3392 -0.0741
  393loPI   C2B 6286  17.803  15.721   8.923 -0.0213 -0.0862  0.1316
  393loPI   C3B 6287  17.559  15.868   8.663 -0.3375  0.2298  0.3415
  393loPI   C4B 6288  17.370  15.862   8.227  0.4330 -0.0381 -0.1934
  394loPI    C1 6289  18.502  13.813  10.079  0.0037  0.2545  0.0797
  394loPI    C2 6290  18.730  13.871  10.403 -0.1410  0.0297  0.2251
  394loPI    C3 6291  18.484  13.556  10.386 -0.0963  0.0100 -0.1273
  394loPI   PO4 6292  18.664  13.919   9.889 -0.3386 -0.1632  0.3229
  394loPI   GL1 6293  19.011  13.687   9.733  0.0228 -0.0542 -0.0872
  394loPI   GL2 6294  19.067  13.368   9.668 -0.0829  0.1797 -0.0110
  394loPI   C1A 6295  19.505  13.543   9.589 -0.1426 -0.1153 -0.1320
  394loPI   C2A 6296  19.632  13.502   9.224 -0.0761  0.1844  0.1100
  394loPI   C3A 6297  19.543  13.444   8.843 -0.0405  0.0160 -0.2292
  394loPI   C4A 6298  19.503  13.629   8.569 -0.1668  0.1692  0.1423
  394loPI   C5A 6299  19.469  13.609   8.177  0.0916 -0.0726 -0.3114
  394loPI   C6A 6300  19.719  13.592   7.884  0.3306 -0.2602 -0.0105
  394loPI   C1B 6301  19.107  13.449   9.179  0.3706 -0.1274 -0.0094
  394loPI   C2B 6302  18.996  13.437   8.766 -0.2305  0.0499 -0.0249
  394loPI   C3B 6303  18.838  13.490   8.283 -0.0602 -0.1137  0.2219
  394loPI   C4B 6304  18.820  13.243   7.943  0.0552 -0.1608 -0.0427
  395loPI    C1 6305   8.324   5.656   8.748  0.3297 -0.1665  0.0508
  395loPI    C2 6306   8.049   5.696   9.036  0.0841 -0.0418 -0.1965
  395loPI    C3 6307   8.232   5.344   8.981  0.0470 -0.0983  0.0332
  395loPI   PO4 6308   8.454   5.862   8.763  0.1727 -0.1642 -0.0025
  395loPI   GL1 6309   8.378   6.152   8.647 -0.1009  0.2602 -0.1930
  395loPI   GL2 6310   8.357   6.220   8.368  0.0725 -0.1124  0.0782
  395loPI   C1A 6311   8.135   5.807   8.306  0.0705 -0.1830 -0.0277
  395loPI   C2A 6312   7.827   5.531   8.095 -0.1316  0.2775 -0.0550
  395loPI   C3A 6313   7.598   5.442   7.747 -0.0278  0.0785 -0.0968
  395loPI   C4A 6314   7.610   5.288   7.335  0.2298  0.3356  0.1235
  395loPI   C5A 6315   7.438   5.297   6.822 -0.4203  0.1198 -0.0253
  395loPI   C6A 6316   7.242   5.656   6.553 -0.0445 -0.0250 -0.0752
  395loPI   C1B 6317   8.606   5.947   8.050 -0.1941 -0.1777  0.1389
  395loPI   C2B 6318   8.662   5.828   7.694 -0.3525 -0.0076  0.0166
  395loPI   C3B 6319   8.822   5.671   7.343  0.0212 -0.0199 -0.2127
  395loPI   C4B 6320   8.658   5.735   6.920  0.0613 -0.2457  0.1790
  396loPI    C1 6321   4.637  14.294   9.528 -0.2698  0.0742  0.0694
  396loPI    C2 6322   4.882  14.359   9.838  0.0978 -0.0199 -0.1951
  396loPI    C3 6323   4.579  14.100   9.873 -0.0354  0.1779  0.1695
  396loPI   PO4 6324   4.641  14.562   9.485  0.2091  0.0015  0.1726
  396loPI   GL1 6325   4.969  14.799   9.228  0.0405  0.0802 -0.1733
  396loPI   GL2 6326   4.842  14.618   8.976 -0.1631  0.0866 -0.1223
  396loPI   C1A 6327   5.180  15.020   8.912  0.1419 -0.0932 -0.2526
  396loPI   C2A 6328   5.233  15.067   8.443  0.1383  0.0452  0.0397
  396loPI   C3A 6329   5.355  14.964   8.045  0.0339  0.1501  0.1626
  396loPI   C4A 6330   5.339  14.996   7.591  0.2520  0.0220 -0.0267
  396loPI   C5A 6331   5.404  15.134   7.136  0.4420 -0.0126 -0.1357
  396loPI   C6A 6332   5.386  15.112   6.737  0.1509 -0.0162  0.2827
  396loPI   C1B 6333   4.807  14.879   8.626  0.2404  0.3202  0.1151
  396loPI   C2B 6334   4.851  14.898   8.234 -0.3345 -0.0944  0.2969
  396loPI   C3B 6335   4.902  15.033   7.827 -0.2192  0.0908  0.0994
  396loPI   C4B 6336   4.726  14.795   7.454  0.1892 -0.1034  0.2250
  397loPI    C1 6337  17.559  14.149  10.455  0.0026  0.0257  0.0007
  397loPI    C2 6338  17.906  13.993  10.580  0.0197  0.0644  0.0016
  397loPI    C3 6339  17.566  13.905  10.772  0.0152 -0.0514 -0.0588
  397loPI   PO4 6340  17.572  14.150  10.202  0.0136 -0.2706  0.0671
  397loPI   GL1 6341  17.544  14.276   9.729  0.3317  0.2355  0.1264
  397loPI   GL2 6342  17.202  14.106   9.611  0.3132  0.4975 -0.4167
  397loPI   C1A 6343  17.706  14.112   9.423  0.2749  0.2145 -0.3282
  397loPI   C2A 6344  18.004  14.265   9.196  0.2172  0.0165 -0.0394
  397loPI   C3A 6345  18.089  14.252   8.765  0.0698  0.1023 -0.0328
  397loPI   C4A 6346  18.147  14.355   8.307 -0.3134  0.3270 -0.0525
  397loPI   C5A 6347  18.063  14.243   7.858 -0.0825  0.2847 -0.2184
  397loPI   C6A 6348  18.274  14.104   7.324  0.0126 -0.1244  0.2502
  397loPI   C1B 6349  17.276  14.146   9.165 -0.1902  0.0783 -0.1386
  397loPI   C2B 6350  17.226  14.195   8.731 -0.0790 -0.2412 -0.2612
  397loPI   C3B 6351  17.130  14.427   8.308  0.2775  0.2064 -0.4525
  397loPI   C4B 6352  17.253  14.635   7.895 -0.1544 -0.0157  0.2599
  398loPI    C1 6353  12.954  19.207  10.238  0.0918  0.0634  0.0248
  398loPI    C2 6354  12.599  19.381  10.180  0.0223 -0.0832  0.0092
  398loPI    C3 6355  12.892  19.583  10.361 -0.0742  0.0325  0.0379
  398loPI   PO4 6356  12.985  19.061  10.034 -0.0112  0.2608  0.0628
  398loPI   GL1 6357  13.014  18.974   9.621  0.0591 -0.0314  0.2035
  398loPI   GL2 6358  12.840  18.651   9.626 -0.0759  0.0451 -0.3638
  398loPI   C1A 6359  12.825  19.024   9.269  0.2925 -0.2010 -0.0632
  398loPI   C2A 6360  12.669  19.001   8.788 -0.1071  0.1674  0.0470
  398loPI   C3A 6361  12.475  18.939   8.371  0.2585  0.2203  0.2633
  398loPI   C4A 6362  12.371  19.091   7.911 -0.2610 -0.0487 -0.0547
  398loPI   C5A 6363  12.384  19.439   7.509  0.4081 -0.1547 -0.2200
  398loPI   C6A 6364  12.287  19.226   7.154 -0.2591 -0.0879 -0.1502
  398loPI   C1B 6365  12.923  18.546   9.278 -0.0482  0.3235  0.0550
  398loPI   C2B 6366  12.862  18.537   8.779  0.1126 -0.0607  0.0504
  398loPI   C3B 6367  12.987  18.735   8.411  0.0534 -0.1641 -0.0159
  398loPI   C4B 6368  12.908  18.986   8.033 -0.3673 -0.1561  0.2403
  399loPI    C1 6369  12.522  11.569   9.828 -0.1871 -0.0482 -0.1295
  399loPI    C2 6370  12.483  11.357  10.165  0.3052 -0.0219 -0.0479
  399loPI    C3 6371  12.367  11.740  10.154 -0.2455 -0.1811 -0.0871
  399loPI   PO4 6372  12.448  11.419   9.536  0.3199  0.2260  0.1756
  399loPI   GL1 6373  12.484  11.322   9.158 -0.2797  0.1280  0.0121
  399loPI   GL2 6374  12.361  11.030   9.026 -0.1787  0.2758  0.0473
  399loPI   C1A 6375  12.752  11.660   8.872  0.1038 -0.2940  0.3888
  399loPI   C2A 6376  12.849  11.651   8.448 -0.2349 -0.3006  0.2508
  399loPI   C3A 6377  12.938  11.588   8.075 -0.2189 -0.4183  0.1331
  399loPI   C4A 6378  13.014  11.600   7.637  0.2909  0.0813 -0.2799
  399loPI   C5A 6379  13.342  11.660   7.285  0.0760  0.0368 -0.0412
  399loPI   C6A 6380  13.265  11.486   6.933 -0.0963 -0.1363  0.1568
  399loPI   C1B 6381  12.431  11.251   8.638 -0.0592 -0.0093  0.2913
  399loPI   C2B 6382  12.506  11.380   8.097 -0.4331  0.2027 -0.3137
  399loPI   C3B 6383  12.675  11.248   7.797 -0.1496 -0.3262 -0.2232
  399loPI   C4B 6384  13.057  11.084   7.698 -0.0601 -0.0164  0.0588
  400loPI    C1 6385  12.248  16.610   9.943 -0.2565 -0.1386  0.2608
  400loPI    C2 6386  12.452  16.847  10.193 -0.0038  0.0025 -0.0718
  400loPI    C3 6387  12.609  16.499  10.074 -0.0366  0.0259 -0.1853
  400loPI   PO4 6388  12.219  16.841   9.714  0.0552 -0.0545  0.0577
  400loPI   GL1 6389  12.194  16.778   9.375  0.0129  0.0853 -0.0660
  400loPI   GL2 6390  12.012  16.473   9.423 -0.1363  0.2042 -0.0997
  400loPI   C1A 6391  11.974  16.944   8.977  0.0821 -0.1044  0.3045
  400loPI   C2A 6392  12.202  17.104   8.557 -0.3213 -0.2024 -0.0522
  400loPI   C3A 6393  12.325  17.255   8.177  0.1696  0.3770 -0.0836
  400loPI   C4A 6394  12.023  17.268   7.844 -0.1608  0.0457  0.3333
  400loPI   C5A 6395  12.084  17.098   7.428 -0.0571 -0.0807 -0.0625
  400loPI   C6A 6396  12.384  16.904   7.180 -0.2386 -0.1733 -0.3052
  400loPI   C1B 6397  12.087  16.195   9.168  0.2719 -0.2193  0.0726
  400loPI   C2B 6398  12.231  16.050   8.839  0.0143  0.0369  0.2629
  400loPI   C3B 6399  12.158  16.026   8.388 -0.2645  0.3513  0.2681
  400loPI   C4B 6400  12.319  15.948   7.903  0.0693 -0.3195 -0.2632
  401loPI    C1 6401  18.006  12.947  10.127 -0.0661  0.3349 -0.3526
  401loPI    C2 6402  18.255  13.094  10.403  0.0413  0.1910 -0.3716
  401loPI    C3 6403  18.399  12.963  10.053 -0.0555  0.0634 -0.3641
  401loPI   PO4 6404  17.800  13.097  10.173  0.0272  0.0210  0.0806
  401loPI   GL1 6405  17.622  13.074   9.732  0.1653  0.2452  0.0051
  401loPI   GL2 6406  17.911  12.930   9.647  0.0346  0.0586  0.1571
  401loPI   C1A 6407  17.445  13.219   9.369 -0.3951 -0.0541  0.3168
  401loPI   C2A 6408  17.644  13.273   8.922  0.0906  0.1790 -0.1213
  401loPI   C3A 6409  17.519  13.209   8.531 -0.1618 -0.3918 -0.2106
  401loPI   C4A 6410  17.533  13.096   8.115 -0.1635  0.1339 -0.0158
  401loPI   C5A 6411  17.144  12.950   7.951  0.0107 -0.1811  0.0903
  401loPI   C6A 6412  16.775  12.809   7.882  0.1313 -0.1829  0.1539
  401loPI   C1B 6413  17.844  12.930   9.181 -0.2581  0.0317  0.1086
  401loPI   C2B 6414  17.805  12.775   8.771 -0.0441  0.0510  0.1351
  401loPI   C3B 6415  17.593  12.673   8.374  0.2336  0.1689  0.1163
  401loPI   C4B 6416  17.549  12.630   7.779 -0.0234  0.2239  0.1759
  402loPI    C1 6417  19.145  10.697   9.726 -0.0833  0.1098 -0.2652
  402loPI    C2 6418  18.947  10.919   9.993  0.0188  0.0395 -0.1299
  402loPI    C3 6419  18.935  10.520  10.016 -0.1068  0.0303 -0.3302
  402loPI   PO4 6420  19.275  10.943   9.594  0.2331  0.0533  0.0680
  402loPI   GL1 6421  19.234  10.947   9.249  0.0650  0.3428  0.2804
  402loPI   GL2 6422  18.923  10.989   9.235 -0.3000 -0.1808 -0.0840
  402loPI   C1A 6423  19.117  10.974   8.743 -0.2799 -0.4392  0.2214
  402loPI   C2A 6424  19.039  11.012   8.337  0.2012 -0.0147  0.0950
  402loPI   C3A 6425  19.021  11.088   7.828 -0.0186 -0.1125 -0.3694
  402loPI   C4A 6426  18.815  11.327   7.480 -0.2972  0.1220 -0.1106
  402loPI   C5A 6427  18.911  11.427   6.926  0.2999  0.1982  0.0615
  402loPI   C6A 6428  18.980  11.775   6.574  0.1595  0.0289  0.1108
  402loPI   C1B 6429  18.699  10.665   8.885  0.1563  0.1337  0.0293
  402loPI   C2B 6430  18.750  10.684   8.545 -0.3323  0.2483 -0.2657
  402loPI   C3B 6431  18.660  10.733   8.031 -0.2154 -0.0387 -0.1876
  402loPI   C4B 6432  18.751  10.649   7.611 -0.1817  0.1892 -0.2351
  403loPI    C1 6433  10.806  12.195  10.149 -0.1708  0.1985  0.2182
  403loPI    C2 6434  10.998  12.001  10.441  0.0641  0.0197 -0.0501
  403loPI    C3 6435  10.600  11.978  10.415  0.0713 -0.2560  0.0469
  403loPI   PO4 6436  11.047  12.222   9.819 -0.5250 -0.1594 -0.2383
  403loPI   GL1 6437  11.148  12.351   9.359  0.0123 -0.0292 -0.0686
  403loPI   GL2 6438  10.807  12.499   9.272  0.1905  0.0017  0.0214
  403loPI   C1A 6439  11.202  12.088   8.961 -0.0281 -0.2268  0.2962
  403loPI   C2A 6440  11.254  12.374   8.549  0.1106  0.2477  0.1175
  403loPI   C3A 6441  11.457  12.411   8.205  0.1187  0.2035 -0.0693
  403loPI   C4A 6442  11.506  12.480   7.823  0.0431 -0.0558  0.0417
  403loPI   C5A 6443  11.925  12.602   7.560 -0.0186  0.1388 -0.0313
  403loPI   C6A 6444  12.008  12.899   7.192  0.0298  0.1921  0.0066
  403loPI   C1B 6445  10.567  12.510   9.017 -0.1077 -0.1679  0.1041
  403loPI   C2B 6446  10.286  12.318   8.862  0.0035  0.3608 -0.1287
  403loPI   C3B 6447  10.252  12.129   8.459 -0.0279 -0.2603  0.0249
  403loPI   C4B 6448  10.236  11.945   8.060  0.2613 -0.1614  0.2223
  404loPI    C1 6449  10.889   0.447   9.856  0.1972  0.0396 -0.0198
  404loPI    C2 6450  11.235   0.499  10.049  0.3197 -0.0036 -0.2248
  404loPI    C3 6451  11.082   0.131  10.009  0.0731  0.0501  0.1625
  404loPI   PO4 6452  10.920   0.550   9.570  0.2114 -0.0944  0.0731
  404loPI   GL1 6453  10.869   0.333   9.134  0.0185 -0.1085  0.1640
  404loPI   GL2 6454  11.173   0.448   9.080  0.0422 -0.2342 -0.1486
  404loPI   C1A 6455  10.820   0.334   8.725  0.2238  0.0116 -0.0498
  404loPI   C2A 6456  11.073   0.509   8.308  0.0082  0.3002 -0.2368
  404loPI   C3A 6457  11.207   0.307   7.923 -0.1148  0.0315 -0.2350
  404loPI   C4A 6458  11.120   0.075   7.605 -0.0632  0.0501  0.2106
  404loPI   C5A 6459  10.734   0.091   7.460  0.3838  0.1075 -0.1277
  404loPI   C6A 6460  10.479   0.067   7.187  0.1815 -0.2888 -0.2157
  404loPI   C1B 6461  11.558   0.254   9.104 -0.0276  0.2256  0.2178
  404loPI   C2B 6462  11.810   0.003   8.903 -0.1845  0.0557 -0.1479
  404loPI   C3B 6463  12.034  -0.281   8.479  0.1866  0.1285 -0.1090
  404loPI   C4B 6464  11.931  -0.251   8.034 -0.4168 -0.1438 -0.0357
  405loPI    C1 6465   3.892  17.093   9.831  0.2256 -0.0574 -0.0103
  405loPI    C2 6466   3.958  17.286  10.175  0.0468  0.0590 -0.0403
  405loPI    C3 6467   3.682  16.997  10.157  0.0867  0.0231 -0.0757
  405loPI   PO4 6468   3.856  17.314   9.640 -0.2331  0.0352  0.0031
  405loPI   GL1 6469   3.624  17.267   9.340 -0.2431 -0.0629 -0.2110
  405loPI   GL2 6470   3.629  16.923   9.413  0.1750  0.0328 -0.0340
  405loPI   C1A 6471   3.519  17.236   8.898 -0.2611 -0.0392  0.2512
  405loPI   C2A 6472   3.532  17.409   8.473  0.2598 -0.1299  0.1678
  405loPI   C3A 6473   3.769  17.294   8.032  0.0429 -0.3260 -0.2069
  405loPI   C4A 6474   3.800  17.488   7.612 -0.1571  0.2713  0.2394
  405loPI   C5A 6475   3.541  17.822   7.533  0.1054 -0.0389 -0.1959
  405loPI   C6A 6476   3.656  18.306   7.451 -0.0423  0.1059 -0.2959
  405loPI   C1B 6477   3.387  16.682   9.021  0.0244  0.0023  0.1999
  405loPI   C2B 6478   3.499  16.752   8.709 -0.0176 -0.2587 -0.1188
  405loPI   C3B 6479   3.622  16.924   8.383  0.2147 -0.1968 -0.1258
  405loPI   C4B 6480   3.583  16.847   8.028  0.1836  0.0157  0.1465
  406loPI    C1 6481  18.980  14.796  10.327 -0.1943  0.3107 -0.1538
  406loPI    C2 6482  18.731  14.995  10.568  0.0319  0.1471  0.2245
  406loPI    C3 6483  19.023  14.770  10.724  0.2436  0.1121 -0.2076
  406loPI   PO4 6484  18.982  14.909  10.128  0.0737 -0.2439  0.2182
  406loPI   GL1 6485  18.815  15.083   9.738 -0.0165  0.0297 -0.0688
  406loPI   GL2 6486  18.436  15.071   9.631  0.2874 -0.4590  0.0023
  406loPI   C1A 6487  18.814  15.252   9.271 -0.0326  0.1101 -0.2054
  406loPI   C2A 6488  18.769  15.385   8.921  0.1580 -0.0686 -0.1664
  406loPI   C3A 6489  18.638  15.581   8.623  0.2055  0.0784  0.0685
  406loPI   C4A 6490  18.432  15.611   8.234 -0.2614 -0.1937 -0.1804
  406loPI   C5A 6491  18.136  15.481   7.906  0.2405 -0.2848 -0.2663
  406loPI   C6A 6492  18.095  15.380   7.323  0.1277 -0.1634 -0.0175
  406loPI   C1B 6493  18.329  15.049   9.148 -0.1270 -0.1484 -0.2666
  406loPI   C2B 6494  18.348  15.211   8.669  0.1717  0.2361  0.1216
  406loPI   C3B 6495  18.633  15.162   8.356 -0.0076 -0.1761  0.0533
  406loPI   C4B 6496  18.758  15.239   7.909 -0.1797 -0.0439  0.3619
  407loPI    C1 6497   0.326   7.973   9.886 -0.0893  0.0433  0.0721
  407loPI    C2 6498   0.549   7.676  10.033  0.1297  0.2693  0.2051
  407loPI    C3 6499   0.564   8.038  10.201 -0.0634  0.3808 -0.0132
  407loPI   PO4 6500   0.404   7.965   9.655  0.4345  0.2152 -0.0308
  407loPI   GL1 6501   0.386   8.290   9.371 -0.2279  0.2512 -0.0944
  407loPI   GL2 6502   0.085   8.207   9.141 -0.0547 -0.0543  0.1863
  407loPI   C1A 6503   0.337   8.570   9.005  0.4996  0.0356  0.0746
  407loPI   C2A 6504   0.528   8.702   8.563  0.1157  0.1873  0.2054
  407loPI   C3A 6505   0.940   8.846   8.365  0.0676 -0.4124 -0.1622
  407loPI   C4A 6506   1.039   9.120   8.041  0.2665 -0.1293  0.0728
  407loPI   C5A 6507   1.141   9.274   7.594  0.1630 -0.2854 -0.2127
  407loPI   C6A 6508   1.502   9.601   7.545  0.1812  0.0040  0.0536
  407loPI   C1B 6509   0.128   7.914   8.763 -0.0612 -0.3873 -0.1620
  407loPI   C2B 6510   0.186   7.984   8.287 -0.0117 -0.3087  0.0951
  407loPI   C3B 6511   0.083   8.038   7.948 -0.0581 -0.2801  0.1805
  407loPI   C4B 6512   0.109   8.291   7.586  0.2796  0.1285  0.0769
  408loPI    C1 6513  10.559   2.183   9.975 -0.2062  0.3723 -0.0096
  408loPI    C2 6514  10.412   2.452  10.232 -0.3122  0.1176  0.2015
  408loPI    C3 6515  10.549   2.101  10.366 -0.0131  0.1322 -0.0520
  408loPI   PO4 6516  10.318   2.188   9.750  0.1698  0.3217  0.0307
  408loPI   GL1 6517  10.091   2.418   9.345 -0.1433  0.0242  0.1550
  408loPI   GL2 6518  10.350   2.173   9.265 -0.0471 -0.1065 -0.1635
  408loPI   C1A 6519   9.881   2.388   8.926 -0.5342  0.0591 -0.1292
  408loPI   C2A 6520   9.874   2.276   8.589 -0.3086  0.2323  0.0314
  408loPI   C3A 6521   9.813   2.300   8.102 -0.2340  0.1781 -0.0980
  408loPI   C4A 6522   9.798   2.416   7.673 -0.0590  0.1950 -0.0978
  408loPI   C5A 6523   9.541   2.349   7.232 -0.2303 -0.1184 -0.0632
  408loPI   C6A 6524   9.699   2.405   6.855 -0.1218 -0.1613  0.2176
  408loPI   C1B 6525  10.252   1.970   8.793  0.2781 -0.0277 -0.1612
  408loPI   C2B 6526  10.444   2.029   8.386 -0.1621  0.2755 -0.1466
  408loPI   C3B 6527  10.514   2.033   8.001  0.0932  0.1829  0.0768
  408loPI   C4B 6528  10.586   2.200   7.583 -0.1207  0.1579  0.3929
  409loPI    C1 6529   9.048   7.567   9.696 -0.0286  0.0631 -0.1677
  409loPI    C2 6530   9.127   7.399  10.050 -0.0359 -0.3394 -0.3514
  409loPI    C3 6531   8.825   7.659  10.015  0.0064 -0.2453 -0.0512
  409loPI   PO4 6532   9.296   7.629   9.640 -0.2194  0.0286  0.2534
  409loPI   GL1 6533   9.482   7.722   9.228 -0.0054  0.3066  0.0936
  409loPI   GL2 6534   9.230   7.734   9.170  0.1996  0.0916  0.2032
  409loPI   C1A 6535   9.766   8.163   9.273 -0.0535  0.4257 -0.1073
  409loPI   C2A 6536  10.071   8.251   9.046 -0.0852 -0.1654  0.0242
  409loPI   C3A 6537  10.363   8.610   8.906  0.1407  0.0006 -0.0076
  409loPI   C4A 6538  10.484   8.824   8.568 -0.1545 -0.3710  0.0399
  409loPI   C5A 6539  10.467   8.680   8.173  0.0952  0.2037 -0.0013
  409loPI   C6A 6540  10.663   8.578   7.745  0.2434  0.0133  0.2031
  409loPI   C1B 6541   9.395   7.878   8.725 -0.1207  0.4252  0.3214
  409loPI   C2B 6542   9.452   8.159   8.341  0.2307 -0.1132 -0.0478
  409loPI   C3B 6543   9.554   8.078   7.944 -0.2734  0.0089  0.0716
  409loPI   C4B 6544   9.669   8.294   7.593  0.2250  0.2888 -0.1956
  410loPI    C1 6545  15.988  17.565  10.413 -0.0129  0.0801  0.2337
  410loPI    C2 6546  16.317  17.376  10.541  0.0060 -0.0797 -0.0421
  410loPI    C3 6547  15.977  17.349  10.750  0.1183 -0.0692  0.1441
  410loPI   PO4 6548  16.002  17.573  10.131  0.3716 -0.1684 -0.0283
  410loPI   GL1 6549  16.140  17.465   9.770  0.1098  0.1849  0.0057
  410loPI   GL2 6550  16.340  17.165   9.512 -0.1394 -0.0884  0.0560
  410loPI   C1A 6551  16.111  17.548   9.353  0.1713 -0.2500 -0.1606
  410loPI   C2A 6552  16.168  17.635   8.983  0.0109  0.1934  0.2207
  410loPI   C3A 6553  15.979  17.536   8.557  0.1426 -0.4408 -0.6643
  410loPI   C4A 6554  16.158  17.269   8.274 -0.2724 -0.1547 -0.2864
  410loPI   C5A 6555  16.380  17.139   7.981 -0.0035 -0.0040 -0.2010
  410loPI   C6A 6556  16.712  17.143   7.653  0.0530 -0.1779  0.4033
  410loPI   C1B 6557  16.331  17.091   9.125  0.2620  0.1219  0.3924
  410loPI   C2B 6558  16.534  17.378   8.715 -0.0389  0.3062 -0.3348
  410loPI   C3B 6559  16.478  17.681   8.407 -0.2003 -0.0578  0.2020
  410loPI   C4B 6560  16.536  17.777   7.896 -0.0627 -0.2720  0.1737
  411loPI    C1 6561  16.119  15.751  10.452  0.0384  0.0715 -0.1728
  411loPI    C2 6562  15.917  15.405  10.456  0.4480 -0.1729 -0.0041
  411loPI    C3 6563  15.804  15.705  10.694  0.2601 -0.2907  0.0571
  411loPI   PO4 6564  16.147  15.791  10.193 -0.1811  0.0245  0.1238
  411loPI   GL1 6565  16.336  15.709   9.845  0.1439  0.0102  0.2259
  411loPI   GL2 6566  15.998  15.690   9.763  0.1542  0.0431 -0.1170
  411loPI   C1A 6567  16.402  16.123   9.559 -0.0397  0.1011  0.2395
  411loPI   C2A 6568  16.263  16.159   9.114 -0.1241 -0.3861 -0.0417
  411loPI   C3A 6569  16.024  16.053   8.829 -0.2913  0.1028 -0.1601
  411loPI   C4A 6570  15.777  15.821   8.580  0.0693 -0.2793  0.0255
  411loPI   C5A 6571  15.614  15.789   8.264 -0.1263 -0.1226 -0.1713
  411loPI   C6A 6572  15.355  15.786   7.993 -0.0405 -0.0736 -0.2787
  411loPI   C1B 6573  16.281  15.620   9.362  0.1483 -0.0400 -0.0995
  411loPI   C2B 6574  16.147  15.570   9.021  0.3036  0.2246  0.2842
  411loPI   C3B 6575  16.084  15.433   8.650 -0.0245  0.0526 -0.0228
  411loPI   C4B 6576  16.103  15.468   8.290  0.2701  0.0671 -0.0470
  412loPI    C1 6577  18.123  17.335  10.286 -0.1301 -0.1566  0.0648
  412loPI    C2 6578  18.091  17.595  10.589  0.0001  0.0141 -0.0661
  412loPI    C3 6579  18.065  17.202  10.659  0.0544  0.0512  0.1699
  412loPI   PO4 6580  18.264  17.423  10.148  0.1208  0.2518  0.2471
  412loPI   GL1 6581  18.283  17.318   9.785  0.1045  0.0747 -0.3640
  412loPI   GL2 6582  18.138  17.073   9.687 -0.0878 -0.1489  0.1515
  412loPI   C1A 6583  18.516  17.571   9.423 -0.3776 -0.0987 -0.1369
  412loPI   C2A 6584  18.567  17.702   8.967  0.0897  0.1398  0.1589
  412loPI   C3A 6585  18.649  17.558   8.566 -0.1110 -0.0620  0.2482
  412loPI   C4A 6586  18.991  17.500   8.264  0.0486 -0.0307 -0.1975
  412loPI   C5A 6587  19.345  17.602   7.967 -0.0885  0.4172  0.1082
  412loPI   C6A 6588  19.256  17.375   7.613  0.0706  0.1205  0.2240
  412loPI   C1B 6589  18.059  16.786   9.306 -0.2633 -0.0209 -0.1380
  412loPI   C2B 6590  18.002  16.700   8.839 -0.2667  0.2452 -0.3730
  412loPI   C3B 6591  18.041  16.682   8.407 -0.2682  0.0830 -0.2464
  412loPI   C4B 6592  18.105  16.554   8.051 -0.1829  0.0241 -0.0441
  413loPI    C1 6593   7.876  19.198   9.873 -0.1737  0.3467 -0.0192
  413loPI    C2 6594   8.213  19.390   9.967  0.1001 -0.1916  0.1415
  413loPI    C3 6595   7.911  19.376  10.229 -0.0238  0.2248  0.0282
  413loPI   PO4 6596   7.976  19.102   9.654 -0.0845 -0.0791 -0.0594
  413loPI   GL1 6597   7.870  19.087   9.203 -0.0616 -0.2579 -0.1123
  413loPI   GL2 6598   7.837  18.752   9.208 -0.1602  0.3090  0.0490
  413loPI   C1A 6599   7.806  19.024   8.793  0.3400  0.0726  0.1311
  413loPI   C2A 6600   7.656  19.090   8.441 -0.0080 -0.2591 -0.0192
  413loPI   C3A 6601   7.753  19.242   8.072 -0.3198 -0.0370 -0.0262
  413loPI   C4A 6602   8.118  19.229   7.709  0.0146  0.4565 -0.0922
  413loPI   C5A 6603   8.062  19.416   7.383 -0.0630 -0.1329  0.0002
  413loPI   C6A 6604   8.041  19.764   7.051  0.2765  0.3531 -0.0818
  413loPI   C1B 6605   7.891  18.524   8.763 -0.0124 -0.1551 -0.2238
  413loPI   C2B 6606   7.797  18.596   8.303 -0.0184  0.2561  0.3291
  413loPI   C3B 6607   8.031  18.640   7.905  0.1478 -0.0089  0.0421
  413loPI   C4B 6608   8.109  18.689   7.483  0.4504  0.2572  0.0965
  414loPI    C1 6609  14.934   0.240   9.714 -0.0685 -0.3985  0.2922
  414loPI    C2 6610  14.818   0.191   9.335  0.1003 -0.3445  0.2326
  414loPI    C3 6611  14.790  -0.113   9.593 -0.1208 -0.3481  0.2068
  414loPI   PO4 6612  15.119   0.525   9.573 -0.0061 -0.1057 -0.0481
  414loPI   GL1 6613  15.146   0.518   9.112 -0.2964 -0.1790 -0.3744
  414loPI   GL2 6614  14.817   0.621   9.111  0.0019 -0.2447  0.0944
  414loPI   C1A 6615  15.299   0.367   8.740 -0.0380 -0.0081 -0.2873
  414loPI   C2A 6616  15.305   0.066   8.352  0.0248  0.2046  0.1633
  414loPI   C3A 6617  15.369  -0.172   7.875  0.0100 -0.1527  0.0006
  414loPI   C4A 6618  15.382  -0.008   7.431  0.3139  0.1566  0.1146
  414loPI   C5A 6619  15.031   0.083   7.219 -0.2587  0.1051 -0.1626
  414loPI   C6A 6620  14.729   0.281   7.109  0.2714 -0.4153 -0.1693
  414loPI   C1B 6621  14.854   0.221   8.823 -0.1259  0.0588  0.1070
  414loPI   C2B 6622  14.644   0.045   8.447 -0.1040 -0.2405  0.1885
  414loPI   C3B 6623  14.830   0.052   8.056  0.0792 -0.0619  0.1030
  414loPI   C4B 6624  14.762   0.059   7.655  0.0432 -0.1647 -0.1360
  415loPI    C1 6625  16.049  18.309   9.736  0.0446 -0.0166 -0.1691
  415loPI    C2 6626  16.198  17.941   9.690  0.4487  0.1453 -0.2031
  415loPI    C3 6627  16.202  18.115  10.050  0.1807  0.0879 -0.1698
  415loPI   PO4 6628  15.869  18.325   9.613 -0.4034 -0.0517 -0.0501
  415loPI   GL1 6629  15.865  18.098   9.284 -0.2042 -0.0970  0.0709
  415loPI   GL2 6630  15.625  18.265   9.149  0.0255  0.0329  0.1971
  415loPI   C1A 6631  16.067  18.130   8.964  0.1088  0.1315  0.3995
  415loPI   C2A 6632  16.123  18.011   8.589  0.0809  0.0501  0.7558
  415loPI   C3A 6633  16.272  18.109   8.140  0.0939  0.0041  0.2224
  415loPI   C4A 6634  16.169  18.020   7.721 -0.1684 -0.4595  0.0347
  415loPI   C5A 6635  16.492  17.937   7.304 -0.1043  0.2211 -0.3383
  415loPI   C6A 6636  16.540  17.636   7.038 -0.0279 -0.2170  0.0079
  415loPI   C1B 6637  15.612  18.009   8.728 -0.2020  0.1620 -0.4382
  415loPI   C2B 6638  15.770  17.865   8.269 -0.2909  0.1522 -0.0634
  415loPI   C3B 6639  16.031  17.635   7.988  0.0786  0.0933  0.0994
  415loPI   C4B 6640  16.253  17.533   7.621 -0.0946  0.1333  0.0262
  416loPI    C1 6641  12.952   8.919   9.886 -0.0125  0.0537 -0.1784
  416loPI    C2 6642  12.963   8.528   9.805 -0.0464  0.0195 -0.0203
  416loPI    C3 6643  13.199   8.680  10.089  0.0543  0.1346 -0.1640
  416loPI   PO4 6644  12.911   9.028   9.619  0.1132  0.3152  0.0097
  416loPI   GL1 6645  12.702   8.877   9.127 -0.0799  0.1658  0.0131
  416loPI   GL2 6646  12.740   8.583   9.344 -0.3029  0.0574  0.3108
  416loPI   C1A 6647  12.801   8.810   8.740 -0.1784  0.2754  0.1603
  416loPI   C2A 6648  13.040   8.831   8.419 -0.4368 -0.2071 -0.0581
  416loPI   C3A 6649  13.057   8.525   8.090 -0.0085  0.0396  0.2121
  416loPI   C4A 6650  12.961   8.212   7.763 -0.0181 -0.1304 -0.0457
  416loPI   C5A 6651  12.876   7.805   7.516 -0.2892  0.5228  0.1666
  416loPI   C6A 6652  12.496   7.835   7.234 -0.5855 -0.1895  0.1121
  416loPI   C1B 6653  12.581   8.327   8.951 -0.1003  0.0062  0.0416
  416loPI   C2B 6654  12.758   8.119   8.584  0.0063  0.1565  0.0201
  416loPI   C3B 6655  12.504   8.122   8.211 -0.0844 -0.0095 -0.0847
  416loPI   C4B 6656  12.427   7.974   7.751 -0.1750  0.1471 -0.0603
  417loPI    C1 6657   3.622   1.293  10.011 -0.2220  0.1681  0.0854
  417loPI    C2 6658   3.813   1.480  10.308 -0.1982 -0.1187  0.2547
  417loPI    C3 6659   3.514   1.227  10.390 -0.1764 -0.2182  0.0355
  417loPI   PO4 6660   3.627   1.428   9.758  0.0634 -0.0348  0.0894
  417loPI   GL1 6661   3.814   1.290   9.431  0.0974  0.0523 -0.0017
  417loPI   GL2 6662   4.149   1.265   9.393  0.0758 -0.3958 -0.0664
  417loPI   C1A 6663   3.836   1.060   8.957 -0.1371  0.2338  0.0278
  417loPI   C2A 6664   3.738   1.029   8.526  0.1371 -0.1889 -0.3168
  417loPI   C3A 6665   3.949   0.822   8.156  0.1713 -0.1343 -0.2185
  417loPI   C4A 6666   4.168   0.962   7.751 -0.0578 -0.1559 -0.1424
  417loPI   C5A 6667   3.951   1.237   7.320  0.3992 -0.0167 -0.1193
  417loPI   C6A 6668   3.912   1.328   6.908  0.0157  0.0001 -0.1083
  417loPI   C1B 6669   4.079   1.551   9.140 -0.4485 -0.1073  0.0831
  417loPI   C2B 6670   3.856   1.530   8.887 -0.1714 -0.0401  0.0738
  417loPI   C3B 6671   3.799   1.754   8.581  0.1449 -0.1571 -0.3228
  417loPI   C4B 6672   3.591   1.836   8.092  0.1611 -0.2718 -0.3113
  418loPI    C1 6673   8.629   1.920   9.912 -0.1320  0.0243  0.0165
  418loPI    C2 6674   8.272   1.923  10.093 -0.0031  0.1207  0.2740
  418loPI    C3 6675   8.498   2.254  10.090  0.0088  0.1132 -0.0445
  418loPI   PO4 6676   8.579   1.823   9.685  0.2812  0.3889  0.0146
  418loPI   GL1 6677   8.760   1.654   9.285 -0.2754  0.1664  0.2094
  418loPI   GL2 6678   8.579   1.698   8.995  0.1753 -0.0266  0.3551
  418loPI   C1A 6679   9.027   1.403   8.913  0.2799  0.1755  0.0959
  418loPI   C2A 6680   9.108   1.439   8.504  0.2174  0.2523 -0.0309
  418loPI   C3A 6681   9.026   1.440   8.116 -0.3012 -0.0090 -0.0481
  418loPI   C4A 6682   8.987   1.340   7.610 -0.2414  0.1592 -0.2445
  418loPI   C5A 6683   9.182   1.808   7.525  0.0943  0.1116 -0.1270
  418loPI   C6A 6684   9.025   2.205   7.188 -0.2064 -0.1890  0.0821
  418loPI   C1B 6685   8.645   1.652   8.560 -0.5060  0.1919  0.2090
  418loPI   C2B 6686   8.543   1.718   8.109 -0.1368  0.1270 -0.1156
  418loPI   C3B 6687   8.539   1.550   7.756 -0.1110  0.0762  0.0139
  418loPI   C4B 6688   8.261   1.589   7.231 -0.2368  0.2867 -0.0908
  419loPI    C1 6689  12.125  17.220  10.164  0.0649  0.1914  0.2057
  419loPI    C2 6690  12.427  17.479  10.207  0.1447  0.0949  0.2340
  419loPI    C3 6691  12.192  17.392  10.519  0.0682  0.1929  0.2044
  419loPI   PO4 6692  11.996  17.318   9.775 -0.0025  0.1092  0.2909
  419loPI   GL1 6693  12.136  17.404   9.357  0.0265  0.2180 -0.0740
  419loPI   GL2 6694  12.425  17.189   9.252  0.1376  0.1578 -0.1871
  419loPI   C1A 6695  12.105  17.473   8.927  0.3300  0.2388 -0.0392
  419loPI   C2A 6696  12.109  17.683   8.462  0.0792  0.0589 -0.0544
  419loPI   C3A 6697  12.237  18.181   8.127  0.3006 -0.0534 -0.3156
  419loPI   C4A 6698  12.593  18.137   7.892  0.2467 -0.2817  0.2661
  419loPI   C5A 6699  12.854  17.822   7.773  0.0513  0.2986 -0.2935
  419loPI   C6A 6700  13.220  17.629   7.738 -0.0778  0.1020  0.1669
  419loPI   C1B 6701  12.589  16.859   9.027 -0.4167  0.0246 -0.1249
  419loPI   C2B 6702  12.829  16.540   8.683  0.0232  0.2127 -0.0527
  419loPI   C3B 6703  12.905  16.437   8.255  0.0434  0.1209  0.4705
  419loPI   C4B 6704  13.069  16.580   7.798  0.0017 -0.1748 -0.1765
  420loPI    C1 6705   6.004   8.347   9.864 -0.3050 -0.1621  0.0377
  420loPI    C2 6706   6.084   8.032  10.097 -0.0623 -0.0671  0.0867
  420loPI    C3 6707   5.971   8.378  10.261 -0.3303 -0.1266  0.0328
  420loPI   PO4 6708   6.168   8.355   9.590  0.3352 -0.0139 -0.0185
  420loPI   GL1 6709   6.263   8.386   9.161 -0.0034  0.0176  0.1407
  420loPI   GL2 6710   6.550   8.422   9.083  0.4714 -0.1789  0.0805
  420loPI   C1A 6711   6.295   8.325   8.638  0.6623 -0.0170  0.3471
  420loPI   C2A 6712   6.384   8.526   8.153 -0.0628 -0.1331 -0.2857
  420loPI   C3A 6713   6.418   8.817   7.862  0.1057  0.1975  0.0788
  420loPI   C4A 6714   6.187   8.886   7.394 -0.1465 -0.2169  0.0084
  420loPI   C5A 6715   6.206   8.559   7.223  0.1967  0.2755  0.3438
  420loPI   C6A 6716   6.504   8.214   7.308  0.1689  0.1097 -0.0915
  420loPI   C1B 6717   6.724   8.554   8.665  0.0122 -0.1664  0.0056
  420loPI   C2B 6718   6.761   8.849   8.281 -0.0097  0.3872  0.1054
  420loPI   C3B 6719   6.597   9.179   8.103 -0.4433  0.0088 -0.3153
  420loPI   C4B 6720   6.345   9.332   7.768  0.0234  0.3124 -0.1711
  421loPI    C1 6721   9.051   4.701   9.542 -0.0153  0.0730 -0.1029
  421loPI    C2 6722   8.654   4.651   9.543  0.0109 -0.1434 -0.0030
  421loPI    C3 6723   8.824   4.904   9.801 -0.0396 -0.2467  0.1329
  421loPI   PO4 6724   9.162   4.474   9.375 -0.3186 -0.0675 -0.0906
  421loPI   GL1 6725   8.981   4.525   8.999 -0.0730  0.1996 -0.0679
  421loPI   GL2 6726   9.128   4.762   8.843  0.0081 -0.0770 -0.2536
  421loPI   C1A 6727   8.745   4.471   8.615  0.0675  0.1185  0.0257
  421loPI   C2A 6728   8.771   4.421   8.151  0.3151 -0.1869 -0.0074
  421loPI   C3A 6729   8.843   4.323   7.759 -0.1792 -0.2743 -0.0418
  421loPI   C4A 6730   8.589   4.138   7.366 -0.1427  0.1423  0.0862
  421loPI   C5A 6731   8.659   3.881   6.976  0.0746  0.1790 -0.0280
  421loPI   C6A 6732   8.701   3.529   6.738  0.1697 -0.0739  0.2055
  421loPI   C1B 6733   9.163   4.888   8.496 -0.0978  0.0453 -0.3266
  421loPI   C2B 6734   9.193   4.672   8.059 -0.0251  0.0771 -0.0646
  421loPI   C3B 6735   9.340   4.652   7.643 -0.0327 -0.0012 -0.1626
  421loPI   C4B 6736   9.738   4.534   7.468  0.1515 -0.0500 -0.1235
  422loPI    C1 6737  13.875  16.205  10.563 -0.0990  0.1512  0.1513
  422loPI    C2 6738  14.269  16.226  10.629 -0.0264  0.0236 -0.2229
  422loPI    C3 6739  14.034  16.534  10.727  0.1722  0.1195 -0.0413
  422loPI   PO4 6740  13.840  15.977  10.257 -0.1192  0.1109 -0.3365
  422loPI   GL1 6741  13.836  16.097   9.853 -0.4077 -0.0342  0.2178
  422loPI   GL2 6742  13.845  15.815   9.558  0.0006  0.1905  0.2290
  422loPI   C1A 6743  13.546  16.216   9.484  0.0518  0.3971 -0.2313
  422loPI   C2A 6744  13.551  16.249   9.098  0.0244  0.0816  0.1505
  422loPI   C3A 6745  13.598  16.008   8.714  0.1315 -0.0928 -0.1267
  422loPI   C4A 6746  13.757  15.864   8.312 -0.0015 -0.4867 -0.1719
  422loPI   C5A 6747  13.722  15.755   7.825  0.1986 -0.3508 -0.0458
  422loPI   C6A 6748  13.717  15.832   7.319 -0.1074 -0.4221  0.2270
  422loPI   C1B 6749  13.899  15.867   9.080  0.1357 -0.1502  0.2611
  422loPI   C2B 6750  14.089  15.831   8.678  0.0662 -0.0160  0.2834
  422loPI   C3B 6751  14.343  15.965   8.410  0.1632 -0.1477  0.0399
  422loPI   C4B 6752  14.539  16.008   7.994  0.2402  0.1415  0.0448
  423loPI    C1 6753   5.179   8.929   9.818 -0.1137  0.1297 -0.3737
  423loPI    C2 6754   4.800   8.921   9.946 -0.0298  0.0790 -0.1212
  423loPI    C3 6755   5.092   8.782  10.180  0.1406  0.0744 -0.3334
  423loPI   PO4 6756   5.180   8.806   9.592  0.0201 -0.0666 -0.0257
  423loPI   GL1 6757   5.220   8.553   9.153  0.0857  0.1017 -0.4210
  423loPI   GL2 6758   5.425   8.301   9.085  0.1707 -0.2113 -0.0867
  423loPI   C1A 6759   4.938   8.553   8.827 -0.0142  0.1639  0.4663
  423loPI   C2A 6760   4.959   8.576   8.332 -0.0626  0.2121  0.2905
  423loPI   C3A 6761   5.062   8.732   7.805 -0.0038 -0.1186 -0.1606
  423loPI   C4A 6762   5.212   8.606   7.272  0.0804  0.1468  0.0609
  423loPI   C5A 6763   5.367   8.545   6.828  0.2385  0.0157  0.2345
  423loPI   C6A 6764   5.714   8.463   6.650 -0.1265 -0.1424 -0.1717
  423loPI   C1B 6765   5.823   8.426   8.910  0.0812 -0.2776 -0.1864
  423loPI   C2B 6766   5.901   8.625   8.578 -0.1321 -0.2168  0.0118
  423loPI   C3B 6767   5.873   8.673   8.215  0.2203 -0.0757 -0.1265
  423loPI   C4B 6768   5.939   8.588   7.719 -0.2434 -0.2379  0.2297
  424loPI    C1 6769   7.600   5.973   9.327 -0.0337 -0.2599 -0.0784
  424loPI    C2 6770   7.984   6.076   9.372 -0.1653  0.0969  0.2794
  424loPI    C3 6771   7.816   5.814   9.623 -0.1036 -0.2247 -0.0082
  424loPI   PO4 6772   7.639   5.965   9.038 -0.1010 -0.1477 -0.2162
  424loPI   GL1 6773   7.699   6.049   8.777 -0.2340  0.0702 -0.1112
  424loPI   GL2 6774   7.469   6.332   8.688  0.2673  0.0461 -0.0755
  424loPI   C1A 6775   7.719   6.094   8.344  0.0074 -0.4268  0.1344
  424loPI   C2A 6776   7.731   6.002   7.852 -0.1662 -0.1565 -0.0714
  424loPI   C3A 6777   7.869   6.210   7.512 -0.3179 -0.2312  0.0109
  424loPI   C4A 6778   8.105   6.444   7.237 -0.0317 -0.0286 -0.2031
  424loPI   C5A 6779   8.136   6.578   6.807 -0.1193  0.0188  0.0673
  424loPI   C6A 6780   7.838   6.775   6.464 -0.2053 -0.0819  0.0456
  424loPI   C1B 6781   7.235   6.185   8.397 -0.2509  0.0028 -0.1384
  424loPI   C2B 6782   7.266   6.184   7.930  0.2393 -0.0435 -0.0716
  424loPI   C3B 6783   7.396   6.122   7.489 -0.1585  0.0938 -0.0226
  424loPI   C4B 6784   7.594   6.156   7.134 -0.1987 -0.1847 -0.1998
  425loPI    C1 6785   8.400   6.498   9.502 -0.0747 -0.2041  0.0863
  425loPI    C2 6786   8.615   6.474   9.838 -0.0529  0.0054  0.0882
  425loPI    C3 6787   8.379   6.791   9.773  0.0602  0.0406 -0.1626
  425loPI   PO4 6788   8.472   6.521   9.151 -0.1532 -0.3095 -0.2150
  425loPI   GL1 6789   8.378   6.821   8.861 -0.1064  0.6431 -0.0625
  425loPI   GL2 6790   8.469   6.726   8.620 -0.1384 -0.0202  0.1232
  425loPI   C1A 6791   8.079   6.990   8.463 -0.0449  0.2938 -0.2702
  425loPI   C2A 6792   7.991   6.844   8.022 -0.0963  0.2408 -0.2183
  425loPI   C3A 6793   7.999   6.714   7.676 -0.1389  0.3514  0.0409
  425loPI   C4A 6794   8.242   6.891   7.327 -0.1973  0.0497  0.4317
  425loPI   C5A 6795   8.482   7.179   7.115 -0.4636 -0.2001 -0.0113
  425loPI   C6A 6796   8.873   7.310   6.907  0.1817 -0.4542  0.4958
  425loPI   C1B 6797   8.467   6.671   8.190 -0.2240 -0.1956  0.1847
  425loPI   C2B 6798   8.572   6.655   7.782 -0.2340 -0.0170  0.3741
  425loPI   C3B 6799   8.728   6.797   7.379 -0.0384 -0.0104 -0.1894
  425loPI   C4B 6800   8.618   6.706   6.959  0.2512  0.0336  0.0768
  426loPI    C1 6801  10.774   4.702   9.752 -0.0212  0.1033  0.0632
  426loPI    C2 6802  10.752   4.303   9.776 -0.0201  0.0879 -0.1712
  426loPI    C3 6803  10.577   4.530  10.055 -0.0681 -0.0754 -0.0669
  426loPI   PO4 6804  10.756   4.724   9.487  0.0640  0.0354  0.3180
  426loPI   GL1 6805  10.809   4.484   9.042 -0.0059  0.1218  0.2113
  426loPI   GL2 6806  10.581   4.303   9.243  0.0391  0.1758  0.1866
  426loPI   C1A 6807  10.699   4.525   8.706  0.0052 -0.0212 -0.1035
  426loPI   C2A 6808  10.629   4.582   8.318  0.0347  0.1732  0.3584
  426loPI   C3A 6809  10.641   4.597   7.857  0.3191 -0.0347  0.0055
  426loPI   C4A 6810  10.675   4.747   7.368  0.3621  0.0965 -0.1086
  426loPI   C5A 6811  10.971   4.845   7.111  0.2308  0.6884  0.1288
  426loPI   C6A 6812  11.109   4.727   6.736 -0.0425 -0.0763  0.1484
  426loPI   C1B 6813  10.594   3.971   8.861 -0.1914  0.0430 -0.0659
  426loPI   C2B 6814  10.590   4.086   8.476 -0.0611 -0.0717 -0.0413
  426loPI   C3B 6815  10.586   4.076   7.982  0.2734  0.0246 -0.1343
  426loPI   C4B 6816  10.749   4.065   7.655 -0.0827  0.1808  0.2819
  427loPI    C1 6817  15.274  17.802   9.645 -0.0463 -0.0499  0.0670
  427loPI    C2 6818  15.672  17.764   9.652 -0.0363  0.0595  0.1027
  427loPI    C3 6819  15.452  17.614   9.951 -0.0237 -0.0187  0.0730
  427loPI   PO4 6820  15.256  18.057   9.421 -0.0808 -0.1231 -0.5385
  427loPI   GL1 6821  15.077  18.324   9.167 -0.0913 -0.1038  0.2975
  427loPI   GL2 6822  15.214  18.537   8.916  0.0553  0.1388 -0.0829
  427loPI   C1A 6823  15.096  18.077   8.700 -0.4169 -0.3345 -0.1121
  427loPI   C2A 6824  15.290  18.011   8.391  0.0593 -0.0822  0.1092
  427loPI   C3A 6825  15.274  17.767   8.097 -0.1035  0.1284 -0.1479
  427loPI   C4A 6826  15.380  17.528   7.770  0.2076 -0.1709 -0.1004
  427loPI   C5A 6827  15.449  17.372   7.399 -0.2724  0.1210  0.0787
  427loPI   C6A 6828  15.510  17.477   7.049 -0.0968  0.2817  0.0410
  427loPI   C1B 6829  15.340  18.640   8.492  0.1485 -0.1165 -0.4219
  427loPI   C2B 6830  15.393  18.703   7.978  0.1134 -0.0799  0.1377
  427loPI   C3B 6831  15.611  18.793   7.649 -0.1933  0.1918 -0.1642
  427loPI   C4B 6832  15.785  19.148   7.583 -0.0803 -0.2507  0.0056
  428loPI    C1 6833  12.843   7.105  10.048  0.3765  0.0539  0.2001
  428loPI    C2 6834  12.612   7.318  10.295  0.1389 -0.0342  0.0569
  428loPI    C3 6835  12.860   7.041  10.443 -0.0169 -0.1015  0.1958
  428loPI   PO4 6836  13.042   7.289   9.953 -0.1672 -0.0624  0.0448
  428loPI   GL1 6837  13.272   7.306   9.474  0.0242  0.0777 -0.2462
  428loPI   GL2 6838  13.441   7.458   9.339  0.1186  0.2066  0.4682
  428loPI   C1A 6839  13.115   7.060   9.065 -0.2063 -0.1830 -0.2912
  428loPI   C2A 6840  13.048   7.216   8.645 -0.0809 -0.2247 -0.2525
  428loPI   C3A 6841  12.898   7.282   8.220  0.1726  0.0637  0.0614
  428loPI   C4A 6842  12.759   7.026   7.846 -0.0587  0.1815  0.2349
  428loPI   C5A 6843  12.738   6.979   7.449  0.1994 -0.0446  0.2504
  428loPI   C6A 6844  13.057   7.143   7.094  0.1607 -0.1061 -0.0024
  428loPI   C1B 6845  13.335   7.685   8.914  0.0621  0.0756  0.2187
  428loPI   C2B 6846  13.014   7.707   8.540  0.0005 -0.0588 -0.0306
  428loPI   C3B 6847  12.969   7.870   8.133  0.3052  0.1021  0.3474
  428loPI   C4B 6848  13.144   7.501   7.824  0.1997 -0.4964 -0.0348
  429loPI    C1 6849   3.078  16.410   9.942 -0.1218  0.1527 -0.1432
  429loPI    C2 6850   3.280  16.689  10.144 -0.0066 -0.0079 -0.0342
  429loPI    C3 6851   3.022  16.452  10.336 -0.0250 -0.0471 -0.1070
  429loPI   PO4 6852   3.020  16.677   9.610  0.5689  0.1120 -0.0416
  429loPI   GL1 6853   2.867  16.572   9.210  0.2590 -0.1000 -0.4180
  429loPI   GL2 6854   2.818  16.314   9.010 -0.1455  0.1043  0.1950
  429loPI   C1A 6855   2.663  16.756   8.929 -0.3737 -0.0352 -0.0406
  429loPI   C2A 6856   2.682  16.923   8.437 -0.3791  0.2793  0.3500
  429loPI   C3A 6857   2.476  17.033   8.092  0.0637 -0.0615  0.0613
  429loPI   C4A 6858   2.250  16.929   7.718  0.2651 -0.0815 -0.1398
  429loPI   C5A 6859   2.388  16.765   7.382 -0.0672 -0.0233  0.0631
  429loPI   C6A 6860   2.595  16.623   7.035  0.0836 -0.3559 -0.1846
  429loPI   C1B 6861   3.032  16.483   8.710 -0.1799 -0.0888 -0.3253
  429loPI   C2B 6862   3.148  16.533   8.317 -0.1197 -0.1142 -0.1915
  429loPI   C3B 6863   3.206  16.526   7.839 -0.0580 -0.1062  0.5910
  429loPI   C4B 6864   3.506  16.535   7.474 -0.2768 -0.1099 -0.2259
  430loPI    C1 6865   5.669   3.086   9.750  0.1275  0.0042 -0.0876
  430loPI    C2 6866   5.745   3.340  10.050 -0.0633 -0.0572  0.0148
  430loPI    C3 6867   5.423   3.395   9.819 -0.1862 -0.2860  0.1286
  430loPI   PO4 6868   5.936   3.037   9.651  0.1376 -0.0617  0.2186
  430loPI   GL1 6869   6.174   3.231   9.331 -0.0872  0.1612 -0.1521
  430loPI   GL2 6870   6.446   3.040   9.268  0.3332 -0.4381 -0.1943
  430loPI   C1A 6871   6.095   2.937   8.945 -0.1148  0.4311  0.2082
  430loPI   C2A 6872   5.962   2.944   8.515 -0.0788  0.1471  0.1760
  430loPI   C3A 6873   6.083   2.799   8.068  0.3810 -0.0704  0.3304
  430loPI   C4A 6874   6.175   2.853   7.624 -0.2741 -0.0806  0.0345
  430loPI   C5A 6875   6.170   2.889   7.208  0.0299 -0.3039  0.3477
  430loPI   C6A 6876   5.761   2.982   6.945 -0.1543 -0.0179  0.0130
  430loPI   C1B 6877   6.612   2.983   8.694  0.2096  0.0383 -0.6481
  430loPI   C2B 6878   6.659   2.892   8.185 -0.0673  0.0085 -0.0559
  430loPI   C3B 6879   6.665   2.866   7.757  0.0899  0.3057 -0.1749
  430loPI   C4B 6880   6.646   2.954   7.290  0.0375 -0.0729 -0.1282
  431loPI    C1 6881  19.326  15.524  10.181  0.0034 -0.2871  0.2681
  431loPI    C2 6882  19.245  15.744  10.505 -0.0140  0.0404  0.0459
  431loPI    C3 6883  19.600  15.561  10.470  0.0478  0.1335  0.1778
  431loPI   PO4 6884  19.103  15.508  10.138 -0.0345  0.0163 -0.2618
  431loPI   GL1 6885  18.882  15.604   9.751  0.0172 -0.0193 -0.1981
  431loPI   GL2 6886  18.679  15.543   9.710 -0.0007  0.6703 -0.1926
  431loPI   C1A 6887  19.082  15.741   9.376 -0.1580  0.0302  0.0775
  431loPI   C2A 6888  19.013  15.836   8.966 -0.1536 -0.0338 -0.1693
  431loPI   C3A 6889  19.089  15.892   8.518 -0.1126  0.0241 -0.0253
  431loPI   C4A 6890  19.294  15.947   8.214  0.1963  0.3027 -0.0784
  431loPI   C5A 6891  19.652  15.711   7.926 -0.1510  0.0642 -0.0723
  431loPI   C6A 6892  19.882  15.652   7.628  0.3068  0.2931  0.4635
  431loPI   C1B 6893  18.573  15.764   9.305  0.1664  0.0656  0.0086
  431loPI   C2B 6894  18.536  15.995   8.996 -0.4123 -0.0261 -0.0824
  431loPI   C3B 6895  18.672  16.101   8.654 -0.5028  0.0516 -0.0069
  431loPI   C4B 6896  18.726  16.090   8.198 -0.1486 -0.0096  0.0187
  432loPI    C1 6897  14.270   0.168   9.746  0.0905 -0.1826 -0.0334
  432loPI    C2 6898  14.517   0.371   9.986 -0.0502 -0.2621  0.1823
  432loPI    C3 6899  14.173   0.537   9.867  0.0573 -0.1911 -0.0342
  432loPI   PO4 6900  14.390   0.153   9.512  0.6055  0.3319  0.0220
  432loPI   GL1 6901  14.287   0.184   9.158 -0.0335 -0.0715  0.1759
  432loPI   GL2 6902  14.273   0.525   9.211  0.2311  0.2428  0.0149
  432loPI   C1A 6903  14.155   0.328   8.659 -0.0824  0.3773  0.0393
  432loPI   C2A 6904  14.192   0.304   8.177 -0.2555 -0.1354 -0.2368
  432loPI   C3A 6905  14.159   0.131   7.819 -0.1138 -0.2897 -0.1557
  432loPI   C4A 6906  13.813  -0.027   7.554  0.0454 -0.0731  0.1175
  432loPI   C5A 6907  13.478   0.120   7.406  0.1652  0.1173  0.2751
  432loPI   C6A 6908  13.257   0.419   7.674  0.0038  0.1975 -0.1147
  432loPI   C1B 6909  14.001   0.676   8.950 -0.0403 -0.0512  0.1247
  432loPI   C2B 6910  14.018   0.827   8.516  0.1100  0.0791 -0.0411
  432loPI   C3B 6911  13.955   0.871   8.028 -0.1776  0.1222  0.1103
  432loPI   C4B 6912  13.789   0.969   7.713  0.0850  0.0153  0.0249
  433loPI    C1 6913   7.271  15.193   9.750  0.2718 -0.2325 -0.0962
  433loPI    C2 6914   7.578  15.182  10.006  0.1179 -0.3691  0.0859
  433loPI    C3 6915   7.211  15.267  10.138  0.0776 -0.1940 -0.1329
  433loPI   PO4 6916   7.331  14.972   9.618  0.1095 -0.1540  0.0370
  433loPI   GL1 6917   7.249  14.823   9.254  0.3360  0.4114  0.1728
  433loPI   GL2 6918   6.932  14.860   9.100  0.0209 -0.0718  0.0558
  433loPI   C1A 6919   7.428  14.776   8.788 -0.2330 -0.0744  0.1513
  433loPI   C2A 6920   7.489  14.791   8.431  0.1368  0.3806  0.3298
  433loPI   C3A 6921   7.628  14.764   8.132 -0.2587 -0.1486  0.1482
  433loPI   C4A 6922   7.673  14.897   7.668 -0.1334  0.1608 -0.0738
  433loPI   C5A 6923   7.513  15.105   7.354 -0.1153  0.1736  0.2708
  433loPI   C6A 6924   7.425  15.544   7.187  0.1719 -0.1000 -0.1326
  433loPI   C1B 6925   6.935  14.783   8.695  0.0792  0.2465  0.0188
  433loPI   C2B 6926   6.978  14.816   8.259 -0.3098  0.0005  0.2076
  433loPI   C3B 6927   7.212  14.791   7.854  0.2714 -0.0058 -0.4284
  433loPI   C4B 6928   7.218  14.723   7.449  0.0970  0.0854 -0.1821
  434loPI    C1 6929   6.645   3.449   9.501  0.1932 -0.0814  0.4069
  434loPI    C2 6930   6.350   3.447   9.771 -0.0582 -0.2048  0.1375
  434loPI    C3 6931   6.572   3.119   9.715 -0.0249 -0.1885  0.1741
  434loPI   PO4 6932   6.526   3.580   9.246  0.1158  0.1980  0.1932
  434loPI   GL1 6933   6.683   3.688   8.827  0.2840  0.0711 -0.2283
  434loPI   GL2 6934   6.431   3.662   8.776  0.2231  0.0307  0.2204
  434loPI   C1A 6935   6.780   3.448   8.496 -0.1364 -0.2135 -0.0439
  434loPI   C2A 6936   6.829   3.361   8.016  0.3327  0.0474 -0.0906
  434loPI   C3A 6937   6.797   3.379   7.591  0.2140 -0.0786  0.0177
  434loPI   C4A 6938   6.533   3.592   7.212  0.1774 -0.1446 -0.1367
  434loPI   C5A 6939   6.117   3.382   6.981  0.2541 -0.0646 -0.1276
  434loPI   C6A 6940   5.912   3.354   6.559  0.0338 -0.1029  0.0916
  434loPI   C1B 6941   6.290   3.388   8.591 -0.0104  0.2131 -0.0945
  434loPI   C2B 6942   6.350   3.226   8.243 -0.0814 -0.1036  0.0460
  434loPI   C3B 6943   6.381   3.236   7.867 -0.0402 -0.1095  0.2071
  434loPI   C4B 6944   6.204   3.297   7.487 -0.0291 -0.0899  0.0274
  435loPI    C1 6945   8.006  17.009   9.798 -0.0013 -0.0150 -0.1727
  435loPI    C2 6946   7.840  17.016  10.162  0.1613 -0.0645 -0.0966
  435loPI    C3 6947   7.646  16.845   9.856  0.0210 -0.0161 -0.0355
  435loPI   PO4 6948   8.320  16.959   9.787 -0.1768 -0.0340  0.3361
  435loPI   GL1 6949   8.705  16.985   9.503 -0.1006 -0.1007 -0.1245
  435loPI   GL2 6950   8.969  16.807   9.462 -0.0330 -0.0770  0.1309
  435loPI   C1A 6951   8.470  16.949   9.141 -0.1326 -0.0565  0.2479
  435loPI   C2A 6952   8.490  17.009   8.774 -0.3139 -0.1045 -0.1495
  435loPI   C3A 6953   8.559  17.243   8.379 -0.0949  0.0580 -0.1056
  435loPI   C4A 6954   8.494  17.226   7.902 -0.1391  0.2877  0.1515
  435loPI   C5A 6955   8.521  17.166   7.461 -0.0923 -0.0953 -0.1757
  435loPI   C6A 6956   8.446  16.803   7.150  0.0865 -0.2931  0.0748
  435loPI   C1B 6957   8.843  16.502   9.152  0.0320  0.1740 -0.1262
  435loPI   C2B 6958   8.642  16.513   8.780 -0.2196 -0.1217  0.3086
  435loPI   C3B 6959   8.729  16.753   8.373  0.0027  0.4016  0.0697
  435loPI   C4B 6960   8.707  16.784   7.917 -0.1083  0.0123  0.1263
  436loPI    C1 6961   9.462  13.691  10.032 -0.0887 -0.1520 -0.1184
  436loPI    C2 6962   9.496  14.012  10.269 -0.1902 -0.0745 -0.2084
  436loPI    C3 6963   9.772  13.723  10.284 -0.1189 -0.0016 -0.0993
  436loPI   PO4 6964   9.324  13.677   9.754  0.1579 -0.2118  0.0458
  436loPI   GL1 6965   9.453  13.733   9.380  0.1017  0.0954  0.1589
  436loPI   GL2 6966   9.207  14.012   9.278  0.0884  0.3205 -0.0640
  436loPI   C1A 6967   9.636  13.503   9.052 -0.0292  0.2106  0.0519
  436loPI   C2A 6968   9.734  13.692   8.638  0.3124 -0.1340 -0.2067
  436loPI   C3A 6969   9.832  13.732   8.181  0.2114 -0.1904  0.0017
  436loPI   C4A 6970   9.817  13.567   7.799 -0.1460 -0.3331  0.2150
  436loPI   C5A 6971   9.803  13.248   7.418  0.0645 -0.1318  0.3768
  436loPI   C6A 6972  10.057  12.898   7.202 -0.2325 -0.0742 -0.0498
  436loPI   C1B 6973   9.206  13.788   8.844  0.0994 -0.2428  0.1575
  436loPI   C2B 6974   9.298  13.843   8.436  0.1885 -0.1513  0.0520
  436loPI   C3B 6975   9.298  13.793   7.868 -0.1317 -0.0371 -0.3117
  436loPI   C4B 6976   9.364  13.690   7.438 -0.2993  0.0980 -0.2038
  437loPI    C1 6977   0.634  17.674  10.697 -0.2303  0.0997  0.1092
  437loPI    C2 6978   0.407  17.368  10.822 -0.0155 -0.1607 -0.1242
  437loPI    C3 6979   0.781  17.408  10.958 -0.0224 -0.0347 -0.1409
  437loPI   PO4 6980   0.575  17.656  10.389  0.2016 -0.3428  0.1965
  437loPI   GL1 6981   0.464  17.477   9.963  0.1086 -0.0278  0.1046
  437loPI   GL2 6982   0.222  17.592   9.734  0.1371  0.0112 -0.0537
  437loPI   C1A 6983   0.663  17.354   9.647  0.1187  0.3224  0.1539
  437loPI   C2A 6984   0.750  17.592   9.314  0.1853  0.0540 -0.2408
  437loPI   C3A 6985   0.913  17.620   8.950  0.0461 -0.3256 -0.1693
  437loPI   C4A 6986   1.122  17.716   8.630  0.0275  0.3227 -0.0899
  437loPI   C5A 6987   0.976  18.090   8.248  0.2882  0.6564  0.0413
  437loPI   C6A 6988   0.950  18.376   7.978  0.2703  0.0144 -0.3529
  437loPI   C1B 6989   0.366  17.827   9.490  0.2656  0.1403  0.1586
  437loPI   C2B 6990   0.600  18.058   9.278  0.2083 -0.3143 -0.2133
  437loPI   C3B 6991   0.769  18.130   8.926  0.1923 -0.0733  0.1495
  437loPI   C4B 6992   0.711  18.175   8.590  0.0330 -0.0287 -0.0585
  438loPI    C1 6993  16.724  12.920  10.414  0.1610 -0.0119 -0.3108
  438loPI    C2 6994  17.004  12.635  10.396  0.0749 -0.0937 -0.3640
  438loPI    C3 6995  16.618  12.539  10.351  0.0170 -0.0158 -0.0591
  438loPI   PO4 6996  16.753  13.140  10.132 -0.1723  0.0869 -0.1469
  438loPI   GL1 6997  17.186  13.322   9.867 -0.0960 -0.1834  0.1382
  438loPI   GL2 6998  16.890  13.540   9.851  0.1681 -0.0726  0.0169
  438loPI   C1A 6999  17.002  13.157   9.545  0.1813  0.3128  0.0382
  438loPI   C2A 7000  16.667  12.920   9.374 -0.0814 -0.1491 -0.1717
  438loPI   C3A 7001  16.281  12.958   9.140  0.0950  0.0434 -0.1966
  438loPI   C4A 7002  16.263  13.413   8.915 -0.1091 -0.2060  0.0424
  438loPI   C5A 7003  16.072  13.657   8.570  0.0711 -0.4183  0.0872
  438loPI   C6A 7004  16.172  13.660   8.010  0.0813  0.2591 -0.2778
  438loPI   C1B 7005  17.018  13.664   9.363  0.3643  0.0842 -0.3299
  438loPI   C2B 7006  17.022  13.754   8.897  0.1852 -0.0405 -0.0407
  438loPI   C3B 7007  17.037  13.857   8.471 -0.0338  0.3626  0.0626
  438loPI   C4B 7008  17.130  13.988   8.057  0.1293 -0.3581 -0.0225
  439loPI    C1 7009  12.612   3.069   9.320 -0.0485 -0.1300 -0.0437
  439loPI    C2 7010  12.740   3.433   9.425  0.0815 -0.1898  0.0084
  439loPI    C3 7011  12.363   3.323   9.502  0.0655 -0.0958  0.0662
  439loPI   PO4 7012  12.796   3.060   9.075 -0.0907  0.1176  0.0505
  439loPI   GL1 7013  12.698   3.221   8.698 -0.0427  0.0458 -0.0678
  439loPI   GL2 7014  13.000   3.329   8.538  0.2913  0.4324 -0.1150
  439loPI   C1A 7015  12.637   3.055   8.181  0.0759 -0.2156  0.1801
  439loPI   C2A 7016  12.821   2.719   7.952  0.3584  0.2199 -0.0063
  439loPI   C3A 7017  12.695   2.701   7.518 -0.2503 -0.1396  0.1802
  439loPI   C4A 7018  12.840   2.980   7.221 -0.2768  0.0098 -0.2229
  439loPI   C5A 7019  13.203   3.370   7.303  0.0191  0.0248  0.1133
  439loPI   C6A 7020  13.596   3.745   7.243 -0.2763  0.2918  0.1175
  439loPI   C1B 7021  13.174   3.056   8.205 -0.3128  0.0307 -0.0397
  439loPI   C2B 7022  13.135   2.995   7.812 -0.1183 -0.2076  0.0396
  439loPI   C3B 7023  13.325   2.920   7.446  0.1887 -0.2505 -0.2334
  439loPI   C4B 7024  13.697   3.018   7.158 -0.0309  0.0376 -0.4621
  440loPI    C1 7025  18.083  19.327   9.964 -0.1724  0.0205  0.0173
  440loPI    C2 7026  17.892  19.109  10.240 -0.0554  0.0072  0.0886
  440loPI    C3 7027  18.187  19.357  10.349  0.0470 -0.0593 -0.0338
  440loPI   PO4 7028  18.195  19.136   9.738  0.1470  0.2449  0.2735
  440loPI   GL1 7029  18.417  19.362   9.312  0.0225 -0.2577 -0.1126
  440loPI   GL2 7030  18.396  19.106   9.264  0.2799  0.2742  0.2230
  440loPI   C1A 7031  18.631  19.537   8.876 -0.1352  0.0648  0.0510
  440loPI   C2A 7032  18.746  19.486   8.543 -0.0947 -0.3829 -0.1642
  440loPI   C3A 7033  18.789  19.354   8.128 -0.1376 -0.1272 -0.2189
  440loPI   C4A 7034  18.650  19.192   7.772  0.2089 -0.0401  0.2688
  440loPI   C5A 7035  18.504  18.868   7.355 -0.0675 -0.1596 -0.0822
  440loPI   C6A 7036  18.205  18.680   7.287  0.2260  0.4454  0.2005
  440loPI   C1B 7037  18.078  18.834   8.912  0.0793 -0.2048  0.3521
  440loPI   C2B 7038  18.044  18.447   8.502  0.1993 -0.0810  0.1585
  440loPI   C3B 7039  18.015  18.222   8.127 -0.1195 -0.1770 -0.1597
  440loPI   C4B 7040  18.042  17.963   7.839 -0.1744  0.1576  0.2735
  441loPI    C1 7041  12.515  12.225   9.893 -0.2473  0.3091  0.1680
  441loPI    C2 7042  12.622  12.582   9.747  0.0147  0.1840  0.0460
  441loPI    C3 7043  12.848  12.404  10.025 -0.0030  0.0204 -0.0436
  441loPI   PO4 7044  12.540  12.078   9.678 -0.0944  0.1383  0.2919
  441loPI   GL1 7045  12.550  12.341   9.362  0.0055  0.0599 -0.0085
  441loPI   GL2 7046  12.180  12.351   9.442 -0.2148  0.1312  0.0398
  441loPI   C1A 7047  12.700  12.216   8.994  0.0562 -0.2561 -0.1030
  441loPI   C2A 7048  12.754  12.149   8.554  0.1835 -0.1998 -0.1003
  441loPI   C3A 7049  12.715  12.317   8.192  0.1164 -0.1760 -0.1268
  441loPI   C4A 7050  12.687  12.418   7.852 -0.2546 -0.0553 -0.1791
  441loPI   C5A 7051  12.840  12.607   7.602 -0.0905  0.0543  0.0283
  441loPI   C6A 7052  13.098  12.831   7.231  0.1757 -0.6736 -0.1656
  441loPI   C1B 7053  12.162  12.289   8.992  0.4283  0.1757  0.2524
  441loPI   C2B 7054  12.301  12.415   8.590  0.0656 -0.2219 -0.0708
  441loPI   C3B 7055  12.314  12.666   8.197 -0.0744 -0.2223  0.0175
  441loPI   C4B 7056  12.153  13.071   8.069  0.0724 -0.3151 -0.0423
  442loPI    C1 7057  16.681   8.935  10.117  0.0710  0.2318  0.2873
  442loPI    C2 7058  16.393   9.064   9.870  0.0629 -0.2006  0.0622
  442loPI    C3 7059  16.321   9.030  10.262 -0.1374 -0.1415  0.0313
  442loPI   PO4 7060  16.840   8.814   9.799 -0.0566  0.1310  0.2107
  442loPI   GL1 7061  16.595   8.823   9.309 -0.0291 -0.0248 -0.1686
  442loPI   GL2 7062  16.802   8.537   9.087 -0.0686 -0.1840 -0.1700
  442loPI   C1A 7063  16.626   9.086   8.976  0.0050 -0.0401 -0.1175
  442loPI   C2A 7064  16.349   9.428   8.841 -0.1797 -0.0050 -0.3594
  442loPI   C3A 7065  16.059   9.657   8.424  0.4011 -0.1469 -0.0575
  442loPI   C4A 7066  15.736   9.767   8.118 -0.0317  0.1019  0.0032
  442loPI   C5A 7067  15.676  10.036   7.811  0.2093 -0.2638 -0.1295
  442loPI   C6A 7068  15.787  10.446   7.664 -0.0847 -0.1999 -0.3235
  442loPI   C1B 7069  16.831   8.709   8.671  0.1231  0.0983 -0.1874
  442loPI   C2B 7070  16.877   8.593   8.222 -0.2449  0.2488 -0.4255
  442loPI   C3B 7071  16.894   8.630   7.764 -0.1484  0.0291  0.3942
  442loPI   C4B 7072  17.045   9.000   7.454 -0.0512 -0.3802  0.2011
  443loPI    C1 7073   3.717   3.097   9.441  0.1278  0.0318 -0.0180
  443loPI    C2 7074   3.418   2.984   9.681  0.0410  0.2116 -0.0396
  443loPI    C3 7075   3.645   3.299   9.779  0.3133 -0.0073  0.0463
  443loPI   PO4 7076   3.558   3.138   9.215  0.2140  0.0576  0.0744
  443loPI   GL1 7077   3.523   3.163   8.782 -0.3525  0.0185 -0.0106
  443loPI   GL2 7078   3.243   3.440   8.877  0.1151 -0.1449 -0.0156
  443loPI   C1A 7079   3.451   3.162   8.304  0.0809  0.1142 -0.1386
  443loPI   C2A 7080   3.395   3.130   7.808 -0.1865  0.0436 -0.1790
  443loPI   C3A 7081   3.218   3.321   7.372  0.1672 -0.1921  0.0847
  443loPI   C4A 7082   3.105   3.479   6.976  0.3323  0.2941  0.2525
  443loPI   C5A 7083   3.152   3.804   6.655 -0.0929 -0.0192  0.0535
  443loPI   C6A 7084   3.218   4.223   6.454 -0.2574  0.0872  0.0841
  443loPI   C1B 7085   3.351   3.790   8.527  0.4682  0.0626 -0.1001
  443loPI   C2B 7086   3.254   4.155   8.142 -0.0137  0.2821 -0.1267
  443loPI   C3B 7087   2.995   4.187   7.715 -0.2069 -0.1051  0.0843
  443loPI   C4B 7088   2.994   3.789   7.359 -0.0662  0.3414 -0.0058
  444loPI    C1 7089   5.905   0.585   9.860  0.0116  0.0737 -0.5599
  444loPI    C2 7090   6.226   0.689  10.075 -0.3965 -0.2976  0.2704
  444loPI    C3 7091   6.238   0.364   9.842 -0.0991 -0.1658  0.0962
  444loPI   PO4 7092   5.758   0.752   9.610  0.0671  0.1335  0.1114
  444loPI   GL1 7093   5.739   0.520   9.260  0.1253 -0.2213  0.0846
  444loPI   GL2 7094   5.866   0.817   9.133 -0.2499  0.0993  0.1469
  444loPI   C1A 7095   5.554   0.220   8.969  0.0467 -0.0395 -0.0037
  444loPI   C2A 7096   5.603   0.217   8.453 -0.1844 -0.1455 -0.4575
  444loPI   C3A 7097   5.589   0.273   8.041  0.1479 -0.0229  0.0697
  444loPI   C4A 7098   5.787   0.395   7.614  0.3120 -0.1257  0.1219
  444loPI   C5A 7099   6.057   0.343   7.159  0.0693  0.1690  0.2355
  444loPI   C6A 7100   6.453   0.293   7.151 -0.2068 -0.0624  0.0319
  444loPI   C1B 7101   5.917   0.710   8.738  0.2447 -0.0083  0.0150
  444loPI   C2B 7102   5.846   0.667   8.326  0.0202 -0.0311 -0.1188
  444loPI   C3B 7103   5.738   0.752   7.972 -0.0150 -0.1527 -0.0426
  444loPI   C4B 7104   5.905   0.989   7.614 -0.1328  0.2451 -0.2431
  445loPI    C1 7105  13.103  12.069   9.722 -0.1916 -0.0545  0.0395
  445loPI    C2 7106  13.292  12.105  10.073 -0.0713  0.1251 -0.0422
  445loPI    C3 7107  12.947  11.904  10.051  0.0062 -0.0316  0.1466
  445loPI   PO4 7108  13.093  12.266   9.618 -0.2953  0.0594 -0.1715
  445loPI   GL1 7109  13.052  12.422   9.335 -0.0367 -0.1240  0.0026
  445loPI   GL2 7110  13.405  12.406   9.173 -0.4187  0.1090  0.1499
  445loPI   C1A 7111  13.029  12.601   8.903 -0.3599  0.3410 -0.1070
  445loPI   C2A 7112  13.103  12.579   8.440  0.0159  0.2640  0.1308
  445loPI   C3A 7113  13.248  12.399   8.020  0.1317 -0.1029  0.0737
  445loPI   C4A 7114  13.403  12.466   7.604  0.2517  0.0745  0.1773
  445loPI   C5A 7115  13.509  12.850   7.439  0.2233  0.1102  0.2201
  445loPI   C6A 7116  13.468  13.161   7.065  0.2659  0.0798 -0.1002
  445loPI   C1B 7117  13.632  12.509   8.768  0.2841  0.0865  0.2623
  445loPI   C2B 7118  13.745  12.288   8.425 -0.1145  0.0494  0.2806
  445loPI   C3B 7119  14.155  12.156   8.226 -0.2100 -0.0053  0.0578
  445loPI   C4B 7120  14.252  12.337   7.792 -0.2890 -0.2508 -0.0561
  446loPI    C1 7121   4.069  11.637   9.760 -0.1361  0.1574 -0.0066
  446loPI    C2 7122   4.163  11.989   9.925  0.0108  0.1287 -0.0275
  446loPI    C3 7123   3.990  11.703  10.146  0.1353  0.1185  0.0578
  446loPI   PO4 7124   3.887  11.764   9.506 -0.2325 -0.1000 -0.2043
  446loPI   GL1 7125   3.974  11.925   9.064  0.1243 -0.2034  0.0416
  446loPI   GL2 7126   3.867  12.334   8.941  0.4459 -0.0735  0.0223
  446loPI   C1A 7127   3.879  11.904   8.638  0.2247  0.1428 -0.0041
  446loPI   C2A 7128   3.754  11.891   8.321 -0.1498  0.1919 -0.0195
  446loPI   C3A 7129   3.685  11.994   7.903 -0.3467 -0.1683  0.3393
  446loPI   C4A 7130   3.708  11.746   7.447  0.1328  0.0508  0.0744
  446loPI   C5A 7131   4.061  11.454   7.209  0.1418 -0.2770  0.0264
  446loPI   C6A 7132   4.397  11.175   7.174  0.1190 -0.0128 -0.2079
  446loPI   C1B 7133   3.491  12.211   8.743  0.0218 -0.0115  0.0758
  446loPI   C2B 7134   3.065  12.457   8.554 -0.0992 -0.0310  0.0078
  446loPI   C3B 7135   2.824  12.418   8.242  0.1045 -0.0614  0.0476
  446loPI   C4B 7136   2.807  12.429   7.832 -0.0026  0.0549  0.0464
  447loPI    C1 7137   0.673   4.069   9.938  0.0568  0.0353 -0.1987
  447loPI    C2 7138   0.314   3.987  10.094 -0.0265  0.2153 -0.2932
  447loPI    C3 7139   0.574   4.212  10.299  0.0945 -0.0448 -0.1562
  447loPI   PO4 7140   0.533   3.902   9.602  0.1124  0.2491 -0.0111
  447loPI   GL1 7141   0.567   3.590   9.245  0.1405  0.0488 -0.0582
  447loPI   GL2 7142   0.638   3.887   9.086 -0.3866  0.0166 -0.0116
  447loPI   C1A 7143   0.545   3.383   8.881 -0.0692  0.0650  0.0183
  447loPI   C2A 7144   0.801   3.335   8.558 -0.2031 -0.0980  0.0955
  447loPI   C3A 7145   0.941   3.327   8.115  0.3012  0.2915  0.1735
  447loPI   C4A 7146   0.908   3.127   7.738 -0.2375 -0.0038  0.1534
  447loPI   C5A 7147   0.946   2.733   7.470  0.2316 -0.1753 -0.0833
  447loPI   C6A 7148   1.355   2.469   7.430  0.1585 -0.0255  0.5389
  447loPI   C1B 7149   0.667   3.816   8.615 -0.1182  0.1279  0.2999
  447loPI   C2B 7150   0.529   3.686   8.204  0.2083  0.0954 -0.0347
  447loPI   C3B 7151   0.513   3.469   7.843 -0.2570  0.6242  0.3237
  447loPI   C4B 7152   0.413   3.272   7.505 -0.0799  0.1958  0.2955
  448loPI    C1 7153  16.886   0.101   9.453  0.1226  0.0694 -0.1104
  448loPI    C2 7154  16.715   0.202   9.800  0.0142 -0.0051 -0.1416
  448loPI    C3 7155  17.106   0.266   9.744  0.0540 -0.0902  0.0337
  448loPI   PO4 7156  16.755  -0.207   9.429  0.1069 -0.0901  0.0529
  448loPI   GL1 7157  16.721  -0.747   9.296  0.2413  0.2264  0.1219
  448loPI   GL2 7158  16.600  -0.447   9.017  0.0402 -0.0192 -0.4678
  448loPI   C1A 7159  16.890  -0.858   8.851 -0.1060 -0.1313 -0.1988
  448loPI   C2A 7160  17.037  -0.828   8.304 -0.0532 -0.1700 -0.2826
  448loPI   C3A 7161  17.062  -0.793   7.877 -0.2284  0.1822  0.1120
  448loPI   C4A 7162  17.363  -0.578   7.692 -0.1199  0.1713  0.1496
  448loPI   C5A 7163  17.627  -0.386   7.366  0.3459 -0.0103  0.1561
  448loPI   C6A 7164  17.587   0.041   7.260 -0.1676 -0.1386  0.1020
  448loPI   C1B 7165  16.626  -0.355   8.648  0.0367  0.1753  0.0506
  448loPI   C2B 7166  16.781  -0.412   8.263 -0.1410 -0.3427  0.1101
  448loPI   C3B 7167  16.759  -0.446   7.817  0.0860  0.0670  0.2300
  448loPI   C4B 7168  16.762  -0.556   7.440  0.0720  0.2370  0.0963
  449loPI    C1 7169  16.614  18.248   9.889 -0.1233 -0.1055 -0.0983
  449loPI    C2 7170  16.439  18.591   9.782  0.1093  0.1367  0.2738
  449loPI    C3 7171  16.557  18.536  10.160  0.1463 -0.3261  0.2007
  449loPI   PO4 7172  16.650  18.162   9.766  0.1927 -0.0695  0.1232
  449loPI   GL1 7173  16.836  18.090   9.417  0.3497  0.0025 -0.0454
  449loPI   GL2 7174  17.112  18.250   9.557  0.2481 -0.0323 -0.0320
  449loPI   C1A 7175  16.591  18.017   8.976  0.0271  0.1532 -0.1889
  449loPI   C2A 7176  16.742  18.121   8.571  0.0099  0.0825 -0.0093
  449loPI   C3A 7177  16.756  18.165   8.121 -0.0200 -0.3727  0.2581
  449loPI   C4A 7178  17.007  18.092   7.722 -0.7503  0.1907  0.1865
  449loPI   C5A 7179  17.190  18.324   7.408 -0.0497 -0.2137 -0.1705
  449loPI   C6A 7180  17.241  18.709   7.252  0.1674  0.1398 -0.1625
  449loPI   C1B 7181  17.229  18.275   9.095  0.0714  0.0002 -0.0092
  449loPI   C2B 7182  17.313  18.333   8.651  0.0839 -0.3004 -0.0817
  449loPI   C3B 7183  17.267  18.042   8.403  0.0987 -0.1078  0.0204
  449loPI   C4B 7184  17.352  18.202   8.063 -0.1680 -0.0259  0.3662
  450loPI    C1 7185   1.939  10.169   9.917  0.2341 -0.4013 -0.0984
  450loPI    C2 7186   2.272  10.153  10.138  0.0142 -0.1640  0.2620
  450loPI    C3 7187   1.915  10.173  10.316 -0.1505  0.4668 -0.1077
  450loPI   PO4 7188   1.930  10.002   9.730  0.3690 -0.1105  0.1678
  450loPI   GL1 7189   1.932   9.862   9.277 -0.0908  0.1015 -0.2469
  450loPI   GL2 7190   1.909   9.572   9.471 -0.2305  0.1791 -0.3280
  450loPI   C1A 7191   1.863   9.857   8.833 -0.0844 -0.3396  0.2634
  450loPI   C2A 7192   1.992   9.887   8.415 -0.1556 -0.1660 -0.2659
  450loPI   C3A 7193   1.884   9.837   8.028  0.3422  0.1004 -0.3983
  450loPI   C4A 7194   2.020   9.584   7.680  0.3719 -0.2851  0.1037
  450loPI   C5A 7195   2.133   9.341   7.324  0.1411 -0.0614  0.0390
  450loPI   C6A 7196   2.466   9.191   7.191 -0.0513  0.1028 -0.1782
  450loPI   C1B 7197   1.538   9.504   9.186 -0.0881 -0.0277 -0.2085
  450loPI   C2B 7198   1.515   9.504   8.771 -0.2753  0.0027  0.2946
  450loPI   C3B 7199   1.522   9.650   8.386  0.0658  0.0467  0.0522
  450loPI   C4B 7200   1.364   9.555   8.007  0.3659  0.0920  0.1209
  451loPI    C1 7201  15.619   6.626   9.477 -0.2552  0.2691  0.2988
  451loPI    C2 7202  15.576   6.584   9.872 -0.0940  0.0204  0.2920
  451loPI    C3 7203  15.900   6.436   9.689 -0.2343  0.0111  0.0473
  451loPI   PO4 7204  15.353   6.617   9.406 -0.2768  0.4478  0.2290
  451loPI   GL1 7205  15.053   6.709   9.095 -0.2610  0.0883  0.0939
  451loPI   GL2 7206  14.772   6.703   9.284  0.0629  0.3907 -0.2403
  451loPI   C1A 7207  14.947   6.818   8.664  0.0203  0.0425  0.0194
  451loPI   C2A 7208  14.999   7.086   8.373 -0.0950  0.0936 -0.0298
  451loPI   C3A 7209  14.896   7.096   7.964  0.2866  0.1781  0.1398
  451loPI   C4A 7210  14.645   7.117   7.657  0.3100 -0.2762  0.0313
  451loPI   C5A 7211  14.416   7.065   7.307 -0.0448  0.1175  0.0268
  451loPI   C6A 7212  14.468   6.789   6.923 -0.0729  0.2880 -0.0104
  451loPI   C1B 7213  14.517   6.599   8.941  0.1294  0.0735  0.0292
  451loPI   C2B 7214  14.258   6.743   8.636  0.2230  0.0703  0.2375
  451loPI   C3B 7215  14.161   6.756   8.168 -0.0818 -0.1159  0.1835
  451loPI   C4B 7216  14.178   6.903   7.770  0.1512 -0.0083  0.1287
  452loPI    C1 7217   1.234  17.901   9.792 -0.0181  0.4070  0.1583
  452loPI    C2 7218   0.854  17.844   9.678  0.0427  0.3818 -0.0354
  452loPI    C3 7219   0.960  17.786  10.060 -0.1315  0.3104  0.0028
  452loPI   PO4 7220   1.364  17.741   9.598  0.2197  0.2800  0.4089
  452loPI   GL1 7221   1.507  17.675   9.169  0.1436 -0.1449  0.1170
  452loPI   GL2 7222   1.481  17.407   8.999 -0.2609  0.2121 -0.0606
  452loPI   C1A 7223   1.708  17.841   8.899 -0.3872  0.3545 -0.3107
  452loPI   C2A 7224   2.003  17.710   8.517 -0.1441  0.0017  0.3012
  452loPI   C3A 7225   1.960  17.574   8.127  0.4122 -0.2192  0.3455
  452loPI   C4A 7226   2.031  17.569   7.662 -0.2444  0.0244  0.1665
  452loPI   C5A 7227   2.133  17.248   7.338  0.0346 -0.0787 -0.1682
  452loPI   C6A 7228   2.001  17.312   6.872 -0.1371  0.0437 -0.0043
  452loPI   C1B 7229   1.556  17.417   8.560 -0.1513 -0.1607  0.2151
  452loPI   C2B 7230   1.452  17.288   8.074 -0.0478 -0.4210  0.4343
  452loPI   C3B 7231   1.419  17.391   7.577 -0.1084  0.3945  0.1036
  452loPI   C4B 7232   1.674  17.448   7.300  0.2197  0.0632  0.2582
  453loPI    C1 7233  10.059   5.586   9.326 -0.1753  0.0007 -0.0076
  453loPI    C2 7234  10.214   5.370   9.028 -0.0886  0.1060 -0.0396
  453loPI    C3 7235   9.889   5.240   9.221  0.1009 -0.1707  0.0999
  453loPI   PO4 7236  10.205   5.845   9.178 -0.1105 -0.1869 -0.0448
  453loPI   GL1 7237  10.191   6.030   8.745 -0.0596  0.1290  0.1015
  453loPI   GL2 7238   9.938   5.766   8.753 -0.1820 -0.3906 -0.0358
  453loPI   C1A 7239  10.198   6.243   8.320  0.1348  0.0259  0.1893
  453loPI   C2A 7240  10.276   6.247   7.915  0.2059  0.1609  0.0441
  453loPI   C3A 7241  10.283   6.468   7.452 -0.1199  0.1228 -0.1316
  453loPI   C4A 7242  10.606   6.368   7.170 -0.1568  0.0894  0.0152
  453loPI   C5A 7243  10.789   6.013   6.975  0.1548 -0.0858 -0.0449
  453loPI   C6A 7244  10.825   5.547   7.113 -0.0224 -0.0698 -0.0940
  453loPI   C1B 7245   9.979   5.772   8.337 -0.0480 -0.2937  0.0415
  453loPI   C2B 7246   9.921   5.869   7.946  0.1793 -0.0175  0.0974
  453loPI   C3B 7247   9.938   6.013   7.496 -0.0497 -0.0613  0.1431
  453loPI   C4B 7248  10.098   6.303   7.024  0.0950  0.1196  0.0231
  454loPI    C1 7249   1.178  10.571  10.407 -0.2034 -0.0723  0.3457
  454loPI    C2 7250   1.504  10.755  10.547 -0.1210  0.0402  0.0158
  454loPI    C3 7251   1.495  10.356  10.520  0.0324  0.0422 -0.0763
  454loPI   PO4 7252   1.106  10.712  10.041 -0.0499  0.1440  0.1871
  454loPI   GL1 7253   1.034  10.497   9.656  0.2436  0.0824  0.1146
  454loPI   GL2 7254   0.731  10.590   9.660 -0.3166 -0.2044  0.0086
  454loPI   C1A 7255   1.184  10.543   9.217 -0.0476 -0.3324  0.0294
  454loPI   C2A 7256   1.212  10.515   8.816 -0.3918  0.0331  0.3573
  454loPI   C3A 7257   1.314  10.579   8.468 -0.3529 -0.0558  0.2563
  454loPI   C4A 7258   1.232  10.524   8.063  0.1051 -0.1331  0.0515
  454loPI   C5A 7259   1.198  10.777   7.834 -0.2379 -0.2486  0.1662
  454loPI   C6A 7260   1.080  11.212   7.636 -0.1664  0.2453 -0.2399
  454loPI   C1B 7261   0.886  10.888   9.386 -0.0578  0.1513 -0.0866
  454loPI   C2B 7262   1.040  11.001   9.067 -0.0134 -0.0770 -0.2423
  454loPI   C3B 7263   1.139  11.019   8.623 -0.3195  0.0533  0.1263
  454loPI   C4B 7264   1.052  11.158   8.138  0.0035  0.0571  0.0840
  455loPI    C1 7265   1.277  15.484   9.820  0.1919  0.1511  0.1555
  455loPI    C2 7266   1.038  15.553  10.133 -0.1518  0.1396 -0.0981
  455loPI    C3 7267   1.319  15.269  10.154 -0.2553  0.0533  0.1554
  455loPI   PO4 7268   1.123  15.614   9.672 -0.0558 -0.1300 -0.0321
  455loPI   GL1 7269   1.068  15.779   9.372 -0.1880  0.1245  0.1494
  455loPI   GL2 7270   1.308  15.482   9.243 -0.3345  0.1299 -0.2186
  455loPI   C1A 7271   1.062  15.780   8.915  0.2285  0.0866 -0.0684
  455loPI   C2A 7272   1.066  15.776   8.486  0.4094 -0.3361 -0.0289
  455loPI   C3A 7273   1.080  15.820   8.058  0.3120 -0.1179 -0.2179
  455loPI   C4A 7274   0.982  15.851   7.636 -0.0862 -0.0623 -0.1389
  455loPI   C5A 7275   1.078  16.119   7.226  0.0074  0.2467  0.1695
  455loPI   C6A 7276   1.281  16.553   7.146  0.1764  0.1878  0.0368
  455loPI   C1B 7277   1.415  15.394   8.776 -0.0149  0.4477  0.1821
  455loPI   C2B 7278   1.424  15.419   8.326  0.2326 -0.1046  0.0213
  455loPI   C3B 7279   1.385  15.454   7.884 -0.1421 -0.2184 -0.0247
  455loPI   C4B 7280   1.474  15.221   7.438 -0.2248  0.0842  0.2570
  456loPI    C1 7281  14.805  14.996  10.123  0.1677 -0.0928  0.1585
  456loPI    C2 7282  15.122  15.198  10.258  0.0171  0.1452  0.1610
  456loPI    C3 7283  14.993  14.876  10.455  0.4581 -0.1552 -0.0244
  456loPI   PO4 7284  14.828  14.986   9.852  0.0784 -0.0595  0.2045
  456loPI   GL1 7285  15.177  15.168   9.697  0.1135 -0.1720 -0.1202
  456loPI   GL2 7286  15.026  15.444   9.662 -0.1111 -0.0934  0.1636
  456loPI   C1A 7287  15.136  15.197   9.228  0.1336 -0.0162  0.4645
  456loPI   C2A 7288  15.187  15.233   8.733  0.0767 -0.0645  0.4193
  456loPI   C3A 7289  15.148  15.324   8.344  0.1746  0.1344  0.0074
  456loPI   C4A 7290  15.246  15.252   7.966 -0.0235  0.2768  0.1245
  456loPI   C5A 7291  15.535  15.331   7.595 -0.2134  0.3659 -0.0117
  456loPI   C6A 7292  15.821  15.671   7.819  0.2468  0.0627  0.3124
  456loPI   C1B 7293  14.827  15.743   9.342 -0.2636  0.0268 -0.1841
  456loPI   C2B 7294  15.007  15.955   9.068 -0.2173 -0.1213 -0.0188
  456loPI   C3B 7295  15.115  15.740   8.751  0.1840  0.1309  0.0794
  456loPI   C4B 7296  15.310  15.995   8.584  0.2732  0.0186  0.4165
  457loPI    C1 7297  14.073   3.872   9.268 -0.0396  0.1413  0.0607
  457loPI    C2 7298  14.272   4.007   8.948 -0.0066  0.1785  0.0968
  457loPI    C3 7299  14.402   4.095   9.316 -0.0971  0.2135  0.1205
  457loPI   PO4 7300  14.010   3.519   9.189 -0.0093 -0.1423  0.0223
  457loPI   GL1 7301  13.879   3.259   8.905 -0.0511  0.1985  0.4785
  457loPI   GL2 7302  13.926   2.982   8.714  0.0578 -0.1590  0.1547
  457loPI   C1A 7303  13.626   3.405   8.501  0.1080  0.1615 -0.2117
  457loPI   C2A 7304  13.288   3.507   8.161 -0.1220 -0.1352  0.0168
  457loPI   C3A 7305  12.873   3.402   7.911 -0.0743 -0.0441  0.2883
  457loPI   C4A 7306  12.728   3.474   7.509 -0.0419  0.1791 -0.2019
  457loPI   C5A 7307  12.829   3.419   7.017  0.0524  0.0337 -0.3648
  457loPI   C6A 7308  12.839   3.205   6.685  0.0471 -0.1605  0.0128
  457loPI   C1B 7309  13.959   2.812   8.289 -0.1463 -0.2436  0.1748
  457loPI   C2B 7310  13.638   3.056   8.067  0.0774 -0.1155  0.4728
  457loPI   C3B 7311  13.551   3.321   7.701 -0.0682  0.0838  0.0355
  457loPI   C4B 7312  13.215   3.726   7.683  0.2008 -0.1582 -0.0756
  458loPI    C1 7313   1.217   1.028  10.301  0.1993  0.2388  0.1379
  458loPI    C2 7314   1.447   1.080  10.624  0.1663  0.1737  0.1723
  458loPI    C3 7315   1.132   1.319  10.562  0.0792  0.0856  0.2719
  458loPI   PO4 7316   1.426   1.067  10.074 -0.1168 -0.1575  0.0531
  458loPI   GL1 7317   1.572   1.081   9.636  0.0374 -0.2034  0.2880
  458loPI   GL2 7318   1.232   0.894   9.607  0.0671 -0.1309  0.1355
  458loPI   C1A 7319   1.453   1.282   9.239  0.5510  0.0247  0.0695
  458loPI   C2A 7320   1.151   1.308   8.956 -0.1252  0.0864  0.3626
  458loPI   C3A 7321   1.390   1.221   8.504  0.1093  0.2026 -0.2706
  458loPI   C4A 7322   1.519   1.089   8.043 -0.1713  0.0983  0.0777
  458loPI   C5A 7323   1.358   0.876   7.586 -0.0230  0.0084 -0.0785
  458loPI   C6A 7324   0.933   0.960   7.511 -0.1139  0.0235 -0.0322
  458loPI   C1B 7325   1.185   0.864   9.187  0.4000  0.0995  0.2106
  458loPI   C2B 7326   1.164   0.798   8.795 -0.0011 -0.0988 -0.0044
  458loPI   C3B 7327   1.077   0.691   8.357  0.0777  0.1715  0.2714
  458loPI   C4B 7328   1.143   0.519   7.951  0.2018 -0.4141  0.1318
  459loPI    C1 7329  10.445   5.959   9.830  0.1696 -0.1670 -0.0254
  459loPI    C2 7330  10.691   6.211  10.019 -0.1270  0.1528 -0.0565
  459loPI    C3 7331  10.347   6.100  10.191 -0.0796 -0.0969 -0.1184
  459loPI   PO4 7332  10.424   6.137   9.537  0.1799 -0.0182 -0.0576
  459loPI   GL1 7333  10.180   6.375   9.174 -0.1014  0.2468 -0.2608
  459loPI   GL2 7334   9.935   6.370   9.074 -0.0376  0.0915 -0.2995
  459loPI   C1A 7335  10.284   6.573   8.734  0.0815 -0.2519 -0.0801
  459loPI   C2A 7336  10.619   6.590   8.601 -0.1373 -0.0624 -0.2606
  459loPI   C3A 7337  10.799   6.767   8.260 -0.1882  0.2336 -0.1665
  459loPI   C4A 7338  10.900   7.023   7.855 -0.0250 -0.0448  0.2304
  459loPI   C5A 7339  11.086   7.051   7.463 -0.0786  0.2252  0.0611
  459loPI   C6A 7340  11.310   6.885   7.218  0.0970  0.0740  0.1108
  459loPI   C1B 7341   9.849   6.399   8.644  0.1612  0.0250 -0.0757
  459loPI   C2B 7342   9.834   6.593   8.203  0.1705  0.2767  0.0903
  459loPI   C3B 7343   9.941   6.740   7.779 -0.1077 -0.0595  0.0249
  459loPI   C4B 7344   9.738   6.503   7.363 -0.1652 -0.2218 -0.2261
  460loPI    C1 7345   2.771   5.386   9.618 -0.3194  0.2952 -0.0675
  460loPI    C2 7346   2.793   5.088   9.352  0.2974  0.0309  0.2597
  460loPI    C3 7347   2.510   5.083   9.634 -0.0569  0.0635 -0.0872
  460loPI   PO4 7348   2.728   5.579   9.497  0.1199 -0.2742  0.1596
  460loPI   GL1 7349   2.787   5.903   9.247 -0.2004 -0.4134 -0.3425
  460loPI   GL2 7350   2.529   5.735   9.079 -0.1148  0.0089  0.0564
  460loPI   C1A 7351   2.835   6.007   8.750 -0.2051  0.0699  0.2545
  460loPI   C2A 7352   2.913   6.179   8.400 -0.2849 -0.1174 -0.1778
  460loPI   C3A 7353   2.962   6.093   7.968  0.3056 -0.2979 -0.2101
  460loPI   C4A 7354   3.112   6.228   7.591  0.0818 -0.0939 -0.2039
  460loPI   C5A 7355   3.151   6.313   7.251  0.3091  0.0741  0.1866
  460loPI   C6A 7356   3.168   6.427   6.817 -0.4945  0.3463  0.1819
  460loPI   C1B 7357   2.463   5.725   8.655 -0.0441 -0.1341 -0.0665
  460loPI   C2B 7358   2.579   5.870   8.327 -0.3053 -0.0922  0.2012
  460loPI   C3B 7359   2.543   5.836   7.813 -0.1036  0.1037  0.3195
  460loPI   C4B 7360   2.441   5.655   7.325  0.0588 -0.2412 -0.1885
  461loPI    C1 7361   4.517  11.373   9.672  0.1595 -0.1238 -0.1143
  461loPI    C2 7362   4.475  11.574  10.015  0.0992 -0.0477 -0.1660
  461loPI    C3 7363   4.457  11.175  10.014  0.1599 -0.0508 -0.0718
  461loPI   PO4 7364   4.377  11.404   9.499  0.0878  0.0588  0.1256
  461loPI   GL1 7365   4.334  11.579   9.175  0.2584 -0.3707 -0.3481
  461loPI   GL2 7366   4.075  11.309   9.117 -0.1753 -0.1618  0.3062
  461loPI   C1A 7367   4.377  11.759   8.806  0.3713  0.1159 -0.0117
  461loPI   C2A 7368   4.296  11.844   8.334  0.0763 -0.2927  0.1298
  461loPI   C3A 7369   4.195  11.786   7.875  0.1519 -0.1599 -0.0174
  461loPI   C4A 7370   4.314  11.867   7.394 -0.0770  0.1135  0.0703
  461loPI   C5A 7371   4.385  11.811   7.115 -0.0198 -0.0981  0.2570
  461loPI   C6A 7372   4.351  12.241   6.740  0.2139  0.0340  0.1729
  461loPI   C1B 7373   3.952  11.382   8.588  0.1785 -0.2299  0.2156
  461loPI   C2B 7374   3.913  11.466   8.189  0.5260  0.4220  0.3371
  461loPI   C3B 7375   3.902  11.370   7.774 -0.0242 -0.1043  0.1031
  461loPI   C4B 7376   3.997  11.029   7.423  0.0783 -0.2270 -0.1619
  462loPI    C1 7377  18.669  15.874  10.179  0.1370 -0.0972  0.1793
  462loPI    C2 7378  18.494  15.958  10.529  0.0267  0.0690  0.0856
  462loPI    C3 7379  18.837  16.137  10.429 -0.0592  0.1939  0.0110
  462loPI   PO4 7380  18.478  15.942   9.968 -0.0727 -0.1562  0.1123
  462loPI   GL1 7381  18.370  16.143   9.594 -0.1972  0.0657 -0.0300
  462loPI   GL2 7382  18.531  16.357   9.471  0.0095  0.1645 -0.2174
  462loPI   C1A 7383  18.106  15.914   9.338 -0.0892  0.3152 -0.1609
  462loPI   C2A 7384  18.216  15.565   9.099 -0.1072  0.1131 -0.0219
  462loPI   C3A 7385  18.151  15.768   8.600 -0.0197 -0.0199  0.0322
  462loPI   C4A 7386  17.906  15.799   8.248 -0.1005  0.2962  0.1576
  462loPI   C5A 7387  17.739  15.976   7.767 -0.0774 -0.1049  0.0697
  462loPI   C6A 7388  17.458  16.037   7.408 -0.0957  0.0356 -0.2333
  462loPI   C1B 7389  18.222  16.328   9.163  0.1600  0.0126 -0.1650
  462loPI   C2B 7390  18.120  16.243   8.729  0.3396  0.1139  0.1139
  462loPI   C3B 7391  18.314  16.210   8.373  0.0132 -0.0224 -0.1397
  462loPI   C4B 7392  18.297  16.065   7.929  0.0068 -0.1355 -0.2113
  463loPI    C1 7393   9.179  15.535   9.764  0.1089 -0.2930  0.1008
  463loPI    C2 7394   9.541  15.640   9.898 -0.0863  0.3105  0.1846
  463loPI    C3 7395   9.308  15.400  10.118  0.2826 -0.1416  0.0963
  463loPI   PO4 7396   9.207  15.436   9.457  0.0951  0.2618  0.2039
  463loPI   GL1 7397   8.975  15.646   9.124 -0.5097  0.0633  0.2620
  463loPI   GL2 7398   8.975  15.286   9.062  0.6756 -0.2626 -0.0552
  463loPI   C1A 7399   9.191  15.724   8.730 -0.1493  0.0843  0.2756
  463loPI   C2A 7400   9.333  15.747   8.275  0.0091  0.0659 -0.0799
  463loPI   C3A 7401   9.327  15.696   7.796 -0.2078 -0.0305 -0.1505
  463loPI   C4A 7402   9.541  15.822   7.418  0.2655  0.1001 -0.1013
  463loPI   C5A 7403   9.909  15.855   7.169 -0.0181 -0.3404  0.0643
  463loPI   C6A 7404  10.105  16.294   7.062 -0.1153  0.2997  0.1545
  463loPI   C1B 7405   8.933  15.255   8.565  0.1289  0.1525  0.0762
  463loPI   C2B 7406   8.956  15.237   8.179 -0.3184 -0.2699  0.0410
  463loPI   C3B 7407   9.178  15.145   7.853  0.2753  0.4180  0.2375
  463loPI   C4B 7408   9.412  15.047   7.502 -0.0528 -0.2250 -0.1093
  464loPI    C1 7409   4.496   4.739   9.376 -0.0044  0.1098 -0.0024
  464loPI    C2 7410   4.829   4.888   9.211 -0.0101 -0.1303 -0.2369
  464loPI    C3 7411   4.818   4.808   9.603  0.0732  0.2502 -0.1532
  464loPI   PO4 7412   4.359   4.761   9.157 -0.0034 -0.1593  0.4627
  464loPI   GL1 7413   4.320   4.702   8.741 -0.2271 -0.1311  0.1599
  464loPI   GL2 7414   4.319   4.452   8.665  0.1005  0.2156  0.0028
  464loPI   C1A 7415   4.211   4.917   8.378  0.4145  0.1078  0.2535
  464loPI   C2A 7416   4.179   4.812   7.914  0.0046  0.2145  0.1830
  464loPI   C3A 7417   4.044   4.459   7.753  0.2975 -0.2475  0.1093
  464loPI   C4A 7418   3.779   4.477   7.405 -0.2427 -0.1055  0.2807
  464loPI   C5A 7419   3.530   4.570   7.109  0.0860  0.0615 -0.0069
  464loPI   C6A 7420   3.313   4.668   6.621 -0.0984  0.0708 -0.3305
  464loPI   C1B 7421   4.357   4.358   8.285 -0.0164  0.0819 -0.0755
  464loPI   C2B 7422   4.542   4.366   7.928 -0.0683  0.2988  0.0227
  464loPI   C3B 7423   4.541   4.315   7.489 -0.0229  0.0461  0.2141
  464loPI   C4B 7424   4.444   4.023   7.222 -0.1076 -0.3613  0.1611
  465loPI    C1 7425   7.398   4.360   9.164  0.2635 -0.2389  0.0743
  465loPI    C2 7426   7.596   4.574   9.439  0.0516 -0.0111  0.0530
  465loPI    C3 7427   7.738   4.219   9.321  0.3858  0.0972  0.1201
  465loPI   PO4 7428   7.202   4.556   9.022 -0.0952  0.2873 -0.0640
  465loPI   GL1 7429   7.177   4.685   8.670  0.4975  0.1885  0.1838
  465loPI   GL2 7430   7.438   4.463   8.586 -0.1329  0.1209 -0.1850
  465loPI   C1A 7431   7.104   4.851   8.351  0.0592 -0.0673  0.0144
  465loPI   C2A 7432   7.242   4.665   8.030 -0.0316  0.1449 -0.1661
  465loPI   C3A 7433   7.290   4.813   7.725  0.1389 -0.4509  0.0672
  465loPI   C4A 7434   7.202   4.721   7.344 -0.4856 -0.2380 -0.3339
  465loPI   C5A 7435   7.471   4.843   7.040 -0.1293 -0.0034  0.1752
  465loPI   C6A 7436   7.739   4.494   6.891 -0.0083  0.2620 -0.0608
  465loPI   C1B 7437   7.233   4.283   8.346  0.0575 -0.0172 -0.1848
  465loPI   C2B 7438   7.100   4.200   8.029 -0.0082  0.3086 -0.0646
  465loPI   C3B 7439   6.993   4.386   7.674  0.1870  0.3011 -0.0593
  465loPI   C4B 7440   7.199   4.084   7.311 -0.1720  0.0682 -0.1835
  466loPI    C1 7441  11.530  16.387  10.025  0.0966 -0.3780 -0.2966
  466loPI    C2 7442  11.164  16.293   9.893  0.0094  0.0765 -0.3953
  466loPI    C3 7443  11.227  16.352  10.284 -0.0572  0.1381 -0.3936
  466loPI   PO4 7444  11.677  16.324   9.755  0.1674  0.1693  0.0623
  466loPI   GL1 7445  11.449  16.488   9.444 -0.0862 -0.0119  0.3074
  466loPI   GL2 7446  11.591  16.731   9.226  0.4236  0.2199 -0.1873
  466loPI   C1A 7447  11.408  16.202   9.072 -0.1252 -0.2078 -0.1948
  466loPI   C2A 7448  11.233  16.282   8.679 -0.2451 -0.2765  0.1370
  466loPI   C3A 7449  11.157  16.112   8.375 -0.0129  0.2518  0.0776
  466loPI   C4A 7450  11.360  15.936   8.033 -0.0461  0.6026  0.0569
  466loPI   C5A 7451  11.327  15.487   7.984 -0.1246 -0.0720 -0.0552
  466loPI   C6A 7452  11.479  15.186   7.625 -0.1818  0.0317 -0.2009
  466loPI   C1B 7453  11.798  16.475   8.842  0.2694  0.0495  0.0327
  466loPI   C2B 7454  11.932  16.672   8.460 -0.1605  0.2529 -0.0266
  466loPI   C3B 7455  12.187  16.778   8.172  0.2372 -0.1706  0.2426
  466loPI   C4B 7456  12.620  16.916   8.419  0.1130 -0.0794 -0.2729
  467loPI    C1 7457  16.138   2.425   9.553 -0.1587  0.0222 -0.1272
  467loPI    C2 7458  15.951   2.432   9.907 -0.1165  0.0782 -0.1059
  467loPI    C3 7459  16.107   2.090   9.769 -0.0511  0.0759 -0.0273
  467loPI   PO4 7460  16.026   2.604   9.385 -0.1991  0.1114 -0.0687
  467loPI   GL1 7461  15.962   2.828   8.935  0.2874  0.0044 -0.1363
  467loPI   GL2 7462  15.827   2.434   8.927  0.1184  0.0273  0.0769
  467loPI   C1A 7463  15.996   2.815   8.548  0.2386 -0.0284  0.0836
  467loPI   C2A 7464  16.000   2.909   8.089  0.0193 -0.2284  0.2226
  467loPI   C3A 7465  16.123   3.137   7.642 -0.1892 -0.3888 -0.1894
  467loPI   C4A 7466  16.224   3.146   7.218 -0.0863 -0.1256  0.0036
  467loPI   C5A 7467  16.171   3.178   6.798  0.0038  0.2805  0.0897
  467loPI   C6A 7468  16.225   2.966   6.443  0.1284 -0.0580  0.0443
  467loPI   C1B 7469  16.020   2.132   8.626 -0.1497 -0.1811 -0.3108
  467loPI   C2B 7470  16.118   1.921   8.207 -0.1267 -0.0805 -0.1861
  467loPI   C3B 7471  16.359   1.970   7.942 -0.0503 -0.1089  0.3609
  467loPI   C4B 7472  16.783   1.968   7.865 -0.1928  0.0911  0.4049
  468loPI    C1 7473  19.372   7.570   9.952 -0.0158 -0.1217  0.2039
  468loPI    C2 7474  19.559   7.377  10.248  0.1720 -0.1280  0.0827
  468loPI    C3 7475  19.455   7.760  10.294  0.1826 -0.1346  0.1638
  468loPI   PO4 7476  19.548   7.500   9.668 -0.3293  0.0110 -0.0202
  468loPI   GL1 7477  19.402   7.615   9.216 -0.1262 -0.0448  0.2436
  468loPI   GL2 7478  19.754   7.767   9.242 -0.2013 -0.0140  0.3942
  468loPI   C1A 7479  19.497   7.208   8.953  0.3369  0.1101 -0.2779
  468loPI   C2A 7480  19.678   7.156   8.558 -0.0948  0.0037  0.1172
  468loPI   C3A 7481  19.628   7.189   8.142  0.0242  0.0981 -0.1084
  468loPI   C4A 7482  19.539   7.267   7.758  0.1171 -0.2683  0.1638
  468loPI   C5A 7483  19.485   7.142   7.358 -0.0562 -0.1184 -0.3448
  468loPI   C6A 7484  19.474   7.209   7.016  0.0489  0.0783  0.2719
  468loPI   C1B 7485  19.860   7.545   8.828 -0.0266 -0.1237 -0.2430
  468loPI   C2B 7486  19.858   7.568   8.330 -0.3079 -0.1375  0.2788
  468loPI   C3B 7487  19.892   7.585   7.871 -0.1148 -0.2790  0.1706
  468loPI   C4B 7488  19.884   7.459   7.472 -0.0250  0.1023 -0.3396
  469loPI    C1 7489   8.868   1.207   9.665 -0.1229 -0.0495  0.1008
  469loPI    C2 7490   9.021   1.100  10.018 -0.0369 -0.1524  0.0330
  469loPI    C3 7491   8.894   1.475   9.961 -0.0098 -0.1234  0.1585
  469loPI   PO4 7492   9.059   0.936   9.526  0.0369 -0.1751  0.0372
  469loPI   GL1 7493   8.994   0.869   9.121  0.1763  0.0995  0.3098
  469loPI   GL2 7494   8.737   1.137   9.180  0.0776 -0.2908  0.0792
  469loPI   C1A 7495   8.982   0.919   8.693 -0.0827 -0.0905  0.3315
  469loPI   C2A 7496   8.990   0.979   8.291 -0.1767  0.1492  0.0714
  469loPI   C3A 7497   8.702   1.155   7.981 -0.1861 -0.0403  0.3548
  469loPI   C4A 7498   8.581   1.009   7.616  0.0462  0.0754  0.2965
  469loPI   C5A 7499   8.787   0.863   7.280 -0.0725 -0.1283  0.2864
  469loPI   C6A 7500   8.856   0.869   6.854  0.2417  0.1856  0.3384
  469loPI   C1B 7501   8.623   1.227   8.798  0.0395 -0.0274  0.2870
  469loPI   C2B 7502   8.483   1.013   8.403 -0.1129 -0.1001 -0.5629
  469loPI   C3B 7503   8.183   1.005   8.023  0.2055  0.0201  0.1252
  469loPI   C4B 7504   7.783   0.848   7.905  0.0724  0.0245 -0.0785
  470loPI    C1 7505  16.018   0.879   9.462  0.2191  0.3308  0.0146
  470loPI    C2 7506  16.047   0.909   9.860 -0.1555  0.0519  0.0686
  470loPI    C3 7507  15.745   0.704   9.696  0.0829  0.0302 -0.3588
  470loPI   PO4 7508  16.289   0.699   9.361  0.2174 -0.1772 -0.1062
  470loPI   GL1 7509  16.289   0.577   8.959  0.3261 -0.0318  0.2167
  470loPI   GL2 7510  16.032   0.441   9.024  0.0714  0.0723 -0.0550
  470loPI   C1A 7511  16.330   0.872   8.625  0.0439  0.2638  0.0189
  470loPI   C2A 7512  16.303   1.104   8.282  0.1283  0.1661 -0.1738
  470loPI   C3A 7513  16.324   1.005   7.846  0.1217 -0.0741  0.0391
  470loPI   C4A 7514  16.392   1.041   7.436  0.2427 -0.2289  0.0351
  470loPI   C5A 7515  16.666   1.076   7.113  0.0859 -0.2089  0.1547
  470loPI   C6A 7516  16.946   1.085   6.786 -0.1920  0.2493  0.2368
  470loPI   C1B 7517  15.900   0.595   8.590  0.0133  0.0876  0.0761
  470loPI   C2B 7518  16.087   0.599   8.265 -0.3628  0.2297  0.3716
  470loPI   C3B 7519  15.998   0.634   7.880  0.3884  0.4292 -0.4124
  470loPI   C4B 7520  16.042   0.708   7.475  0.0837  0.4255  0.0860
  471loPI    C1 7521   8.663  13.403  10.038 -0.1353  0.0345 -0.0283
  471loPI    C2 7522   8.865  13.499  10.370 -0.3056  0.1436  0.0449
  471loPI    C3 7523   8.770  13.117  10.297 -0.2556  0.1176  0.1148
  471loPI   PO4 7524   8.804  13.515   9.850 -0.1302  0.0465  0.0340
  471loPI   GL1 7525   8.889  13.640   9.421 -0.1325  0.0592  0.4715
  471loPI   GL2 7526   8.715  13.859   9.244 -0.4209  0.0686 -0.1119
  471loPI   C1A 7527   8.886  13.445   9.015  0.0657  0.1599  0.0093
  471loPI   C2A 7528   8.975  13.333   8.552 -0.1592 -0.1753 -0.0436
  471loPI   C3A 7529   8.711  13.226   8.266 -0.0393  0.1163 -0.0089
  471loPI   C4A 7530   8.527  13.078   7.920  0.2304 -0.0249  0.1583
  471loPI   C5A 7531   8.329  12.808   7.671 -0.3646  0.4157 -0.1680
  471loPI   C6A 7532   8.060  12.512   7.520 -0.0894  0.0538 -0.2720
  471loPI   C1B 7533   8.727  13.981   8.727 -0.3808 -0.1629  0.1016
  471loPI   C2B 7534   8.821  13.892   8.381  0.4549 -0.0471 -0.0944
  471loPI   C3B 7535   8.837  13.662   7.967 -0.6052  0.0769  0.1299
  471loPI   C4B 7536   8.905  13.372   7.760 -0.0356 -0.1105  0.1627
  472loPI    C1 7537  18.108   2.013   9.649 -0.1468 -0.0029 -0.3439
  472loPI    C2 7538  18.109   1.702   9.397  0.0855 -0.2149 -0.0870
  472loPI    C3 7539  18.165   1.643   9.789 -0.4040  0.0963  0.0394
  472loPI   PO4 7540  17.891   2.210   9.624  0.0167  0.2706  0.2740
  472loPI   GL1 7541  17.696   2.350   9.259 -0.1405 -0.2577 -0.0391
  472loPI   GL2 7542  17.459   2.572   9.174  0.1919 -0.1228 -0.1950
  472loPI   C1A 7543  17.727   2.335   8.836  0.3934 -0.4068 -0.1269
  472loPI   C2A 7544  17.776   2.692   8.523  0.1789  0.2735 -0.1950
  472loPI   C3A 7545  17.886   2.940   8.187 -0.1761  0.1296 -0.1595
  472loPI   C4A 7546  17.987   2.843   7.759 -0.1953  0.0866 -0.0848
  472loPI   C5A 7547  17.949   2.955   7.247  0.0402  0.1810 -0.1662
  472loPI   C6A 7548  18.234   2.963   6.935  0.0236  0.2997 -0.2799
  472loPI   C1B 7549  17.298   2.591   8.803  0.2388  0.3872 -0.0461
  472loPI   C2B 7550  17.339   2.837   8.397  0.0423  0.1577 -0.0809
  472loPI   C3B 7551  17.490   2.810   7.994 -0.0698 -0.0361 -0.0668
  472loPI   C4B 7552  17.266   2.811   7.577  0.0344 -0.0453 -0.1044
  473loPI    C1 7553  16.491   1.150   9.855 -0.0058  0.0272 -0.0161
  473loPI    C2 7554  16.606   0.980  10.199  0.1007 -0.1072 -0.1170
  473loPI    C3 7555  16.515   1.369  10.189  0.1813 -0.0835  0.0451
  473loPI   PO4 7556  16.618   1.077   9.708  0.1430 -0.3069 -0.1115
  473loPI   GL1 7557  16.542   1.119   9.236  0.0748 -0.3871 -0.2355
  473loPI   GL2 7558  16.299   1.171   9.177 -0.0020 -0.1004 -0.2332
  473loPI   C1A 7559  16.544   1.551   9.060  0.1366  0.1393  0.1977
  473loPI   C2A 7560  16.448   1.504   8.535  0.0736 -0.3878 -0.2927
  473loPI   C3A 7561  16.565   1.494   8.069  0.3026  0.0323  0.0821
  473loPI   C4A 7562  16.634   1.469   7.693  0.1173 -0.3652  0.2825
  473loPI   C5A 7563  16.379   1.619   7.351 -0.0419 -0.0389 -0.3262
  473loPI   C6A 7564  16.184   1.436   7.045  0.1348  0.2873 -0.1371
  473loPI   C1B 7565  16.166   1.261   8.841  0.2933  0.2560  0.0273
  473loPI   C2B 7566  15.822   1.064   8.573  0.0840 -0.0803  0.3788
  473loPI   C3B 7567  15.805   1.037   8.120 -0.0498 -0.0728  0.2254
  473loPI   C4B 7568  15.685   0.980   7.704 -0.0495  0.0590 -0.1463
  474loPI    C1 7569  14.635  11.211   9.861 -0.3716  0.0425  0.0879
  474loPI    C2 7570  14.389  10.961  10.052 -0.0590 -0.0816  0.3369
  474loPI    C3 7571  14.764  10.849   9.971 -0.1713 -0.0184 -0.3279
  474loPI   PO4 7572  14.413  11.329   9.679  0.2574 -0.1485  0.1047
  474loPI   GL1 7573  14.358  11.753   9.440  0.0455  0.1285 -0.0756
  474loPI   GL2 7574  14.626  11.792   9.329  0.0464 -0.1617 -0.2360
  474loPI   C1A 7575  14.265  11.881   8.969 -0.0834  0.0186  0.0067
  474loPI   C2A 7576  14.307  11.771   8.568  0.0041  0.0765 -0.0359
  474loPI   C3A 7577  14.388  11.726   8.084  0.0244  0.0301  0.0430
  474loPI   C4A 7578  14.357  11.845   7.696 -0.3914 -0.3534  0.1197
  474loPI   C5A 7579  14.638  11.863   7.363 -0.1101 -0.4103 -0.0446
  474loPI   C6A 7580  14.882  12.078   7.016  0.2161 -0.1322  0.0598
  474loPI   C1B 7581  14.634  11.479   9.037 -0.0600 -0.2121 -0.0790
  474loPI   C2B 7582  14.807  11.084   8.734  0.0832  0.0070 -0.0659
  474loPI   C3B 7583  14.572  10.783   8.336  0.0582 -0.4557 -0.3547
  474loPI   C4B 7584  14.559  10.933   7.869  0.0893  0.0517  0.0662
  475loPI    C1 7585   0.143   3.071  10.173  0.1104  0.0563 -0.2970
  475loPI    C2 7586  -0.237   3.070  10.049  0.0060  0.1120  0.0125
  475loPI    C3 7587  -0.040   3.416  10.085 -0.0257  0.1136  0.1793
  475loPI   PO4 7588   0.239   2.783  10.122 -0.0386  0.5618  0.1396
  475loPI   GL1 7589   0.451   2.443   9.716 -0.2674 -0.0987  0.2283
  475loPI   GL2 7590   0.571   2.624   9.549  0.1551  0.0033  0.1913
  475loPI   C1A 7591   0.472   2.193   9.314  0.0482 -0.0418 -0.0631
  475loPI   C2A 7592   0.596   1.994   8.893  0.1062 -0.1066  0.0378
  475loPI   C3A 7593   0.317   1.829   8.576  0.0181 -0.2441  0.0494
  475loPI   C4A 7594   0.313   1.808   8.121 -0.2523 -0.1473 -0.1355
  475loPI   C5A 7595   0.280   1.847   7.671 -0.0792 -0.2546 -0.1879
  475loPI   C6A 7596   0.518   1.785   7.182 -0.1543  0.0588 -0.0641
  475loPI   C1B 7597   0.447   2.899   9.252 -0.0235  0.0471 -0.1263
  475loPI   C2B 7598   0.270   2.945   8.866 -0.3842  0.4565 -0.0835
  475loPI   C3B 7599   0.227   2.820   8.517  0.0346 -0.2587 -0.1222
  475loPI   C4B 7600   0.596   2.957   8.223  0.1312 -0.3760 -0.0777
  476loPI    C1 7601   8.245  11.580  10.047  0.2288 -0.0331  0.0575
  476loPI    C2 7602   8.263  11.714  10.423 -0.1741 -0.0825  0.0996
  476loPI    C3 7603   8.289  11.322  10.348  0.1847 -0.0524  0.0477
  476loPI   PO4 7604   7.990  11.797   9.887 -0.0624  0.0002 -0.0198
  476loPI   GL1 7605   7.839  11.982   9.518  0.0250  0.2908 -0.3031
  476loPI   GL2 7606   8.144  11.946   9.252  0.0183  0.2071 -0.1896
  476loPI   C1A 7607   7.658  11.991   9.108  0.0789  0.2274 -0.1611
  476loPI   C2A 7608   7.653  11.808   8.705 -0.0819 -0.0545 -0.2896
  476loPI   C3A 7609   7.512  11.591   8.438  0.2806  0.3147  0.0111
  476loPI   C4A 7610   7.704  11.634   8.018 -0.2582 -0.1000 -0.3713
  476loPI   C5A 7611   8.054  11.598   7.773 -0.1908  0.0213  0.5793
  476loPI   C6A 7612   8.374  11.638   7.531  0.0563  0.3373 -0.2453
  476loPI   C1B 7613   8.397  11.558   9.131 -0.4154 -0.1525 -0.1639
  476loPI   C2B 7614   8.682  11.476   8.779 -0.1440  0.1479  0.2751
  476loPI   C3B 7615   8.670  11.654   8.444  0.2481 -0.1506 -0.0043
  476loPI   C4B 7616   8.488  11.577   8.091  0.2264 -0.2536 -0.2633
  477loPI    C1 7617  17.847  10.792   9.982  0.1725 -0.1420  0.0756
  477loPI    C2 7618  17.889  11.187  10.026  0.0392 -0.0916 -0.2282
  477loPI    C3 7619  17.525  11.022  10.041  0.0737 -0.1756 -0.3077
  477loPI   PO4 7620  18.041  10.736   9.744  0.2140  0.0091 -0.0812
  477loPI   GL1 7621  18.006  10.728   9.392 -0.3081  0.3577 -0.1249
  477loPI   GL2 7622  17.857  10.522   9.301 -0.1357  0.2914  0.0625
  477loPI   C1A 7623  18.402  11.030   9.162 -0.0936 -0.1337 -0.4202
  477loPI   C2A 7624  18.624  11.165   8.761 -0.3087  0.0003  0.3615
  477loPI   C3A 7625  18.546  11.121   8.312 -0.0552 -0.0452  0.4149
  477loPI   C4A 7626  18.291  11.257   7.888 -0.3643  0.2598 -0.1229
  477loPI   C5A 7627  18.140  11.462   7.572 -0.3925  0.1529 -0.0515
  477loPI   C6A 7628  17.771  11.353   7.333 -0.0734  0.1432 -0.1005
  477loPI   C1B 7629  17.719  10.686   8.910  0.3023 -0.3819 -0.0557
  477loPI   C2B 7630  17.624  10.663   8.508  0.0877 -0.2821 -0.1270
  477loPI   C3B 7631  17.546  10.727   8.126 -0.0192 -0.0179 -0.2310
  477loPI   C4B 7632  17.590  10.805   7.718 -0.1511 -0.0615  0.0446
  478loPI    C1 7633  10.787  15.943   9.845 -0.0702  0.0993  0.0253
  478loPI    C2 7634  10.815  15.998   9.450 -0.0050 -0.3208 -0.0337
  478loPI    C3 7635  10.458  16.015   9.629  0.0337  0.5350  0.0036
  478loPI   PO4 7636  11.040  15.729   9.818  0.0406  0.5068 -0.0226
  478loPI   GL1 7637  11.248  15.483   9.491  0.2117  0.0308  0.0850
  478loPI   GL2 7638  10.919  15.552   9.349  0.0610 -0.0690  0.0557
  478loPI   C1A 7639  11.303  15.514   9.045  0.1979 -0.0792  0.2001
  478loPI   C2A 7640  11.133  15.669   8.746 -0.0978 -0.0037  0.1090
  478loPI   C3A 7641  10.914  15.585   8.410 -0.5783  0.1891 -0.0529
  478loPI   C4A 7642  10.839  15.571   7.955 -0.0618  0.0630  0.2447
  478loPI   C5A 7643  10.551  15.313   7.789 -0.1082 -0.0178 -0.1339
  478loPI   C6A 7644  10.240  15.180   7.428 -0.1591  0.2420  0.1531
  478loPI   C1B 7645  10.585  15.351   9.026  0.2151  0.0783 -0.2095
  478loPI   C2B 7646  10.430  15.565   8.665  0.0119 -0.2647  0.4359
  478loPI   C3B 7647  10.074  15.531   8.615 -0.0172 -0.0426 -0.1984
  478loPI   C4B 7648   9.733  15.783   8.569 -0.3110 -0.0663  0.1496
  479loPI    C1 7649  15.069   5.022   9.115 -0.0923 -0.1101 -0.0587
  479loPI    C2 7650  15.354   5.186   9.343 -0.0641 -0.2384 -0.0005
  479loPI    C3 7651  14.997   5.364   9.309 -0.0247 -0.1511  0.0396
  479loPI   PO4 7652  14.964   4.793   9.185  0.1786 -0.0081  0.0139
  479loPI   GL1 7653  15.094   4.435   8.903 -0.0981  0.0502 -0.0908
  479loPI   GL2 7654  15.100   4.739   8.726 -0.1259  0.2210 -0.1186
  479loPI   C1A 7655  15.176   4.240   8.638 -0.0897  0.0357  0.0379
  479loPI   C2A 7656  15.149   4.238   8.173 -0.3003 -0.0164  0.1975
  479loPI   C3A 7657  15.272   4.298   7.852  0.1968 -0.2342  0.2456
  479loPI   C4A 7658  15.273   4.176   7.451  0.0642 -0.2129 -0.0723
  479loPI   C5A 7659  15.055   3.892   7.256 -0.1211  0.1837  0.0550
  479loPI   C6A 7660  14.851   3.670   6.908 -0.4979 -0.0514 -0.0770
  479loPI   C1B 7661  15.266   4.697   8.315 -0.3481  0.0163 -0.1552
  479loPI   C2B 7662  15.596   4.655   8.148 -0.0034 -0.0429 -0.5251
  479loPI   C3B 7663  15.777   4.601   7.819  0.0283  0.2257 -0.2897
  479loPI   C4B 7664  16.115   4.542   7.549  0.1735  0.0495 -0.0207
  480loPI    C1 7665   2.446  13.113   9.656  0.0302  0.0850 -0.1111
  480loPI    C2 7666   2.506  13.508   9.684 -0.1021  0.0860  0.2111
  480loPI    C3 7667   2.626  13.266   9.979  0.2173 -0.1491 -0.1020
  480loPI   PO4 7668   2.296  13.106   9.455 -0.0760  0.0637 -0.0426
  480loPI   GL1 7669   2.289  12.953   8.992 -0.3563 -0.1193  0.1271
  480loPI   GL2 7670   2.077  13.236   9.037  0.0500  0.0086 -0.0127
  480loPI   C1A 7671   2.395  13.304   8.658  0.1959  0.2082 -0.0692
  480loPI   C2A 7672   2.469  13.321   8.251 -0.0069 -0.1530 -0.0613
  480loPI   C3A 7673   2.211  13.295   7.846 -0.1771 -0.1560  0.1987
  480loPI   C4A 7674   2.138  13.487   7.416 -0.1692 -0.0942  0.4097
  480loPI   C5A 7675   2.081  13.361   6.957 -0.0834 -0.1696  0.0694
  480loPI   C6A 7676   2.128  13.669   6.714 -0.1025  0.2070  0.0217
  480loPI   C1B 7677   1.880  13.047   8.641 -0.1779  0.2378 -0.0806
  480loPI   C2B 7678   2.026  12.971   8.250  0.0824 -0.0794 -0.1374
  480loPI   C3B 7679   2.011  12.788   7.756 -0.0423 -0.1177  0.2719
  480loPI   C4B 7680   1.770  13.087   7.416  0.0729  0.0533  0.1534
  481loPI    C1 7681  18.121   8.204   9.636  0.3033  0.1005 -0.3042
  481loPI    C2 7682  18.057   7.898   9.387  0.3067 -0.2043  0.0606
  481loPI    C3 7683  17.884   7.902   9.748  0.4202  0.1566  0.1147
  481loPI   PO4 7684  18.122   8.377   9.483 -0.3314 -0.1516  0.1903
  481loPI   GL1 7685  17.976   8.392   9.092 -0.1208  0.1252  0.1101
  481loPI   GL2 7686  18.163   8.468   8.787 -0.0982  0.5569  0.1092
  481loPI   C1A 7687  17.881   8.877   8.834 -0.2303  0.0795  0.1019
  481loPI   C2A 7688  17.804   9.127   8.527  0.0978 -0.1681  0.2807
  481loPI   C3A 7689  17.703   9.282   8.103 -0.2779  0.0635 -0.0815
  481loPI   C4A 7690  17.667   9.238   7.593 -0.1468  0.1867 -0.1634
  481loPI   C5A 7691  18.057   9.429   7.289  0.3175  0.4005  0.0168
  481loPI   C6A 7692  18.387   9.752   7.118  0.0267  0.0982  0.0634
  481loPI   C1B 7693  18.006   8.585   8.396 -0.0981  0.2001 -0.2337
  481loPI   C2B 7694  17.705   8.768   8.108 -0.1300 -0.2376  0.1891
  481loPI   C3B 7695  17.483   8.711   7.736 -0.1659  0.0989  0.1223
  481loPI   C4B 7696  17.494   8.849   7.305 -0.2666  0.0586 -0.1911
  482loPI    C1 7697   7.145  16.485  10.030 -0.0949 -0.2470  0.2235
  482loPI    C2 7698   7.535  16.470  10.117  0.0058  0.1867 -0.1181
  482loPI    C3 7699   7.323  16.132  10.090  0.3981 -0.0661 -0.1120
  482loPI   PO4 7700   7.108  16.596   9.764  0.1220 -0.1854 -0.1872
  482loPI   GL1 7701   6.871  16.616   9.370  0.0570 -0.3807  0.2150
  482loPI   GL2 7702   7.073  16.379   9.322  0.0125  0.1504  0.2043
  482loPI   C1A 7703   6.659  16.530   9.058  0.1987  0.0376  0.1668
  482loPI   C2A 7704   6.560  16.583   8.571  0.0844  0.1347 -0.0334
  482loPI   C3A 7705   6.329  16.491   8.192 -0.0477 -0.1370  0.1855
  482loPI   C4A 7706   6.336  16.437   7.650 -0.0497  0.0545 -0.0308
  482loPI   C5A 7707   6.059  16.190   7.350 -0.0068 -0.1315 -0.0464
  482loPI   C6A 7708   5.796  15.872   7.223 -0.0456 -0.1410  0.3019
  482loPI   C1B 7709   7.079  16.619   8.906  0.0621 -0.0776 -0.1592
  482loPI   C2B 7710   7.065  16.811   8.593  0.0073 -0.1175  0.3811
  482loPI   C3B 7711   7.154  17.010   8.185 -0.0379 -0.2980  0.0751
  482loPI   C4B 7712   6.994  17.157   7.809  0.2915  0.1460 -0.1594
  483loPI    C1 7713   5.368  11.749   9.742 -0.1089 -0.1116  0.0563
  483loPI    C2 7714   5.380  11.787  10.140  0.0134 -0.0246  0.0446
  483loPI    C3 7715   5.322  12.109   9.910  0.2403 -0.0281 -0.0199
  483loPI   PO4 7716   5.614  11.676   9.660  0.0742 -0.0452  0.2144
  483loPI   GL1 7717   5.930  11.521   9.330  0.1584 -0.0955  0.1736
  483loPI   GL2 7718   5.964  11.782   9.343  0.4619 -0.2013  0.2153
  483loPI   C1A 7719   6.184  11.592   8.883  0.1856 -0.1118 -0.2857
  483loPI   C2A 7720   6.198  11.957   8.546  0.0238  0.0247  0.4323
  483loPI   C3A 7721   6.223  12.090   8.194 -0.1113  0.1169 -0.1387
  483loPI   C4A 7722   6.072  12.412   7.902 -0.0349 -0.0332 -0.0935
  483loPI   C5A 7723   6.424  12.691   7.659 -0.0193 -0.0776  0.0256
  483loPI   C6A 7724   6.756  12.996   7.734  0.4834 -0.1809 -0.0171
  483loPI   C1B 7725   5.624  11.641   8.926 -0.4912  0.2180 -0.0296
  483loPI   C2B 7726   5.671  11.826   8.462 -0.0993  0.1299 -0.0202
  483loPI   C3B 7727   5.798  11.889   8.026  0.1230  0.0372 -0.0899
  483loPI   C4B 7728   5.840  11.708   7.583 -0.1160 -0.0546 -0.0613
  484loPI    C1 7729  15.915   8.385   9.659 -0.0314 -0.2318  0.0607
  484loPI    C2 7730  15.695   8.068   9.765  0.0662 -0.2913  0.0863
  484loPI    C3 7731  15.602   8.432   9.904 -0.2050 -0.2660 -0.1516
  484loPI   PO4 7732  15.879   8.340   9.393 -0.2147 -0.0097  0.0186
  484loPI   GL1 7733  15.898   8.663   9.099 -0.1619  0.3804  0.0261
  484loPI   GL2 7734  16.192   8.847   8.984  0.2852 -0.0357 -0.1316
  484loPI   C1A 7735  15.865   8.588   8.593 -0.2143 -0.0073  0.0227
  484loPI   C2A 7736  15.729   8.676   8.230 -0.0393 -0.4643 -0.1118
  484loPI   C3A 7737  15.822   8.785   7.906 -0.2599 -0.0796 -0.1885
  484loPI   C4A 7738  15.786   8.669   7.543  0.0061 -0.1243 -0.2037
  484loPI   C5A 7739  15.621   8.746   7.102 -0.1110 -0.1574 -0.2136
  484loPI   C6A 7740  15.221   8.896   6.846  0.6423  0.2383 -0.1100
  484loPI   C1B 7741  16.241   8.866   8.538  0.0156 -0.1821  0.1930
  484loPI   C2B 7742  16.406   8.759   8.214 -0.1950  0.0109  0.1386
  484loPI   C3B 7743  16.387   8.605   7.865  0.0854 -0.3000  0.1313
  484loPI   C4B 7744  16.260   8.562   7.421  0.1241  0.1277  0.1676
  485loPI    C1 7745  14.924   8.190   9.656  0.0847 -0.1850  0.0738
  485loPI    C2 7746  15.111   8.312   9.988  0.1044 -0.3890  0.1389
  485loPI    C3 7747  14.741   8.162  10.010 -0.0263 -0.0923  0.0245
  485loPI   PO4 7748  15.100   8.035   9.461 -0.3644  0.0996 -0.1237
  485loPI   GL1 7749  15.446   8.230   9.153  0.4615  0.2029 -0.0861
  485loPI   GL2 7750  15.402   7.871   9.104 -0.1218 -0.0352 -0.0668
  485loPI   C1A 7751  15.489   8.488   8.878  0.0038  0.3480 -0.2412
  485loPI   C2A 7752  15.314   8.565   8.509 -0.3091  0.2105 -0.1121
  485loPI   C3A 7753  15.258   8.620   8.112 -0.2694  0.1714 -0.1571
  485loPI   C4A 7754  15.199   8.723   7.701 -0.4115  0.1383  0.0032
  485loPI   C5A 7755  15.115   8.628   7.240 -0.1207  0.1967  0.2795
  485loPI   C6A 7756  15.272   8.195   7.088 -0.1328 -0.1834 -0.3749
  485loPI   C1B 7757  15.073   8.077   8.852 -0.1689 -0.1823 -0.2342
  485loPI   C2B 7758  15.001   8.117   8.453  0.0126  0.0768  0.1587
  485loPI   C3B 7759  14.999   8.104   7.988 -0.3425  0.0519  0.0693
  485loPI   C4B 7760  15.058   7.990   7.590  0.2212 -0.1886  0.1572
  486loPI    C1 7761   0.981   8.775  10.061 -0.1246 -0.1266 -0.0606
  486loPI    C2 7762   0.584   8.825  10.046 -0.1286 -0.1307  0.0258
  486loPI    C3 7763   0.739   8.502  10.224 -0.0856 -0.1126  0.0215
  486loPI   PO4 7764   1.035   8.734   9.805 -0.0291  0.0323 -0.0409
  486loPI   GL1 7765   0.861   8.761   9.419 -0.1194 -0.1561 -0.3260
  486loPI   GL2 7766   0.901   8.469   9.305 -0.2519 -0.2779  0.2662
  486loPI   C1A 7767   1.116   9.127   9.110 -0.0723 -0.0975 -0.3621
  486loPI   C2A 7768   1.178   9.197   8.695 -0.0756  0.2367  0.1537
  486loPI   C3A 7769   1.448   9.110   8.315 -0.1876 -0.2653  0.1654
  486loPI   C4A 7770   1.624   9.113   7.939  0.3649 -0.3225  0.1153
  486loPI   C5A 7771   1.626   8.769   7.714 -0.0460  0.0267  0.2290
  486loPI   C6A 7772   1.448   8.512   7.385  0.0685 -0.1341  0.1307
  486loPI   C1B 7773   0.901   8.742   8.914  0.0587 -0.2777 -0.0394
  486loPI   C2B 7774   0.665   9.107   8.794 -0.1465  0.3171 -0.2498
  486loPI   C3B 7775   0.565   9.251   8.409  0.5632 -0.0633  0.2515
  486loPI   C4B 7776   0.218   9.491   8.191  0.0790 -0.2613 -0.1492
  487loPI    C1 7777  17.491  16.811  10.332  0.1530  0.2916 -0.0098
  487loPI    C2 7778  17.587  17.156  10.511  0.0742  0.2208  0.1717
  487loPI    C3 7779  17.775  16.819  10.614  0.1422  0.2060  0.0035
  487loPI   PO4 7780  17.465  16.793  10.062  0.0943 -0.0202 -0.0061
  487loPI   GL1 7781  17.133  16.853   9.761 -0.0342 -0.1165 -0.0639
  487loPI   GL2 7782  17.084  16.489   9.825 -0.2714  0.0660 -0.1432
  487loPI   C1A 7783  17.155  16.713   9.323 -0.3222 -0.2560 -0.0866
  487loPI   C2A 7784  17.080  16.619   8.882  0.0303 -0.4111  0.0904
  487loPI   C3A 7785  16.941  16.663   8.417  0.0060  0.0962 -0.1971
  487loPI   C4A 7786  16.708  16.737   7.965 -0.0899  0.0617  0.4523
  487loPI   C5A 7787  16.489  16.697   7.669  0.0817 -0.3828  0.2578
  487loPI   C6A 7788  16.190  16.722   7.305  0.2321  0.0248  0.0269
  487loPI   C1B 7789  16.892  16.329   9.526 -0.3352 -0.2461 -0.0029
  487loPI   C2B 7790  17.031  16.207   9.029  0.0749 -0.1902 -0.1120
  487loPI   C3B 7791  17.202  16.209   8.584  0.4209  0.0041  0.0504
  487loPI   C4B 7792  17.157  16.311   8.109 -0.1562 -0.3115 -0.1091
  488loPI    C1 7793  13.108  16.582  10.276 -0.3522 -0.1788 -0.4062
  488loPI    C2 7794  12.847  16.376  10.499 -0.1806 -0.0777 -0.1054
  488loPI    C3 7795  12.840  16.775  10.503  0.0125 -0.0740 -0.0527
  488loPI   PO4 7796  13.119  16.527  10.024  0.0368 -0.1697 -0.1426
  488loPI   GL1 7797  13.009  16.487   9.719  0.0940 -0.2614 -0.0920
  488loPI   GL2 7798  13.205  16.661   9.548 -0.1266  0.1599  0.0853
  488loPI   C1A 7799  13.035  16.182   9.285  0.2410  0.0732 -0.0811
  488loPI   C2A 7800  13.091  16.120   8.837  0.0345 -0.4153 -0.1507
  488loPI   C3A 7801  13.172  16.028   8.401 -0.3120 -0.2778  0.1472
  488loPI   C4A 7802  13.345  16.071   7.999  0.0011  0.0603 -0.1410
  488loPI   C5A 7803  13.199  15.673   7.666 -0.1433  0.1305  0.1592
  488loPI   C6A 7804  12.948  15.726   7.226 -0.1950 -0.1722  0.0766
  488loPI   C1B 7805  13.158  16.646   9.034  0.3875 -0.0286 -0.3263
  488loPI   C2B 7806  13.343  16.491   8.653 -0.3616  0.1506  0.1105
  488loPI   C3B 7807  13.504  16.409   8.304  0.1803  0.0654  0.2904
  488loPI   C4B 7808  13.621  16.546   8.017 -0.2588 -0.5274  0.1635
  489loPI    C1 7809  10.890   7.994   9.838 -0.0360 -0.0654 -0.0469
  489loPI    C2 7810  10.638   7.868  10.122  0.1065  0.1331  0.1705
  489loPI    C3 7811  11.026   7.920  10.207  0.2089 -0.0922 -0.1406
  489loPI   PO4 7812  10.879   7.821   9.586 -0.0281  0.1755  0.0758
  489loPI   GL1 7813  10.980   8.045   9.199  0.0465 -0.0649  0.3123
  489loPI   GL2 7814  10.899   7.793   9.029  0.2352 -0.2220  0.2857
  489loPI   C1A 7815  10.790   8.279   8.941 -0.0259 -0.1460  0.0361
  489loPI   C2A 7816  10.757   8.182   8.518 -0.3027 -0.2480 -0.4143
  489loPI   C3A 7817  10.475   8.217   8.085 -0.2375  0.2952  0.2438
  489loPI   C4A 7818  10.382   8.023   7.720 -0.2852 -0.4246 -0.0164
  489loPI   C5A 7819  10.446   7.897   7.321 -0.2290  0.1925 -0.4325
  489loPI   C6A 7820  10.126   7.958   6.997  0.0048  0.1833 -0.3582
  489loPI   C1B 7821  11.063   7.807   8.601  0.0641  0.1272 -0.0911
  489loPI   C2B 7822  10.989   7.941   8.178 -0.1264 -0.3070  0.1387
  489loPI   C3B 7823  10.959   8.146   7.818  0.1824  0.3361 -0.0647
  489loPI   C4B 7824  11.003   8.020   7.320 -0.1215  0.0477  0.2752
  490loPI    C1 7825  14.976  12.312  10.026 -0.1421  0.0901 -0.1247
  490loPI    C2 7826  14.683  12.119  10.219 -0.1642 -0.0103 -0.2572
  490loPI    C3 7827  14.990  12.274  10.424 -0.1216 -0.2278 -0.1530
  490loPI   PO4 7828  15.051  12.145   9.790 -0.3175  0.2070  0.0332
  490loPI   GL1 7829  15.006  12.104   9.386 -0.2107 -0.1981 -0.2292
  490loPI   GL2 7830  15.128  12.298   9.195  0.0058  0.0546 -0.1464
  490loPI   C1A 7831  15.048  11.810   9.021 -0.1862 -0.2968 -0.0509
  490loPI   C2A 7832  15.077  11.744   8.558 -0.0855 -0.1734 -0.0657
  490loPI   C3A 7833  15.411  11.629   8.293 -0.0930 -0.0741  0.2595
  490loPI   C4A 7834  15.392  11.662   7.748  0.1557 -0.1113 -0.0710
  490loPI   C5A 7835  15.693  11.766   7.460  0.2736 -0.2828  0.0636
  490loPI   C6A 7836  15.882  11.472   7.186  0.3302 -0.0460 -0.0304
  490loPI   C1B 7837  15.202  12.289   8.796  0.0858 -0.0240 -0.1072
  490loPI   C2B 7838  15.207  12.208   8.408 -0.1066 -0.1068 -0.1567
  490loPI   C3B 7839  15.137  12.533   8.137  0.0334  0.0223  0.1651
  490loPI   C4B 7840  15.146  12.816   7.781  0.2530 -0.2146  0.0299
  491loPI    C1 7841  17.327   7.522   9.380 -0.0258 -0.1909 -0.2359
  491loPI    C2 7842  17.361   7.595   9.771  0.0747  0.1800 -0.3102
  491loPI    C3 7843  17.052   7.381   9.635  0.0020  0.1063 -0.0369
  491loPI   PO4 7844  17.524   7.803   9.275 -0.1298 -0.2726 -0.2514
  491loPI   GL1 7845  17.851   7.797   8.964 -0.2560 -0.4298 -0.3190
  491loPI   GL2 7846  18.181   7.888   8.912  0.2100  0.0229  0.0813
  491loPI   C1A 7847  17.556   7.873   8.583 -0.1991  0.0734  0.1719
  491loPI   C2A 7848  17.603   7.786   8.084 -0.0857  0.0640 -0.0116
  491loPI   C3A 7849  17.465   7.668   7.641 -0.0506 -0.2327 -0.0149
  491loPI   C4A 7850  17.329   7.354   7.448  0.4719 -0.1396 -0.1035
  491loPI   C5A 7851  17.275   7.073   7.273  0.0851  0.0032 -0.2046
  491loPI   C6A 7852  17.384   7.073   6.862  0.0349 -0.0395 -0.0686
  491loPI   C1B 7853  18.127   8.038   8.476 -0.0931  0.0596 -0.1225
  491loPI   C2B 7854  18.037   8.208   8.048  0.0183  0.2392 -0.3264
  491loPI   C3B 7855  18.176   8.474   7.626  0.0239 -0.0788  0.0701
  491loPI   C4B 7856  17.991   8.854   7.583 -0.1626 -0.2294 -0.0222
  492loPI    C1 7857  15.874  13.050  10.186  0.0360  0.3306  0.2130
  492loPI    C2 7858  15.620  12.811  10.382  0.1445 -0.0480 -0.0943
  492loPI    C3 7859  15.811  13.103  10.577 -0.0209 -0.1841  0.2811
  492loPI   PO4 7860  15.748  13.100   9.964  0.1556  0.1234 -0.1924
  492loPI   GL1 7861  15.518  13.280   9.647  0.0702  0.2991  0.0102
  492loPI   GL2 7862  15.527  13.578   9.786  0.1473  0.2759  0.2578
  492loPI   C1A 7863  15.508  13.258   9.239 -0.1237  0.2055  0.0866
  492loPI   C2A 7864  15.295  13.082   8.933 -0.1423 -0.1738 -0.4018
  492loPI   C3A 7865  15.341  12.952   8.510  0.0156 -0.0257  0.2995
  492loPI   C4A 7866  15.415  13.038   8.125  0.3022 -0.0282  0.0657
  492loPI   C5A 7867  15.633  13.006   7.732 -0.4662 -0.0304  0.1143
  492loPI   C6A 7868  15.545  12.698   7.425  0.4034  0.0135 -0.1166
  492loPI   C1B 7869  15.435  13.731   9.377  0.2362 -0.1466  0.0841
  492loPI   C2B 7870  15.525  14.051   9.059  0.0211 -0.2179  0.2451
  492loPI   C3B 7871  15.667  14.015   8.596 -0.0911  0.0667 -0.0122
  492loPI   C4B 7872  15.701  13.924   8.244  0.2283 -0.1218  0.0623
  493loPI    C1 7873  16.888   9.839   9.686 -0.2031  0.2720  0.1257
  493loPI    C2 7874  17.192   9.670   9.489 -0.3022  0.0344  0.1723
  493loPI    C3 7875  17.206   9.701   9.887 -0.2332  0.2450  0.1548
  493loPI   PO4 7876  16.688   9.717   9.531 -0.2293 -0.0110  0.0155
  493loPI   GL1 7877  16.846   9.431   9.213 -0.1360  0.0015  0.1958
  493loPI   GL2 7878  16.961   9.210   9.309  0.0618  0.2734 -0.1035
  493loPI   C1A 7879  16.718   9.760   8.818  0.0850  0.1598 -0.1536
  493loPI   C2A 7880  16.596   9.731   8.406  0.2184  0.2830 -0.2224
  493loPI   C3A 7881  16.839   9.625   7.965 -0.2224  0.1227  0.0849
  493loPI   C4A 7882  16.868   9.539   7.602  0.1096  0.1281 -0.0814
  493loPI   C5A 7883  16.469   9.480   7.496 -0.2397 -0.2277 -0.1320
  493loPI   C6A 7884  16.250   9.647   7.116  0.2167 -0.1591 -0.1757
  493loPI   C1B 7885  17.174   8.950   9.040 -0.4349 -0.1442 -0.0863
  493loPI   C2B 7886  17.278   8.895   8.548 -0.1475  0.0379 -0.0514
  493loPI   C3B 7887  17.271   8.962   8.136  0.2302 -0.0654 -0.1150
  493loPI   C4B 7888  17.210   9.297   7.831 -0.0198  0.1538  0.0469
  494loPI    C1 7889   3.173   1.711   9.684  0.0283 -0.1613 -0.0733
  494loPI    C2 7890   3.390   1.780  10.013 -0.1950  0.2299 -0.0015
  494loPI    C3 7891   3.167   1.449   9.986  0.2348 -0.0692  0.0124
  494loPI   PO4 7892   3.015   1.963   9.638  0.0146 -0.2199  0.0306
  494loPI   GL1 7893   2.960   2.059   9.271 -0.2922 -0.0386 -0.2413
  494loPI   GL2 7894   3.296   2.301   9.207 -0.2248  0.1345  0.0230
  494loPI   C1A 7895   2.751   1.863   8.898  0.1725  0.0412 -0.3855
  494loPI   C2A 7896   2.861   1.565   8.647  0.1824  0.1228  0.1293
  494loPI   C3A 7897   2.769   1.564   8.287 -0.1415  0.2224  0.0179
  494loPI   C4A 7898   2.756   1.685   7.837  0.1389  0.1571  0.4587
  494loPI   C5A 7899   2.727   1.547   7.430  0.0073  0.1519 -0.3840
  494loPI   C6A 7900   2.682   1.308   7.119  0.3261 -0.3699  0.1960
  494loPI   C1B 7901   3.464   2.528   8.750 -0.0840  0.0118 -0.0652
  494loPI   C2B 7902   3.260   2.539   8.384 -0.0523  0.1820 -0.1509
  494loPI   C3B 7903   3.217   2.643   7.927 -0.1843 -0.1389 -0.1078
  494loPI   C4B 7904   3.208   2.795   7.519  0.0108  0.2810  0.1108
  495loPI    C1 7905   8.552  12.677  10.027 -0.0042  0.0443  0.1437
  495loPI    C2 7906   8.185  12.594  10.164 -0.1377  0.3213 -0.0353
  495loPI    C3 7907   8.474  12.701  10.419 -0.1737  0.0833  0.1087
  495loPI   PO4 7908   8.650  12.449   9.875 -0.1200 -0.2362  0.1864
  495loPI   GL1 7909   8.717  12.463   9.458 -0.0177  0.1367  0.0481
  495loPI   GL2 7910   9.073  12.318   9.313 -0.0475  0.1236 -0.0297
  495loPI   C1A 7911   8.342  12.376   9.120 -0.2484  0.4165  0.0109
  495loPI   C2A 7912   8.395  12.441   8.716 -0.0811 -0.1654 -0.2664
  495loPI   C3A 7913   8.446  12.271   8.298  0.1292 -0.0786 -0.3691
  495loPI   C4A 7914   8.729  12.005   8.085  0.1530 -0.1732  0.1406
  495loPI   C5A 7915   8.963  11.852   7.694  0.1589 -0.4707  0.1020
  495loPI   C6A 7916   9.019  11.640   7.331  0.0230 -0.0405 -0.0162
  495loPI   C1B 7917   8.839  12.355   8.978  0.0364 -0.0919  0.5915
  495loPI   C2B 7918   8.847  12.368   8.540  0.1892  0.0216 -0.0644
  495loPI   C3B 7919   8.917  12.510   8.173 -0.0116 -0.0842  0.2806
  495loPI   C4B 7920   8.788  12.675   7.813 -0.0332  0.0181 -0.1346
  496loPI    C1 7921  19.036  18.387  10.077  0.0332  0.0003  0.0684
  496loPI    C2 7922  18.834  18.063   9.954 -0.2300  0.2221 -0.0961
  496loPI    C3 7923  18.948  18.096  10.337  0.1975 -0.2683 -0.1707
  496loPI   PO4 7924  18.972  18.546   9.790  0.0824  0.0699  0.0267
  496loPI   GL1 7925  18.833  18.523   9.367  0.0045  0.2000  0.0804
  496loPI   GL2 7926  18.457  18.568   9.257 -0.0053 -0.0771 -0.0454
  496loPI   C1A 7927  18.805  18.837   9.087 -0.0999  0.0249  0.1580
  496loPI   C2A 7928  18.751  18.957   8.615  0.2016 -0.1183 -0.0882
  496loPI   C3A 7929  18.577  18.899   8.273 -0.4649 -0.0936 -0.1414
  496loPI   C4A 7930  18.427  18.665   7.943  0.2160  0.1381 -0.0969
  496loPI   C5A 7931  18.262  18.348   7.661 -0.0501 -0.5966 -0.1855
  496loPI   C6A 7932  18.089  18.142   7.368 -0.2421  0.0200 -0.4250
  496loPI   C1B 7933  18.547  18.514   8.815 -0.0009 -0.0045  0.0772
  496loPI   C2B 7934  18.656  18.380   8.388  0.1576  0.4680  0.0495
  496loPI   C3B 7935  18.868  18.388   8.032 -0.0556  0.1640  0.1914
  496loPI   C4B 7936  18.855  18.595   7.640  0.0053 -0.1463  0.1733
  497loPI    C1 7937   1.867  15.328   9.807 -0.1233  0.0268  0.1430
  497loPI    C2 7938   1.978  15.702   9.897 -0.0595  0.0669 -0.0968
  497loPI    C3 7939   1.928  15.433  10.188  0.1509  0.1912  0.0568
  497loPI   PO4 7940   1.698  15.342   9.584 -0.1318  0.1017  0.0532
  497loPI   GL1 7941   2.012  15.244   9.212  0.2615 -0.2210 -0.0153
  497loPI   GL2 7942   2.077  15.483   8.947  0.0211  0.2472 -0.2749
  497loPI   C1A 7943   1.995  14.980   8.889  0.1451 -0.1733 -0.3313
  497loPI   C2A 7944   1.951  14.597   8.604  0.0370 -0.0066  0.0734
  497loPI   C3A 7945   1.896  14.460   8.114 -0.0113 -0.1311  0.1004
  497loPI   C4A 7946   2.217  14.380   7.737 -0.0424  0.2115 -0.1949
  497loPI   C5A 7947   2.396  14.387   7.334 -0.1426  0.2042 -0.1019
  497loPI   C6A 7948   2.761  14.416   7.122  0.0768  0.0584  0.4264
  497loPI   C1B 7949   1.996  15.353   8.494  0.0703  0.2608 -0.2849
  497loPI   C2B 7950   2.145  15.357   8.078  0.0295  0.2263 -0.2527
  497loPI   C3B 7951   2.131  15.337   7.597 -0.0140 -0.0306 -0.0216
  497loPI   C4B 7952   2.260  15.222   7.112  0.1579  0.0686 -0.1115
  498loPI    C1 7953  14.438   9.606   9.351 -0.1660  0.1937  0.3424
  498loPI    C2 7954  14.357   9.462   9.715  0.0409 -0.0530  0.2942
  498loPI    C3 7955  14.122   9.743   9.553 -0.1045 -0.0074  0.5788
  498loPI   PO4 7956  14.737   9.568   9.320  0.0374 -0.1125 -0.0543
  498loPI   GL1 7957  14.839   9.781   8.977  0.1735  0.0829  0.4134
  498loPI   GL2 7958  14.792   9.502   8.821  0.0891 -0.0417 -0.2948
  498loPI   C1A 7959  14.389   9.790   8.808  0.0331 -0.2169  0.1184
  498loPI   C2A 7960  14.200   9.770   8.456 -0.0478 -0.0244  0.1094
  498loPI   C3A 7961  14.424   9.927   7.991 -0.0705  0.1714  0.3429
  498loPI   C4A 7962  14.640  10.055   7.608 -0.2068 -0.1377  0.0075
  498loPI   C5A 7963  14.735  10.360   7.255 -0.1534 -0.1069 -0.0695
  498loPI   C6A 7964  15.005  10.765   7.259  0.0662  0.0229 -0.0699
  498loPI   C1B 7965  14.921   9.599   8.431  0.0584  0.1342  0.0277
  498loPI   C2B 7966  14.871   9.567   7.994 -0.0156  0.3106 -0.1256
  498loPI   C3B 7967  14.857   9.559   7.505 -0.1879 -0.0996  0.0955
  498loPI   C4B 7968  14.798   9.828   7.100  0.0203 -0.1862  0.0487
  499loPI    C1 7969   3.735   2.079   9.295 -0.1830 -0.1314  0.0311
  499loPI    C2 7970   3.873   1.849   9.592 -0.0108  0.1775  0.1956
  499loPI    C3 7971   3.547   2.074   9.648 -0.0027  0.2043  0.1363
  499loPI   PO4 7972   3.925   2.301   9.155  0.1651 -0.0438 -0.0180
  499loPI   GL1 7973   4.236   2.333   8.894  0.0339  0.1316  0.0227
  499loPI   GL2 7974   4.577   2.184   8.932  0.0985 -0.0590  0.0102
  499loPI   C1A 7975   3.920   2.184   8.517  0.0398 -0.3141  0.0898
  499loPI   C2A 7976   3.655   2.311   8.169  0.0804 -0.0105 -0.1061
  499loPI   C3A 7977   3.471   2.306   7.738  0.1318 -0.0406 -0.0078
  499loPI   C4A 7978   3.420   2.103   7.215 -0.0609  0.1350 -0.0713
  499loPI   C5A 7979   3.519   1.629   7.214 -0.1028 -0.1934  0.0868
  499loPI   C6A 7980   3.486   1.203   7.163 -0.1408  0.1869  0.1646
  499loPI   C1B 7981   4.343   1.854   8.749 -0.0482  0.0444  0.0591
  499loPI   C2B 7982   4.503   1.662   8.382  0.1677 -0.1205 -0.5884
  499loPI   C3B 7983   4.773   1.831   8.054  0.4746 -0.2455  0.0432
  499loPI   C4B 7984   4.602   2.257   7.917 -0.0297  0.3828  0.0660
  500loPI    C1 7985  14.436  12.907  10.524  0.0147 -0.1106  0.0899
  500loPI    C2 7986  14.729  12.678  10.376  0.0769  0.0571 -0.0510
  500loPI    C3 7987  14.768  12.843  10.739  0.0641 -0.0928  0.0193
  500loPI   PO4 7988  14.323  12.959  10.325  0.1548 -0.0240  0.2862
  500loPI   GL1 7989  14.265  12.994   9.803  0.0640  0.2694 -0.1151
  500loPI   GL2 7990  14.340  12.663   9.536 -0.1065 -0.2699 -0.2347
  500loPI   C1A 7991  14.248  13.213   9.392 -0.0064  0.1449 -0.1050
  500loPI   C2A 7992  14.281  13.465   9.006  0.4308  0.0906 -0.6094
  500loPI   C3A 7993  14.341  13.469   8.559 -0.0287 -0.3057 -0.0167
  500loPI   C4A 7994  14.244  13.627   8.100 -0.2203 -0.0444 -0.1032
  500loPI   C5A 7995  13.954  13.624   7.706 -0.0200 -0.2608 -0.3785
  500loPI   C6A 7996  13.841  13.355   7.305 -0.0489  0.1786  0.1921
  500loPI   C1B 7997  14.376  12.721   9.036  0.1969  0.0264  0.2149
  500loPI   C2B 7998  14.463  13.010   8.724 -0.0377  0.1410  0.2276
  500loPI   C3B 7999  14.419  13.042   8.310 -0.0519 -0.0579 -0.2174
  500loPI   C4B 8000  14.599  13.212   7.923  0.1700 -0.0614  0.0256
  501loPI    C1 8001  10.447  12.547   9.928  0.0838 -0.0940  0.0341
  501loPI    C2 8002  10.382  12.473  10.315 -0.0739 -0.2737 -0.0252
  501loPI    C3 8003  10.114  12.680  10.104  0.0482 -0.1096 -0.0214
  501loPI   PO4 8004  10.478  12.452   9.780 -0.3254  0.2127 -0.0109
  501loPI   GL1 8005  10.329  12.168   9.492 -0.0789 -0.4623 -0.0652
  501loPI   GL2 8006  10.614  12.103   9.496  0.0862 -0.2842 -0.1175
  501loPI   C1A 8007   9.994  12.093   9.187 -0.2664 -0.1591 -0.3374
  501loPI   C2A 8008   9.799  12.011   8.726 -0.1441 -0.1401  0.4632
  501loPI   C3A 8009   9.772  11.974   8.295  0.0564  0.1083  0.0585
  501loPI   C4A 8010   9.624  11.934   7.867 -0.3037 -0.0644  0.2568
  501loPI   C5A 8011   9.918  11.939   7.498 -0.1075  0.2164 -0.1141
  501loPI   C6A 8012  10.347  11.908   7.218  0.1047 -0.2557 -0.2301
  501loPI   C1B 8013  10.656  11.971   9.127 -0.0845  0.1960  0.0240
  501loPI   C2B 8014  10.709  12.045   8.679  0.2660  0.1090  0.3122
  501loPI   C3B 8015  10.755  12.104   8.323 -0.1503  0.0120  0.2819
  501loPI   C4B 8016  10.709  11.970   7.794 -0.2843 -0.3010 -0.1676
  502loPI    C1 8017  17.535  17.675   9.945  0.2275  0.2469  0.0165
  502loPI    C2 8018  17.351  17.884  10.232  0.0362  0.1307 -0.0198
  502loPI    C3 8019  17.635  17.619  10.328 -0.1149  0.0008  0.0744
  502loPI   PO4 8020  17.548  17.828   9.805 -0.1411 -0.1103 -0.2144
  502loPI   GL1 8021  17.637  17.914   9.412 -0.4306  0.0301  0.0825
  502loPI   GL2 8022  17.673  18.193   9.278 -0.3071 -0.0641 -0.2158
  502loPI   C1A 8023  17.449  17.813   8.892 -0.1003  0.0338  0.0278
  502loPI   C2A 8024  17.608  17.586   8.742 -0.1116  0.1507 -0.0484
  502loPI   C3A 8025  17.453  17.449   8.356  0.5133 -0.6468 -0.3325
  502loPI   C4A 8026  17.332  17.515   7.894 -0.3014 -0.1228 -0.0018
  502loPI   C5A 8027  17.054  17.559   7.614  0.2484 -0.1381 -0.0060
  502loPI   C6A 8028  17.018  17.873   7.220 -0.2342 -0.1849 -0.1287
  502loPI   C1B 8029  17.799  18.325   8.929  0.0142  0.0075  0.0161
  502loPI   C2B 8030  17.791  18.015   8.480 -0.0467  0.0389 -0.1949
  502loPI   C3B 8031  17.661  17.831   8.114  0.2022  0.2951  0.3276
  502loPI   C4B 8032  17.569  17.835   7.647 -0.2576  0.0530 -0.0535
  503loPI    C1 8033  17.963  14.607  10.277  0.0539 -0.0773  0.1723
  503loPI    C2 8034  17.985  14.463  10.649  0.0660 -0.0642  0.1767
  503loPI    C3 8035  17.752  14.778  10.571 -0.0534 -0.1599  0.1441
  503loPI   PO4 8036  18.119  14.372  10.134  0.2228  0.2685  0.4346
  503loPI   GL1 8037  18.264  14.278   9.828  0.2114  0.0367 -0.0966
  503loPI   GL2 8038  18.218  14.015   9.671  0.2449 -0.2911 -0.4427
  503loPI   C1A 8039  18.489  14.299   9.390  0.1856  0.0928  0.0686
  503loPI   C2A 8040  18.456  14.437   9.043 -0.4171  0.1551 -0.1197
  503loPI   C3A 8041  18.499  14.581   8.600 -0.1500  0.2806  0.4512
  503loPI   C4A 8042  18.586  14.715   8.204 -0.0174 -0.1331  0.0114
  503loPI   C5A 8043  18.387  14.598   7.835 -0.4100 -0.0027 -0.3951
  503loPI   C6A 8044  18.116  15.013   7.596  0.3511  0.3003 -0.1808
  503loPI   C1B 8045  18.271  13.850   9.369  0.1290  0.2214 -0.2093
  503loPI   C2B 8046  18.052  13.781   8.943  0.0206 -0.0448  0.0338
  503loPI   C3B 8047  17.888  13.637   8.604 -0.2118 -0.0929 -0.4714
  503loPI   C4B 8048  18.026  13.854   8.278  0.2608  0.0455  0.0762
  504loPI    C1 8049   4.927   6.043   9.618 -0.1234  0.1143  0.0890
  504loPI    C2 8050   4.699   6.270   9.856 -0.0770  0.0569  0.1890
  504loPI    C3 8051   4.976   6.030  10.015  0.0405  0.1118  0.0692
  504loPI   PO4 8052   4.795   6.130   9.414 -0.2030  0.0154  0.2109
  504loPI   GL1 8053   4.744   5.944   8.983  0.1155 -0.2117 -0.5088
  504loPI   GL2 8054   4.503   5.855   9.154 -0.0536 -0.0455 -0.1262
  504loPI   C1A 8055   4.658   5.854   8.633  0.1899 -0.0936 -0.1795
  504loPI   C2A 8056   4.751   5.761   8.269 -0.0108  0.2177 -0.0577
  504loPI   C3A 8057   4.984   6.040   8.022 -0.1567  0.0560 -0.0899
  504loPI   C4A 8058   4.769   6.179   7.623 -0.2104  0.3928  0.0582
  504loPI   C5A 8059   4.576   5.976   7.359 -0.3059  0.3949  0.1245
  504loPI   C6A 8060   4.388   5.548   7.455 -0.1000  0.2595  0.0887
  504loPI   C1B 8061   4.210   5.969   8.791  0.3464  0.2007 -0.2518
  504loPI   C2B 8062   4.154   5.832   8.370 -0.1224 -0.0083 -0.1966
  504loPI   C3B 8063   3.999   5.600   8.069 -0.3141  0.1103  0.1805
  504loPI   C4B 8064   3.919   5.175   8.097  0.3068  0.0852 -0.1139
  505loPI    C1 8065   5.503  14.975   9.965 -0.2846 -0.1858  0.1073
  505loPI    C2 8066   5.902  14.947   9.982 -0.2673 -0.1003 -0.1129
  505loPI    C3 8067   5.706  15.177  10.244 -0.1751 -0.1629  0.0122
  505loPI   PO4 8068   5.502  15.118   9.574 -0.3820  0.0103 -0.3409
  505loPI   GL1 8069   5.927  15.249   9.214 -0.0127 -0.0803 -0.2533
  505loPI   GL2 8070   5.638  15.387   9.102  0.1932 -0.0764 -0.1912
  505loPI   C1A 8071   6.108  15.033   8.869  0.3181  0.3284 -0.1816
  505loPI   C2A 8072   5.891  14.811   8.645  0.2246  0.2752 -0.3579
  505loPI   C3A 8073   5.898  14.580   8.331  0.3190  0.0520 -0.3014
  505loPI   C4A 8074   5.951  14.488   7.986 -0.1008 -0.1506 -0.2927
  505loPI   C5A 8075   5.668  14.521   7.653 -0.0011 -0.1019  0.0729
  505loPI   C6A 8076   5.271  14.297   7.431  0.1510  0.0185 -0.0266
  505loPI   C1B 8077   5.695  15.256   8.575 -0.0246  0.1059 -0.0103
  505loPI   C2B 8078   6.030  15.068   8.274 -0.0843 -0.4654  0.1674
  505loPI   C3B 8079   5.879  14.984   7.877  0.1190  0.1201 -0.1366
  505loPI   C4B 8080   5.836  15.135   7.433 -0.1035  0.1049 -0.1599
  506loPI    C1 8081  16.304   6.635   9.397  0.1255  0.1440 -0.1257
  506loPI    C2 8082  16.105   6.911   9.607  0.1313  0.1645 -0.1473
  506loPI    C3 8083  16.386   6.689   9.784 -0.0965 -0.0507 -0.0492
  506loPI   PO4 8084  16.119   6.466   9.242  0.1757 -0.6148  0.0863
  506loPI   GL1 8085  15.913   6.441   8.823 -0.0244 -0.0784 -0.2372
  506loPI   GL2 8086  15.614   6.448   8.991  0.3320  0.1906  0.0920
  506loPI   C1A 8087  15.781   6.530   8.442  0.1371  0.1237 -0.0478
  506loPI   C2A 8088  15.697   6.663   8.008 -0.2585 -0.2075 -0.1457
  506loPI   C3A 8089  15.574   6.790   7.671  0.1064 -0.1348 -0.1570
  506loPI   C4A 8090  15.837   6.851   7.172  0.1097 -0.0077 -0.1496
  506loPI   C5A 8091  15.783   6.950   6.688 -0.2215  0.0093  0.1182
  506loPI   C6A 8092  15.665   6.810   6.275 -0.1695  0.1537 -0.4655
  506loPI   C1B 8093  15.359   6.561   8.717  0.0309 -0.0036  0.2623
  506loPI   C2B 8094  15.278   6.617   8.284  0.0961 -0.3879 -0.1863
  506loPI   C3B 8095  15.175   6.640   7.858 -0.2338 -0.2337 -0.4605
  506loPI   C4B 8096  15.038   6.901   7.524 -0.2282  0.0196  0.2289
  507loPI    C1 8097  11.552  13.088  10.032  0.0331 -0.2504 -0.1584
  507loPI    C2 8098  11.574  12.959  10.410 -0.1566  0.3046  0.0520
  507loPI    C3 8099  11.903  12.969  10.184 -0.1048 -0.3651  0.0769
  507loPI   PO4 8100  11.375  12.894   9.883  0.1109 -0.1217  0.0740
  507loPI   GL1 8101  11.433  12.966   9.379 -0.2962  0.4657  0.1296
  507loPI   GL2 8102  11.264  12.803   9.306  0.0186 -0.1657 -0.1609
  507loPI   C1A 8103  11.282  13.347   9.027  0.0405  0.4773  0.2374
  507loPI   C2A 8104  11.195  13.263   8.662 -0.1064 -0.2436 -0.1447
  507loPI   C3A 8105  11.299  13.348   8.174 -0.1950 -0.0785  0.1165
  507loPI   C4A 8106  11.316  13.414   7.772 -0.1448  0.1016 -0.3812
  507loPI   C5A 8107  11.194  13.469   7.361  0.2621  0.0364  0.2072
  507loPI   C6A 8108  11.386  13.646   7.059  0.2245 -0.3372  0.0078
  507loPI   C1B 8109  11.442  12.816   8.833  0.3332  0.2367 -0.2167
  507loPI   C2B 8110  11.378  12.840   8.413 -0.3324  0.0412  0.0139
  507loPI   C3B 8111  11.087  12.783   8.213 -0.2052  0.0190  0.1427
  507loPI   C4B 8112  10.975  12.418   7.995 -0.0847 -0.0282 -0.0602
  508loPI    C1 8113   7.674   7.022   9.744  0.3969  0.0489 -0.1872
  508loPI    C2 8114   7.572   7.205  10.084 -0.1549 -0.2494 -0.1805
  508loPI    C3 8115   7.913   6.998  10.064 -0.0516 -0.1180  0.1471
  508loPI   PO4 8116   7.696   7.218   9.583 -0.1332 -0.1637 -0.1693
  508loPI   GL1 8117   7.774   7.316   9.169 -0.0053 -0.1766 -0.0314
  508loPI   GL2 8118   7.815   7.539   9.088  0.1295  0.1513 -0.0061
  508loPI   C1A 8119   7.629   7.275   8.697 -0.1026  0.0111  0.2818
  508loPI   C2A 8120   7.655   7.189   8.268 -0.3692 -0.1554  0.2820
  508loPI   C3A 8121   7.581   7.096   7.805 -0.4661  0.1431  0.0517
  508loPI   C4A 8122   7.424   7.113   7.407 -0.1719 -0.1060 -0.1481
  508loPI   C5A 8123   7.359   6.975   6.963  0.1961 -0.1418 -0.1257
  508loPI   C6A 8124   7.053   7.057   6.537  0.0239  0.2726 -0.3580
  508loPI   C1B 8125   7.762   7.884   8.801 -0.2249 -0.0038  0.0450
  508loPI   C2B 8126   7.835   7.938   8.436 -0.1759  0.1502  0.1313
  508loPI   C3B 8127   7.810   7.853   7.976 -0.0110  0.0197  0.2108
  508loPI   C4B 8128   7.636   7.569   7.660  0.3150 -0.0191  0.2174
  509loPI    C1 8129   1.758   9.330  10.437 -0.0320 -0.2852 -0.0678
  509loPI    C2 8130   2.033   9.087  10.597  0.1179 -0.0261  0.0753
  509loPI    C3 8131   2.044   9.480  10.673 -0.3117 -0.0153  0.1084
  509loPI   PO4 8132   1.823   9.225  10.130 -0.0738 -0.2170  0.2666
  509loPI   GL1 8133   1.891   9.142   9.780  0.0806  0.2605 -0.1670
  509loPI   GL2 8134   2.188   9.180   9.723 -0.2096 -0.2481 -0.0217
  509loPI   C1A 8135   1.734   9.027   9.288 -0.3601 -0.1627  0.1580
  509loPI   C2A 8136   1.879   8.952   8.868 -0.1182 -0.0662  0.2122
  509loPI   C3A 8137   1.913   8.918   8.418  0.5357 -0.2929 -0.0629
  509loPI   C4A 8138   1.863   8.634   8.137  0.1281  0.3319  0.1122
  509loPI   C5A 8139   2.185   8.592   7.862  0.0683  0.0081 -0.2968
  509loPI   C6A 8140   2.327   8.372   7.554  0.0511 -0.0513 -0.2411
  509loPI   C1B 8141   2.238   9.268   9.234  0.0312  0.1675  0.0373
  509loPI   C2B 8142   2.021   9.407   8.905  0.3124 -0.0633  0.0546
  509loPI   C3B 8143   2.025   9.399   8.553 -0.1922  0.1244  0.1069
  509loPI   C4B 8144   1.939   9.353   8.163 -0.0008 -0.1831  0.4025
  510loPI    C1 8145  13.467   1.905   9.599 -0.1148 -0.1105 -0.2293
  510loPI    C2 8146  13.080   1.997   9.636 -0.1207 -0.2788  0.1784
  510loPI    C3 8147  13.277   1.833   9.943  0.3390  0.0324  0.0606
  510loPI   PO4 8148  13.552   2.135   9.556 -0.0007  0.0852 -0.1291
  510loPI   GL1 8149  13.323   2.339   9.305 -0.1261  0.0607 -0.1228
  510loPI   GL2 8150  13.264   2.036   9.132  0.1127  0.0849 -0.1049
  510loPI   C1A 8151  13.354   2.460   8.759 -0.2503  0.1669  0.1179
  510loPI   C2A 8152  13.536   2.545   8.312  0.0636  0.0357 -0.0115
  510loPI   C3A 8153  13.709   2.640   7.823  0.1427  0.2802 -0.3338
  510loPI   C4A 8154  13.793   2.551   7.359  0.1870  0.1651 -0.0770
  510loPI   C5A 8155  13.852   2.503   6.943 -0.0010 -0.1775  0.2294
  510loPI   C6A 8156  14.079   2.217   6.673  0.2963  0.1713 -0.1442
  510loPI   C1B 8157  13.609   1.829   8.847 -0.2475  0.2361 -0.1857
  510loPI   C2B 8158  13.964   1.612   8.596 -0.1011  0.3601 -0.2235
  510loPI   C3B 8159  13.864   1.275   8.297 -0.0500 -0.0851 -0.1010
  510loPI   C4B 8160  14.134   1.287   7.838  0.2581  0.1603 -0.0590
  511loPI    C1 8161   8.831  11.507  10.465  0.1498  0.0020 -0.0319
  511loPI    C2 8162   8.826  11.852  10.667  0.2213  0.0077 -0.0396
  511loPI    C3 8163   9.068  11.556  10.783  0.2393 -0.0004 -0.0980
  511loPI   PO4 8164   8.797  11.628  10.218  0.1282 -0.0307  0.2198
  511loPI   GL1 8165   8.970  11.650   9.918  0.4000  0.1715 -0.0049
  511loPI   GL2 8166   9.275  11.673   9.779  0.2768  0.2517  0.2315
  511loPI   C1A 8167   8.894  11.561   9.505 -0.0820 -0.2461  0.3649
  511loPI   C2A 8168   8.808  11.918   9.196 -0.0011  0.1415 -0.0463
  511loPI   C3A 8169   8.464  11.973   8.848  0.1786 -0.0925  0.0252
  511loPI   C4A 8170   8.056  12.100   8.738 -0.0095  0.2768  0.3025
  511loPI   C5A 8171   7.730  12.103   8.240 -0.2184  0.4129 -0.0200
  511loPI   C6A 8172   7.298  11.974   8.147 -0.1588  0.3598 -0.0490
  511loPI   C1B 8173   9.310  11.828   9.410  0.2590 -0.3348  0.0549
  511loPI   C2B 8174   9.401  12.024   9.072  0.2359  0.0410 -0.0089
  511loPI   C3B 8175   9.375  12.276   8.661 -0.4967  0.0507 -0.1072
  511loPI   C4B 8176   9.409  12.489   8.294  0.2135 -0.2597  0.0408
  512loPI    C1 8177  14.738  13.562  10.082 -0.0137  0.1573  0.0410
  512loPI    C2 8178  14.627  13.341  10.396  0.4260 -0.0028  0.0907
  512loPI    C3 8179  14.388  13.368  10.076  0.2040 -0.2541  0.2310
  512loPI   PO4 8180  14.983  13.460   9.984 -0.1513 -0.3077 -0.1476
  512loPI   GL1 8181  15.057  13.508   9.531 -0.5261 -0.1306  0.0923
  512loPI   GL2 8182  15.026  13.159   9.566  0.0113 -0.0417  0.2430
  512loPI   C1A 8183  15.126  13.624   9.023  0.1131  0.0707  0.1035
  512loPI   C2A 8184  15.167  13.821   8.598  0.0433 -0.1766  0.0319
  512loPI   C3A 8185  15.192  13.819   8.147  0.0447  0.2368  0.1303
  512loPI   C4A 8186  15.134  13.793   7.662  0.0920  0.0824  0.1217
  512loPI   C5A 8187  15.466  13.981   7.381 -0.1416  0.0961 -0.0421
  512loPI   C6A 8188  15.946  13.853   7.356  0.1015 -0.3014  0.2779
  512loPI   C1B 8189  14.748  13.237   9.116  0.3429  0.0400 -0.1078
  512loPI   C2B 8190  14.858  13.254   8.666 -0.0449  0.0407 -0.0221
  512loPI   C3B 8191  14.913  13.049   8.245 -0.1443  0.1729 -0.0259
  512loPI   C4B 8192  15.072  13.380   7.891  0.3985 -0.0312 -0.0519
  513loPI    C1 8193  12.863   0.275   9.863 -0.2143  0.0362  0.1017
  513loPI    C2 8194  13.138   0.565   9.859 -0.1389 -0.0311  0.3136
  513loPI    C3 8195  12.751   0.657   9.821 -0.0938  0.0701  0.0841
  513loPI   PO4 8196  13.005   0.052   9.759  0.1206 -0.0728 -0.2601
  513loPI   GL1 8197  13.168  -0.038   9.320  0.2462 -0.0321 -0.0806
  513loPI   GL2 8198  13.431   0.066   9.501 -0.1079 -0.2433  0.2700
  513loPI   C1A 8199  12.929  -0.031   8.924  0.3322  0.0246  0.1639
  513loPI   C2A 8200  12.805  -0.008   8.473  0.2449 -0.1875  0.2414
  513loPI   C3A 8201  12.726   0.094   8.016 -0.1901 -0.5297 -0.3115
  513loPI   C4A 8202  12.740   0.389   7.679 -0.2153  0.0974  0.5238
  513loPI   C5A 8203  12.893   0.833   7.442  0.1781  0.2639 -0.1793
  513loPI   C6A 8204  13.232   1.252   7.592 -0.1374  0.1095 -0.0477
  513loPI   C1B 8205  13.308   0.400   9.091  0.0411  0.2479  0.1794
  513loPI   C2B 8206  13.165   0.391   8.646  0.0539  0.3025 -0.2030
  513loPI   C3B 8207  13.136   0.507   8.267 -0.0382  0.0208  0.3554
  513loPI   C4B 8208  13.145   0.775   8.016 -0.1357  0.4027  0.0507
  514loPI    C1 8209   7.406  10.497  10.331 -0.0388  0.0067  0.1654
  514loPI    C2 8210   7.632  10.204  10.483 -0.2276 -0.0990  0.2461
  514loPI    C3 8211   7.260  10.259  10.617 -0.2247  0.1221  0.1679
  514loPI   PO4 8212   7.374  10.455  10.057 -0.0368 -0.1870 -0.0892
  514loPI   GL1 8213   7.394  10.594   9.645 -0.0499  0.1500 -0.1940
  514loPI   GL2 8214   7.669  10.522   9.298 -0.0117  0.2705  0.0296
  514loPI   C1A 8215   7.222  10.637   9.211  0.0859 -0.0253  0.2037
  514loPI   C2A 8216   7.109  10.661   8.842  0.0169  0.1829 -0.0856
  514loPI   C3A 8217   6.906  10.677   8.475  0.0379 -0.0321  0.3837
  514loPI   C4A 8218   6.948  10.779   8.007 -0.0320  0.1961 -0.6152
  514loPI   C5A 8219   6.770  10.645   7.562  0.2667 -0.1029  0.0364
  514loPI   C6A 8220   6.992  10.609   7.062 -0.2203 -0.1086 -0.0792
  514loPI   C1B 8221   7.706  10.693   8.973  0.0709  0.0722  0.1491
  514loPI   C2B 8222   7.757  10.851   8.605  0.3544 -0.2200 -0.4862
  514loPI   C3B 8223   7.751  11.088   8.268  0.1351  0.0854  0.1477
  514loPI   C4B 8224   8.060  11.366   8.234 -0.1251  0.0180  0.2680
  515loPI    C1 8225  13.212   9.470   9.744 -0.1396  0.0137 -0.1063
  515loPI    C2 8226  12.883   9.409   9.963 -0.0575  0.0531  0.0288
  515loPI    C3 8227  13.234   9.258  10.082 -0.0143  0.0666 -0.0807
  515loPI   PO4 8228  13.165   9.449   9.482  0.3743 -0.1194  0.0068
  515loPI   GL1 8229  13.407   9.645   9.215 -0.1889  0.0072  0.0931
  515loPI   GL2 8230  13.648   9.605   9.258  0.0672  0.0414  0.2600
  515loPI   C1A 8231  13.438   9.503   8.784 -0.1195  0.1243  0.0314
  515loPI   C2A 8232  13.391   9.129   8.613  0.2363 -0.0857  0.3134
  515loPI   C3A 8233  13.465   9.087   8.182 -0.3293  0.0394 -0.1513
  515loPI   C4A 8234  13.147   8.976   7.895  0.2850  0.1131 -0.0612
  515loPI   C5A 8235  13.027   8.700   7.634 -0.1015 -0.1524  0.1745
  515loPI   C6A 8236  12.825   8.756   7.211  0.4008 -0.2440  0.2336
  515loPI   C1B 8237  13.992   9.742   9.073 -0.0956 -0.1503  0.3553
  515loPI   C2B 8238  13.808   9.878   8.697  0.0651  0.1861 -0.1063
  515loPI   C3B 8239  13.615   9.903   8.330 -0.4173  0.0261 -0.1300
  515loPI   C4B 8240  13.378   9.561   8.218  0.0706 -0.0092 -0.0844
  516loPI    C1 8241  10.161  18.730   9.556 -0.0762 -0.0746 -0.0297
  516loPI    C2 8242  10.450  18.755   9.280 -0.0608 -0.1071 -0.0166
  516loPI    C3 8243  10.235  18.419   9.315  0.1247 -0.2059  0.1973
  516loPI   PO4 8244  10.083  19.061   9.514  0.2447  0.2196 -0.0252
  516loPI   GL1 8245  10.018  19.388   9.201  0.1924 -0.0066  0.2550
  516loPI   GL2 8246   9.726  19.391   9.175  0.2665  0.0693  0.0913
  516loPI   C1A 8247  10.180  19.312   8.809 -0.1601  0.0244  0.3082
  516loPI   C2A 8248  10.153  19.446   8.400  0.0616  0.2319 -0.1525
  516loPI   C3A 8249  10.393  19.226   8.050  0.1260 -0.0369 -0.1811
  516loPI   C4A 8250  10.476  19.070   7.671  0.4771 -0.0425 -0.2146
  516loPI   C5A 8251  10.781  18.934   7.533 -0.0703  0.2744 -0.0669
  516loPI   C6A 8252  11.208  18.999   7.266 -0.0818  0.0104 -0.0985
  516loPI   C1B 8253   9.628  19.340   8.810  0.1107 -0.2616 -0.0521
  516loPI   C2B 8254   9.588  19.485   8.399 -0.0092  0.2573 -0.1538
  516loPI   C3B 8255   9.686  19.658   8.016  0.0297  0.2656 -0.0754
  516loPI   C4B 8256   9.620  19.634   7.559  0.2353  0.0500 -0.1809
  517loPI    C1 8257  15.498  10.659   9.797  0.1024 -0.0142 -0.1432
  517loPI    C2 8258  15.864  10.796   9.883  0.0858 -0.0507 -0.0131
  517loPI    C3 8259  15.679  10.547  10.136 -0.1040  0.1121  0.0108
  517loPI   PO4 8260  15.438  10.474   9.534  0.0236 -0.0587 -0.1765
  517loPI   GL1 8261  15.463  10.392   9.138  0.0777 -0.1128  0.0262
  517loPI   GL2 8262  15.783  10.186   9.107 -0.3950  0.0736  0.0199
  517loPI   C1A 8263  15.112  10.247   8.937  0.0377  0.2560  0.1797
  517loPI   C2A 8264  14.917  10.193   8.648 -0.3679 -0.1297  0.0475
  517loPI   C3A 8265  14.811  10.348   8.190 -0.1233 -0.1926 -0.1285
  517loPI   C4A 8266  14.890  10.563   7.885  0.2865  0.0169 -0.1432
  517loPI   C5A 8267  15.158  10.892   7.758  0.1029  0.3407  0.1074
  517loPI   C6A 8268  15.337  11.090   7.501  0.2637 -0.1527 -0.2604
  517loPI   C1B 8269  15.744  10.070   8.578 -0.3552 -0.2892 -0.0600
  517loPI   C2B 8270  15.812  10.300   8.196  0.0616 -0.0374  0.0953
  517loPI   C3B 8271  15.670  10.763   8.041 -0.1314 -0.0846  0.0816
  517loPI   C4B 8272  15.485  11.169   8.047 -0.1642 -0.0230 -0.0077
  518loPI    C1 8273  16.781  12.173  10.013  0.0101 -0.0748 -0.1694
  518loPI    C2 8274  17.027  11.859  10.042 -0.0804 -0.1329 -0.0207
  518loPI    C3 8275  17.014  12.131  10.336 -0.0448 -0.0209 -0.1223
  518loPI   PO4 8276  16.757  12.227   9.724 -0.2279  0.1678  0.0287
  518loPI   GL1 8277  17.007  12.226   9.300 -0.2316  0.1505 -0.3312
  518loPI   GL2 8278  16.960  12.537   9.435  0.3375 -0.0193 -0.1068
  518loPI   C1A 8279  16.979  12.325   8.955 -0.0310 -0.0587  0.1946
  518loPI   C2A 8280  16.815  12.515   8.590 -0.6675 -0.0410 -0.2373
  518loPI   C3A 8281  16.597  12.529   8.231 -0.2025  0.2712  0.1678
  518loPI   C4A 8282  16.431  12.396   7.849 -0.2528 -0.1129  0.1450
  518loPI   C5A 8283  16.282  12.232   7.359  0.1354  0.1890  0.0164
  518loPI   C6A 8284  15.909  12.243   7.266  0.1200 -0.1569  0.0411
  518loPI   C1B 8285  17.082  12.892   9.134  0.0875  0.0313  0.2006
  518loPI   C2B 8286  17.159  13.295   8.907 -0.0695 -0.0191  0.2733
  518loPI   C3B 8287  17.065  13.383   8.456  0.0712 -0.3992  0.3501
  518loPI   C4B 8288  17.121  13.413   8.008  0.0342  0.0815 -0.3964
  519loPI    C1 8289   6.351  10.640   9.795  0.1385  0.4228  0.0105
  519loPI    C2 8290   6.009  10.603   9.998 -0.0059  0.3570 -0.2407
  519loPI    C3 8291   6.327  10.382  10.100 -0.1166  0.2276 -0.1710
  519loPI   PO4 8292   6.207  10.629   9.488  0.1170  0.2097  0.1274
  519loPI   GL1 8293   6.219  10.469   9.162  0.2097  0.0057 -0.0294
  519loPI   GL2 8294   5.845  10.415   9.199  0.3225 -0.1165  0.3539
  519loPI   C1A 8295   6.361  10.278   8.785 -0.0883 -0.1572 -0.1392
  519loPI   C2A 8296   6.417  10.225   8.373 -0.1460 -0.3437  0.1342
  519loPI   C3A 8297   6.693  10.380   8.091  0.4633  0.0991  0.2369
  519loPI   C4A 8298   6.948  10.229   7.731  0.2060 -0.1692 -0.3286
  519loPI   C5A 8299   6.753  10.247   7.294 -0.0312  0.1683 -0.2301
  519loPI   C6A 8300   6.371  10.093   7.073 -0.0889  0.2290 -0.0669
  519loPI   C1B 8301   5.931  10.670   8.808  0.2252  0.2775 -0.1976
  519loPI   C2B 8302   5.939  10.801   8.318  0.0546  0.0070 -0.0921
  519loPI   C3B 8303   5.754  10.804   7.886 -0.0530  0.3780  0.1426
  519loPI   C4B 8304   5.673  11.115   7.530 -0.2102  0.1433 -0.1156
  520loPI    C1 8305  15.986   9.803   9.946 -0.2782 -0.0463 -0.0023
  520loPI    C2 8306  16.365   9.702  10.019 -0.1365  0.2368 -0.3178
  520loPI    C3 8307  16.068   9.503  10.197  0.1593  0.0839  0.0190
  520loPI   PO4 8308  16.140   9.826   9.520  0.2724 -0.0325 -0.3510
  520loPI   GL1 8309  16.308   9.922   9.121  0.0155  0.2256  0.1295
  520loPI   GL2 8310  16.237  10.342   9.231  0.1022  0.3024 -0.3147
  520loPI   C1A 8311  16.252  10.033   8.671  0.0421  0.0374  0.0935
  520loPI   C2A 8312  16.327  10.093   8.192 -0.1076  0.0376  0.0143
  520loPI   C3A 8313  16.256  10.316   7.874 -0.1732  0.1881 -0.1318
  520loPI   C4A 8314  16.182  10.301   7.407  0.1281 -0.1612  0.2248
  520loPI   C5A 8315  15.999  10.492   7.039  0.1159 -0.2420 -0.0617
  520loPI   C6A 8316  16.146  10.686   6.557 -0.0223  0.1988 -0.0044
  520loPI   C1B 8317  16.086  10.548   8.949 -0.1132 -0.1312 -0.2852
  520loPI   C2B 8318  16.177  10.902   8.886  0.0895  0.3121  0.1937
  520loPI   C3B 8319  16.224  11.197   8.608  0.0137 -0.0055  0.3062
  520loPI   C4B 8320  16.224  11.339   8.201 -0.1275  0.1406 -0.3311
  521loPI    C1 8321  16.752   5.767   9.262  0.0079  0.0070 -0.2296
  521loPI    C2 8322  16.910   5.841   9.621 -0.2549  0.0179 -0.1140
  521loPI    C3 8323  16.905   5.467   9.479 -0.3056 -0.0134 -0.0306
  521loPI   PO4 8324  16.741   6.035   9.103 -0.0017 -0.1405 -0.1343
  521loPI   GL1 8325  17.064   6.235   8.866 -0.0811  0.0958 -0.0705
  521loPI   GL2 8326  16.758   6.076   8.607  0.2786 -0.2157  0.1311
  521loPI   C1A 8327  17.361   6.245   8.525  0.1733  0.1740  0.0618
  521loPI   C2A 8328  17.448   6.169   8.160  0.0515 -0.0252 -0.2387
  521loPI   C3A 8329  17.587   6.194   7.722  0.1116  0.0535  0.1008
  521loPI   C4A 8330  17.885   6.345   7.324 -0.0476  0.0356 -0.0280
  521loPI   C5A 8331  18.137   6.500   6.954  0.2391  0.1793 -0.0462
  521loPI   C6A 8332  18.429   6.544   6.673  0.0934 -0.0494 -0.1175
  521loPI   C1B 8333  16.965   6.079   8.204  0.0284  0.0027  0.0860
  521loPI   C2B 8334  17.022   6.110   7.789  0.2722 -0.0966 -0.3409
  521loPI   C3B 8335  17.165   6.280   7.470 -0.0367  0.2834  0.0442
  521loPI   C4B 8336  17.435   6.570   7.213  0.1200 -0.1743 -0.1615
  522loPI    C1 8337   6.229   6.964   9.564  0.1028 -0.1403  0.0421
  522loPI    C2 8338   6.336   6.849   9.931  0.1172 -0.0770  0.0579
  522loPI    C3 8339   5.951   6.920   9.849  0.1297  0.0371  0.0968
  522loPI   PO4 8340   6.436   6.789   9.460  0.0814 -0.1372  0.2836
  522loPI   GL1 8341   6.582   6.911   8.974 -0.0117 -0.0712 -0.4408
  522loPI   GL2 8342   6.595   6.642   8.764  0.1196  0.0719  0.0017
  522loPI   C1A 8343   6.562   7.049   8.519  0.0213 -0.0913 -0.2548
  522loPI   C2A 8344   6.602   7.109   8.158 -0.0444 -0.2126  0.1775
  522loPI   C3A 8345   6.823   7.101   7.794 -0.2061  0.0190 -0.1439
  522loPI   C4A 8346   6.767   6.952   7.457 -0.4993  0.0668  0.0642
  522loPI   C5A 8347   6.807   6.899   6.956  0.0440 -0.0775  0.1445
  522loPI   C6A 8348   6.608   6.747   6.653  0.0746 -0.0409 -0.0159
  522loPI   C1B 8349   6.092   6.796   8.568  0.2255 -0.0989 -0.0356
  522loPI   C2B 8350   6.044   6.815   8.048  0.0970  0.0703  0.0263
  522loPI   C3B 8351   6.041   7.242   7.704  0.0640  0.2991 -0.3393
  522loPI   C4B 8352   5.950   7.270   7.305 -0.1909  0.0007 -0.0011
  523loPI    C1 8353   0.049  11.684  10.331  0.0280  0.1775  0.0752
  523loPI    C2 8354  -0.196  11.506  10.592 -0.1587  0.1058 -0.1451
  523loPI    C3 8355   0.190  11.401  10.577 -0.1796  0.0051 -0.0010
  523loPI   PO4 8356  -0.109  11.621  10.065 -0.1991 -0.2695 -0.0171
  523loPI   GL1 8357  -0.155  11.777   9.731 -0.0337 -0.2822 -0.1495
  523loPI   GL2 8358  -0.445  11.832   9.590  0.1150 -0.0876  0.2343
  523loPI   C1A 8359   0.014  11.901   9.394  0.0078  0.1861  0.0655
  523loPI   C2A 8360  -0.089  11.808   9.015  0.1409 -0.0088 -0.4254
  523loPI   C3A 8361  -0.070  11.813   8.527  0.5272 -0.2480  0.1553
  523loPI   C4A 8362  -0.127  12.092   8.231  0.1112 -0.0910 -0.1129
  523loPI   C5A 8363  -0.009  12.098   7.835 -0.2752 -0.0902 -0.0034
  523loPI   C6A 8364   0.081  12.061   7.414 -0.1846  0.3119 -0.2034
  523loPI   C1B 8365  -0.448  12.095   9.150  0.0815 -0.2230 -0.0820
  523loPI   C2B 8366  -0.438  12.112   8.796  0.2169 -0.3690 -0.3415
  523loPI   C3B 8367  -0.580  11.986   8.419 -0.2689  0.0252 -0.1737
  523loPI   C4B 8368  -0.579  12.017   8.012  0.0074 -0.1630 -0.2568
  524loPI    C1 8369  18.433   1.177   9.831  0.0123  0.0303  0.0443
  524loPI    C2 8370  18.281   0.819   9.735 -0.0188  0.0579 -0.0096
  524loPI    C3 8371  18.403   0.891  10.110  0.0032 -0.0147 -0.0026
  524loPI   PO4 8372  18.365   1.273   9.526  0.1163 -0.1973  0.0407
  524loPI   GL1 8373  18.426   1.425   9.169 -0.3897 -0.0227 -0.3389
  524loPI   GL2 8374  18.687   1.195   9.112 -0.0424 -0.0042  0.1557
  524loPI   C1A 8375  18.193   1.616   8.860  0.1713  0.0164  0.4144
  524loPI   C2A 8376  18.357   1.626   8.401 -0.3619 -0.0231  0.1615
  524loPI   C3A 8377  18.106   1.471   8.073 -0.1795  0.0583  0.2700
  524loPI   C4A 8378  17.755   1.651   7.802 -0.1459 -0.0887  0.0011
  524loPI   C5A 8379  17.619   2.032   7.676  0.0587 -0.2978 -0.0149
  524loPI   C6A 8380  17.386   2.338   7.792 -0.1866 -0.2805  0.1840
  524loPI   C1B 8381  18.535   1.177   8.679  0.1003 -0.0193  0.1697
  524loPI   C2B 8382  18.474   1.129   8.222  0.0302 -0.0099  0.4620
  524loPI   C3B 8383  18.344   1.177   7.811  0.0028  0.0045  0.2781
  524loPI   C4B 8384  18.010   1.329   7.585 -0.1096 -0.1603 -0.2534
  525loPI    C1 8385  17.412   1.514   9.727 -0.1275 -0.0830  0.1028
  525loPI    C2 8386  17.539   1.885   9.807 -0.1256 -0.0851  0.1095
  525loPI    C3 8387  17.725   1.571   9.969  0.1077 -0.1060 -0.1897
  525loPI   PO4 8388  17.302   1.538   9.554 -0.1576 -0.0690  0.2332
  525loPI   GL1 8389  17.061   1.314   9.093 -0.0975  0.1197 -0.2102
  525loPI   GL2 8390  17.323   1.531   8.996  0.2664 -0.0371 -0.0683
  525loPI   C1A 8391  16.898   1.568   8.739 -0.0763  0.1535  0.2036
  525loPI   C2A 8392  17.032   1.597   8.338 -0.1313 -0.1826 -0.2783
  525loPI   C3A 8393  17.037   1.510   7.912  0.1636  0.0484 -0.1281
  525loPI   C4A 8394  17.282   1.689   7.492 -0.1193 -0.5044  0.2258
  525loPI   C5A 8395  17.134   2.052   7.305 -0.3665 -0.0683 -0.2387
  525loPI   C6A 8396  17.081   2.345   7.362 -0.0955  0.0725  0.4815
  525loPI   C1B 8397  17.380   1.384   8.626  0.0588  0.2080  0.2602
  525loPI   C2B 8398  17.524   1.391   8.162 -0.0691  0.0414 -0.0048
  525loPI   C3B 8399  17.512   1.186   7.786 -0.2176  0.1734  0.1204
  525loPI   C4B 8400  17.233   1.191   7.436 -0.2439 -0.0857 -0.1952
  526loPI    C1 8401   8.920  14.025   9.699  0.1073 -0.3410  0.0098
  526loPI    C2 8402   9.236  14.197   9.874 -0.1706  0.1021  0.0900
  526loPI    C3 8403   9.020  13.926  10.074  0.2427 -0.3229 -0.0207
  526loPI   PO4 8404   8.726  14.281   9.491 -0.3537  0.0302 -0.0876
  526loPI   GL1 8405   8.797  14.579   9.202  0.0018  0.2118  0.3294
  526loPI   GL2 8406   8.742  14.872   9.260 -0.2281  0.1605 -0.0382
  526loPI   C1A 8407   8.623  14.543   8.829  0.1540 -0.2851 -0.1425
  526loPI   C2A 8408   8.741  14.828   8.452  0.1401  0.1101 -0.2706
  526loPI   C3A 8409   8.861  14.730   8.050 -0.0385 -0.1908  0.1056
  526loPI   C4A 8410   9.002  14.695   7.607  0.4863  0.1554  0.1978
  526loPI   C5A 8411   9.044  14.911   7.281  0.1752  0.3272  0.0227
  526loPI   C6A 8412   8.928  15.038   6.918 -0.0836 -0.0254 -0.1411
  526loPI   C1B 8413   8.541  15.112   8.898  0.1834 -0.1253 -0.3650
  526loPI   C2B 8414   8.438  15.203   8.461 -0.0679  0.0551 -0.0312
  526loPI   C3B 8415   8.444  15.079   8.071  0.1246  0.0814 -0.2413
  526loPI   C4B 8416   8.707  15.087   7.712 -0.1674 -0.2514  0.0992
  527loPI    C1 8417   9.042   5.864   9.171 -0.0990 -0.0387 -0.0180
  527loPI    C2 8418   9.340   5.599   9.186  0.0772  0.1487 -0.1623
  527loPI    C3 8419   9.197   5.757   9.524  0.0399 -0.0524 -0.0828
  527loPI   PO4 8420   8.926   5.780   8.924 -0.2086 -0.0128  0.0058
  527loPI   GL1 8421   9.006   5.792   8.435  0.1662  0.3125 -0.3938
  527loPI   GL2 8422   8.825   6.051   8.490 -0.0308 -0.2436 -0.0707
  527loPI   C1A 8423   9.108   5.974   7.994 -0.2353 -0.2016  0.1062
  527loPI   C2A 8424   9.320   5.705   7.691 -0.2612  0.3042  0.0720
  527loPI   C3A 8425   9.323   5.314   7.392  0.0947  0.0803  0.0632
  527loPI   C4A 8426   9.092   4.922   7.135  0.0094  0.1504 -0.2007
  527loPI   C5A 8427   9.094   4.442   7.231 -0.0349 -0.0812 -0.2013
  527loPI   C6A 8428   9.046   4.031   7.253 -0.0589  0.3512 -0.0547
  527loPI   C1B 8429   8.848   6.392   8.195 -0.0374 -0.0000  0.0777
  527loPI   C2B 8430   8.891   6.319   7.701 -0.1695  0.1920 -0.2120
  527loPI   C3B 8431   8.803   6.329   7.262 -0.3310 -0.1386 -0.1135
  527loPI   C4B 8432   8.982   6.096   6.845 -0.1949  0.2243  0.2812
  528loPI    C1 8433  14.686  15.470  10.135 -0.2874  0.3092  0.2179
  528loPI    C2 8434  14.353  15.376  10.337 -0.3085  0.1462  0.1096
  528loPI    C3 8435  14.711  15.335  10.511 -0.3225 -0.0584  0.0928
  528loPI   PO4 8436  14.554  15.478   9.906 -0.0217  0.0487  0.1013
  528loPI   GL1 8437  14.545  15.306   9.554  0.1006 -0.3673 -0.6320
  528loPI   GL2 8438  14.258  15.455   9.521  0.2081  0.1044 -0.0400
  528loPI   C1A 8439  14.686  15.315   9.059 -0.1986  0.0636 -0.1495
  528loPI   C2A 8440  14.689  15.202   8.548  0.0072 -0.2350  0.0743
  528loPI   C3A 8441  14.596  15.176   8.178  0.0193  0.1067  0.2509
  528loPI   C4A 8442  14.596  14.926   7.715 -0.3111 -0.1697  0.3114
  528loPI   C5A 8443  14.636  14.622   7.393  0.3590 -0.2132  0.1609
  528loPI   C6A 8444  14.562  14.345   7.140  0.0914  0.1257 -0.1941
  528loPI   C1B 8445  14.353  15.640   9.200 -0.0700  0.0494  0.0949
  528loPI   C2B 8446  14.280  15.372   8.823  0.0975  0.1245  0.0892
  528loPI   C3B 8447  14.256  15.428   8.380 -0.0709 -0.1416  0.4464
  528loPI   C4B 8448  14.230  15.652   8.022 -0.2900 -0.2684 -0.0509
  529loPI    C1 8449  13.262  12.657  10.048 -0.0038  0.1883  0.2311
  529loPI    C2 8450  12.927  12.872  10.090 -0.0422  0.1428  0.1604
  529loPI    C3 8451  13.223  12.908  10.357 -0.1307  0.1331  0.2606
  529loPI   PO4 8452  13.278  12.687   9.794 -0.3933  0.3639  0.1327
  529loPI   GL1 8453  13.108  12.880   9.582 -0.0107  0.2011 -0.3289
  529loPI   GL2 8454  13.358  12.896   9.326  0.0719 -0.0702  0.0715
  529loPI   C1A 8455  12.743  12.856   9.357  0.0073  0.2032  0.3894
  529loPI   C2A 8456  12.584  12.754   8.944  0.4030 -0.3539 -0.0742
  529loPI   C3A 8457  12.668  12.734   8.560  0.1341  0.2351  0.2327
  529loPI   C4A 8458  12.822  12.861   8.108 -0.1451 -0.0489  0.3122
  529loPI   C5A 8459  12.622  13.070   7.729  0.0883 -0.0241  0.0403
  529loPI   C6A 8460  12.364  12.855   7.515 -0.2640  0.1372 -0.0584
  529loPI   C1B 8461  13.392  12.913   8.887 -0.4247  0.2693  0.2743
  529loPI   C2B 8462  13.446  12.892   8.424  0.1271 -0.2373 -0.0941
  529loPI   C3B 8463  13.344  12.900   7.951  0.1130  0.0250 -0.3534
  529loPI   C4B 8464  13.161  13.091   7.688  0.3933 -0.0307 -0.1676
  530loPI    C1 8465   4.963  18.878  10.074 -0.0193  0.2609  0.0896
  530loPI    C2 8466   5.210  18.939  10.382  0.0053 -0.1481  0.1568
  530loPI    C3 8467   4.815  18.920  10.443 -0.0485  0.4513  0.0573
  530loPI   PO4 8468   4.981  19.007   9.862 -0.1932 -0.0264 -0.2950
  530loPI   GL1 8469   4.745  19.070   9.613  0.1480 -0.0255  0.0244
  530loPI   GL2 8470   4.962  18.933   9.376  0.2834 -0.1254  0.0894
  530loPI   C1A 8471   4.398  19.142   9.278 -0.1707  0.1977 -0.0990
  530loPI   C2A 8472   4.253  19.088   8.836  0.3054  0.1781 -0.2417
  530loPI   C3A 8473   4.103  19.233   8.367 -0.2309  0.1601  0.2196
  530loPI   C4A 8474   4.055  19.296   7.907  0.1271 -0.0868 -0.1243
  530loPI   C5A 8475   3.965  19.302   7.438  0.6131 -0.2436  0.1676
  530loPI   C6A 8476   3.743  19.647   7.205 -0.1378 -0.0042  0.1800
  530loPI   C1B 8477   4.803  19.038   8.998  0.0620 -0.0074  0.1875
  530loPI   C2B 8478   4.620  18.941   8.584 -0.2022  0.0807 -0.0447
  530loPI   C3B 8479   4.499  18.868   8.168 -0.0939 -0.1320  0.2004
  530loPI   C4B 8480   4.465  18.876   7.823  0.0702 -0.3028  0.2187
  531loPI    C1 8481  18.047  15.142  10.332 -0.1125  0.2318 -0.0175
  531loPI    C2 8482  18.255  14.902  10.576 -0.1379  0.2456  0.0176
  531loPI    C3 8483  18.306  15.299  10.594  0.0834  0.2301 -0.2069
  531loPI   PO4 8484  18.134  15.120  10.061 -0.3677  0.1204 -0.0337
  531loPI   GL1 8485  17.982  14.897   9.767 -0.1717  0.0065 -0.0935
  531loPI   GL2 8486  17.888  14.608   9.776  0.0704  0.2692  0.1255
  531loPI   C1A 8487  17.755  15.046   9.313 -0.3832 -0.1460 -0.1247
  531loPI   C2A 8488  17.864  15.149   8.976  0.1216  0.3236  0.3360
  531loPI   C3A 8489  17.846  15.405   8.557  0.0555  0.0184  0.2150
  531loPI   C4A 8490  17.685  15.356   8.119 -0.2002  0.2908 -0.1753
  531loPI   C5A 8491  17.530  15.158   7.856 -0.0880  0.0074 -0.4627
  531loPI   C6A 8492  17.157  15.095   7.949  0.0750 -0.0846  0.0953
  531loPI   C1B 8493  18.164  14.659   9.374 -0.0806  0.0964 -0.1876
  531loPI   C2B 8494  18.064  14.712   8.936 -0.2351 -0.3393  0.1572
  531loPI   C3B 8495  18.007  14.849   8.610  0.0179 -0.1477  0.0401
  531loPI   C4B 8496  18.156  15.084   8.205  0.1936 -0.0101 -0.1865
  532loPI    C1 8497  10.853  11.124  10.159  0.0941  0.1925  0.0832
  532loPI    C2 8498  10.922  11.487  10.313 -0.0431  0.1752  0.1875
  532loPI    C3 8499  10.981  11.160  10.536  0.2815  0.1205  0.0276
  532loPI   PO4 8500  10.592  11.215   9.952 -0.2412 -0.1980  0.1167
  532loPI   GL1 8501  10.694  11.144   9.479 -0.0854  0.0327 -0.1288
  532loPI   GL2 8502  10.750  11.401   9.408  0.0457 -0.0921 -0.0654
  532loPI   C1A 8503  10.422  11.043   9.167 -0.0357  0.2052  0.3359
  532loPI   C2A 8504  10.327  11.193   8.733 -0.0303 -0.2133  0.1308
  532loPI   C3A 8505  10.382  11.075   8.311 -0.1352 -0.0430 -0.6925
  532loPI   C4A 8506  10.598  11.052   7.942 -0.1991 -0.3432  0.1140
  532loPI   C5A 8507  10.624  11.246   7.539 -0.3293 -0.2482 -0.2367
  532loPI   C6A 8508  10.444  11.145   7.174  0.1074  0.2381 -0.4447
  532loPI   C1B 8509  10.715  11.438   9.049  0.2598 -0.1075  0.0156
  532loPI   C2B 8510  10.592  11.598   8.550 -0.1005 -0.0459  0.0201
  532loPI   C3B 8511  10.531  11.550   8.067  0.0139 -0.1109  0.2845
  532loPI   C4B 8512  10.369  11.659   7.693  0.0419  0.2565 -0.0835
  533loPI    C1 8513  13.579   3.748   9.357  0.1574 -0.1182  0.1833
  533loPI    C2 8514  13.285   3.481   9.305  0.1292 -0.0169 -0.2047
  533loPI    C3 8515  13.319   3.676   9.652 -0.1458 -0.1685 -0.0900
  533loPI   PO4 8516  13.545   3.865   9.116 -0.1342 -0.0282 -0.1134
  533loPI   GL1 8517  13.323   3.941   8.802  0.0327 -0.0929  0.3898
  533loPI   GL2 8518  13.041   3.857   8.538  0.0625 -0.1217 -0.0821
  533loPI   C1A 8519  13.521   4.031   8.399 -0.0513  0.1487  0.0162
  533loPI   C2A 8520  13.686   3.879   8.068  0.0638  0.0017  0.2643
  533loPI   C3A 8521  13.866   3.855   7.700 -0.1879  0.5944 -0.0492
  533loPI   C4A 8522  14.030   3.521   7.410 -0.1823 -0.0589 -0.1747
  533loPI   C5A 8523  13.945   3.401   6.944  0.0010  0.1737  0.0491
  533loPI   C6A 8524  13.721   3.641   6.752  0.0782 -0.0130 -0.1759
  533loPI   C1B 8525  12.933   3.854   8.134 -0.0663  0.1165  0.4823
  533loPI   C2B 8526  12.665   3.877   7.702 -0.2467 -0.0909 -0.5818
  533loPI   C3B 8527  12.472   3.836   7.200  0.0130  0.1217  0.2737
  533loPI   C4B 8528  12.434   4.178   6.840  0.0337  0.0946 -0.1045
  534loPI    C1 8529  12.133  18.934  10.167 -0.0753  0.0716  0.1461
  534loPI    C2 8530  12.245  19.174  10.466  0.5425 -0.0979  0.0648
  534loPI    C3 8531  12.364  18.792  10.461 -0.0351 -0.2861 -0.0521
  534loPI   PO4 8532  12.034  19.177   9.895 -0.0648 -0.2538 -0.1108
  534loPI   GL1 8533  12.060  19.022   9.474  0.0147  0.0134  0.0906
  534loPI   GL2 8534  11.725  19.083   9.365 -0.2645  0.0668  0.0148
  534loPI   C1A 8535  12.270  19.196   9.028 -0.4229 -0.0636  0.1513
  534loPI   C2A 8536  12.389  19.533   8.774  0.1654  0.2749  0.0672
  534loPI   C3A 8537  12.276  19.482   8.270 -0.0997  0.0687  0.3264
  534loPI   C4A 8538  12.034  19.564   7.803  0.0448 -0.0853 -0.1791
  534loPI   C5A 8539  12.089  19.919   7.616  0.2387 -0.0505  0.3227
  534loPI   C6A 8540  12.327  20.178   7.396  0.2504 -0.2818 -0.0783
  534loPI   C1B 8541  11.310  19.158   9.207  0.0882  0.0786 -0.0231
  534loPI   C2B 8542  11.180  19.324   8.799 -0.1290 -0.0521 -0.1686
  534loPI   C3B 8543  11.469  19.636   8.579  0.2931  0.1344 -0.3429
  534loPI   C4B 8544  11.733  19.616   8.231 -0.3575 -0.0129  0.1140
  535loPI    C1 8545  14.466   2.946   9.602 -0.0200  0.5766  0.1252
  535loPI    C2 8546  14.114   3.045   9.439 -0.0106  0.1371 -0.1805
  535loPI    C3 8547  14.126   2.809   9.762  0.0055 -0.0754 -0.3336
  535loPI   PO4 8548  14.587   2.919   9.354 -0.1927 -0.0200  0.0765
  535loPI   GL1 8549  14.601   2.566   8.929 -0.0399  0.2418  0.1034
  535loPI   GL2 8550  14.263   2.694   8.961 -0.1971  0.3585  0.0518
  535loPI   C1A 8551  14.387   2.458   8.474  0.0290 -0.1136  0.0653
  535loPI   C2A 8552  14.384   2.520   8.019 -0.0469  0.0363 -0.4145
  535loPI   C3A 8553  14.431   2.725   7.721  0.1525 -0.0328  0.0251
  535loPI   C4A 8554  14.361   2.758   7.322  0.0754 -0.1293 -0.0203
  535loPI   C5A 8555  14.250   2.909   7.004  0.0386 -0.2760 -0.2251
  535loPI   C6A 8556  13.844   2.931   6.650  0.1391  0.1287  0.1307
  535loPI   C1B 8557  14.398   2.959   8.611  0.0830  0.2714  0.2318
  535loPI   C2B 8558  14.421   3.042   8.219  0.5332 -0.0507  0.1896
  535loPI   C3B 8559  14.214   3.128   7.899  0.2812 -0.1147  0.0552
  535loPI   C4B 8560  13.980   2.987   7.581 -0.3324  0.2188  0.2042
  536loPI    C1 8561  17.895   6.006   9.475 -0.1102  0.1261  0.1632
  536loPI    C2 8562  17.578   6.173   9.653 -0.0970  0.0095  0.2985
  536loPI    C3 8563  17.840   5.962   9.869  0.1479  0.2182  0.2116
  536loPI   PO4 8564  17.829   5.957   9.306  0.0450 -0.0689  0.1669
  536loPI   GL1 8565  17.805   5.537   9.129 -0.1789 -0.1630 -0.0648
  536loPI   GL2 8566  18.154   5.607   9.155  0.1286  0.0319 -0.1529
  536loPI   C1A 8567  17.872   5.556   8.647 -0.0649  0.0176 -0.0081
  536loPI   C2A 8568  17.851   5.469   8.204 -0.0426 -0.1077  0.5418
  536loPI   C3A 8569  17.877   5.406   7.635 -0.4077  0.0349 -0.0036
  536loPI   C4A 8570  17.964   5.375   7.122 -0.1716 -0.1687 -0.0769
  536loPI   C5A 8571  17.680   5.517   6.746  0.3042 -0.0588  0.0652
  536loPI   C6A 8572  17.461   5.773   6.401 -0.1327 -0.1141 -0.1632
  536loPI   C1B 8573  18.254   5.322   8.897  0.0057  0.2670  0.1489
  536loPI   C2B 8574  18.278   5.234   8.432  0.1357  0.1234 -0.0255
  536loPI   C3B 8575  18.245   5.306   7.925 -0.0076  0.0388  0.1577
  536loPI   C4B 8576  18.420   5.222   7.472  0.0604 -0.5095 -0.1540
  537loPI    C1 8577   9.852   2.367  10.044  0.0687  0.1614 -0.2214
  537loPI    C2 8578   9.478   2.264  10.140  0.2488 -0.3389 -0.0275
  537loPI    C3 8579   9.728   2.396  10.423  0.1818  0.1395 -0.1823
  537loPI   PO4 8580   9.816   2.434   9.733 -0.0304  0.0467  0.1740
  537loPI   GL1 8581   9.603   2.752   9.470 -0.1320 -0.3238 -0.0889
  537loPI   GL2 8582   9.835   2.913   9.534 -0.1093 -0.0647  0.2108
  537loPI   C1A 8583   9.485   2.625   9.166  0.4026 -0.0837 -0.3514
  537loPI   C2A 8584   9.476   2.685   8.793  0.3859  0.0267  0.5803
  537loPI   C3A 8585   9.486   2.705   8.279 -0.1291 -0.1370  0.0587
  537loPI   C4A 8586   9.482   2.744   7.780 -0.2744  0.0902  0.1328
  537loPI   C5A 8587   9.418   2.922   7.530  0.0734 -0.1810 -0.0246
  537loPI   C6A 8588   9.115   3.157   7.163 -0.1892 -0.2459  0.2267
  537loPI   C1B 8589   9.865   2.895   9.062  0.2716  0.2145 -0.3030
  537loPI   C2B 8590   9.900   2.760   8.530  0.0078  0.2791  0.0818
  537loPI   C3B 8591   9.905   2.850   8.101 -0.1375  0.1945 -0.1429
  537loPI   C4B 8592   9.892   2.966   7.728  0.0079  0.0241  0.2312
  538loPI    C1 8593   6.794  17.315  10.168 -0.0591  0.1435  0.1851
  538loPI    C2 8594   6.429  17.320  10.006  0.0579  0.1985 -0.0820
  538loPI    C3 8595   6.495  17.117  10.344 -0.2314  0.2356 -0.0004
  538loPI   PO4 8596   6.945  17.267   9.951  0.1533  0.0669  0.1179
  538loPI   GL1 8597   6.773  17.394   9.596 -0.1305 -0.4835  0.1733
  538loPI   GL2 8598   6.976  17.141   9.402 -0.0911  0.0388 -0.1208
  538loPI   C1A 8599   6.665  17.626   9.239  0.0802  0.1525  0.0747
  538loPI   C2A 8600   6.545  17.582   8.813 -0.3258  0.0285  0.0484
  538loPI   C3A 8601   6.265  17.385   8.487 -0.0980 -0.2581 -0.4614
  538loPI   C4A 8602   6.354  17.326   8.111  0.0121 -0.0139  0.2450
  538loPI   C5A 8603   6.213  17.277   7.708 -0.2133  0.2241  0.0866
  538loPI   C6A 8604   6.117  17.527   7.270  0.1653 -0.0785 -0.1020
  538loPI   C1B 8605   6.665  17.043   9.181  0.3172  0.1629 -0.2976
  538loPI   C2B 8606   6.557  17.063   8.750  0.0287  0.0888 -0.3725
  538loPI   C3B 8607   6.683  16.952   8.280  0.3286  0.2448 -0.1952
  538loPI   C4B 8608   6.540  16.814   7.865 -0.0422  0.2963 -0.1656
  539loPI    C1 8609   0.418   3.461   9.734 -0.0535  0.0355  0.1051
  539loPI    C2 8610   0.558   3.100   9.833  0.0959 -0.0021 -0.2304
  539loPI    C3 8611   0.482   3.369  10.118  0.2418 -0.2036  0.0031
  539loPI   PO4 8612   0.240   3.424   9.571  0.0870 -0.0303 -0.1523
  539loPI   GL1 8613  -0.031   3.579   9.218 -0.1930 -0.1694 -0.0065
  539loPI   GL2 8614  -0.292   3.507   9.119  0.4264 -0.0716  0.2491
  539loPI   C1A 8615   0.189   3.918   8.948 -0.6078  0.1657 -0.0052
  539loPI   C2A 8616   0.212   3.994   8.522 -0.0488  0.2012  0.2227
  539loPI   C3A 8617   0.133   4.022   8.123 -0.0933  0.1975 -0.1208
  539loPI   C4A 8618   0.252   3.861   7.627 -0.1188  0.3484  0.1692
  539loPI   C5A 8619   0.420   3.770   7.276 -0.2273  0.0113  0.0695
  539loPI   C6A 8620   0.792   3.565   7.007 -0.1922  0.3692 -0.0308
  539loPI   C1B 8621   0.016   3.387   8.747  0.0521  0.0885  0.1031
  539loPI   C2B 8622   0.205   3.283   8.409 -0.0266  0.1590  0.1618
  539loPI   C3B 8623   0.189   3.067   7.938 -0.0164 -0.1589  0.0869
  539loPI   C4B 8624   0.489   2.797   7.656 -0.2246 -0.1960 -0.1054
  540loPI    C1 8625   7.881  15.967  10.071 -0.1127 -0.0741 -0.0234
  540loPI    C2 8626   7.669  15.715  10.298 -0.0651  0.0862  0.2037
  540loPI    C3 8627   7.820  16.048  10.458  0.2201  0.0561  0.0049
  540loPI   PO4 8628   7.801  15.780   9.795 -0.1733 -0.2055 -0.0772
  540loPI   GL1 8629   7.923  16.015   9.413 -0.3345 -0.0189 -0.0036
  540loPI   GL2 8630   7.635  15.759   9.329  0.0680  0.1135 -0.1204
  540loPI   C1A 8631   7.867  16.073   8.960  0.0080  0.2865 -0.0671
  540loPI   C2A 8632   7.917  16.198   8.627  0.0242 -0.2340  0.0954
  540loPI   C3A 8633   7.864  16.355   8.135  0.0309  0.0721 -0.3526
  540loPI   C4A 8634   7.891  16.401   7.722  0.3065 -0.0810  0.1186
  540loPI   C5A 8635   8.059  16.123   7.502 -0.0940  0.0518 -0.0824
  540loPI   C6A 8636   8.492  16.039   7.405  0.0696 -0.0901 -0.3153
  540loPI   C1B 8637   7.611  15.618   8.879 -0.2587  0.3958  0.0384
  540loPI   C2B 8638   7.677  15.683   8.427  0.1167 -0.2566 -0.0746
  540loPI   C3B 8639   7.354  15.705   8.063 -0.1970  0.1797  0.0164
  540loPI   C4B 8640   7.239  15.778   7.598  0.0611  0.0060 -0.2014
  541loPI    C1 8641   2.836  17.133   9.953  0.0216 -0.0144 -0.0518
  541loPI    C2 8642   2.448  17.034   9.955  0.0568 -0.1607 -0.2716
  541loPI    C3 8643   2.709  16.827  10.177  0.0045 -0.0374 -0.0931
  541loPI   PO4 8644   2.891  17.208   9.723  0.0078  0.1240 -0.4029
  541loPI   GL1 8645   2.901  17.071   9.323  0.0176  0.1176 -0.0536
  541loPI   GL2 8646   3.150  17.177   9.216 -0.0392 -0.1205 -0.3229
  541loPI   C1A 8647   3.060  16.971   8.741 -0.3204 -0.0230  0.2185
  541loPI   C2A 8648   3.147  17.038   8.353 -0.1433 -0.1577  0.3089
  541loPI   C3A 8649   3.089  17.171   7.867 -0.2453 -0.1053  0.0897
  541loPI   C4A 8650   3.122  17.422   7.489 -0.0843 -0.1921 -0.1334
  541loPI   C5A 8651   2.832  17.559   7.329  0.0605  0.1198  0.3943
  541loPI   C6A 8652   2.435  17.651   7.260 -0.0840  0.1263  0.0523
  541loPI   C1B 8653   3.054  17.518   8.816 -0.1192  0.3961 -0.2689
  541loPI   C2B 8654   3.127  17.524   8.299 -0.0654 -0.1655  0.1609
  541loPI   C3B 8655   3.229  17.723   7.920  0.0955  0.2074 -0.2601
  541loPI   C4B 8656   2.967  17.913   7.644 -0.0944 -0.2325  0.1133
  542loPI    C1 8657   6.656   0.503   9.791  0.0810 -0.0855 -0.2417
  542loPI    C2 8658   6.724   0.775  10.076  0.0277 -0.2524 -0.0673
  542loPI    C3 8659   6.714   0.387  10.170  0.0712 -0.3132 -0.3088
  542loPI   PO4 8660   6.772   0.625   9.617 -0.0510  0.2213  0.0217
  542loPI   GL1 8661   6.827   0.679   9.195 -0.2193 -0.2051  0.1459
  542loPI   GL2 8662   7.199   0.695   9.161  0.0220 -0.3895  0.0601
  542loPI   C1A 8663   6.815   1.090   9.013  0.3161  0.2667  0.1078
  542loPI   C2A 8664   6.700   1.355   8.684  0.0112  0.1878 -0.1028
  542loPI   C3A 8665   6.579   1.374   8.200  0.0001 -0.2429 -0.0189
  542loPI   C4A 8666   6.441   1.577   7.752  0.1934 -0.1094  0.2258
  542loPI   C5A 8667   6.290   1.688   7.394 -0.0326 -0.3563  0.1531
  542loPI   C6A 8668   6.539   1.953   7.086 -0.0542 -0.4410  0.1355
  542loPI   C1B 8669   7.180   0.430   8.994  0.1204  0.0047 -0.2207
  542loPI   C2B 8670   7.101   0.513   8.535 -0.1005  0.0976  0.0163
  542loPI   C3B 8671   7.093   0.454   8.140  0.0378 -0.0878 -0.1672
  542loPI   C4B 8672   7.000   0.523   7.581  0.3850  0.2210 -0.1081
  543loPI    C1 8673  17.639   6.874   9.288 -0.1270 -0.1998 -0.1146
  543loPI    C2 8674  17.514   6.672   9.610  0.0845 -0.1190  0.0196
  543loPI    C3 8675  17.518   7.072   9.614  0.1746 -0.1190 -0.0495
  543loPI   PO4 8676  17.527   6.821   9.082  0.2600 -0.2751  0.4296
  543loPI   GL1 8677  17.235   6.672   8.776 -0.1389  0.2628 -0.0112
  543loPI   GL2 8678  17.308   7.009   8.699 -0.1066 -0.0006  0.1678
  543loPI   C1A 8679  17.237   6.657   8.310  0.0274 -0.2929  0.1030
  543loPI   C2A 8680  17.766   6.535   8.101  0.3630 -0.2049 -0.1822
  543loPI   C3A 8681  17.978   6.637   7.728 -0.1256 -0.1215  0.0731
  543loPI   C4A 8682  18.428   6.718   7.486 -0.2278  0.1678  0.3372
  543loPI   C5A 8683  18.590   6.818   7.057  0.0417  0.3825 -0.0222
  543loPI   C6A 8684  18.575   6.997   6.612 -0.3088 -0.1619 -0.2673
  543loPI   C1B 8685  16.979   7.101   8.304  0.0708  0.1518  0.1292
  543loPI   C2B 8686  16.580   7.005   8.141 -0.2100  0.2175 -0.1565
  543loPI   C3B 8687  16.532   6.793   7.852 -0.1085 -0.3009  0.0041
  543loPI   C4B 8688  16.609   6.442   7.612 -0.1051 -0.2052 -0.1632
  544loPI    C1 8689  10.209  10.161  10.145 -0.0726  0.0598 -0.0221
  544loPI    C2 8690  10.247  10.427  10.441  0.1300 -0.1382  0.1338
  544loPI    C3 8691  10.418  10.067  10.473  0.4048 -0.0607 -0.3496
  544loPI   PO4 8692  10.213  10.248   9.955 -0.2075  0.6978  0.0181
  544loPI   GL1 8693  10.389  10.119   9.603 -0.0313  0.0480 -0.0857
  544loPI   GL2 8694  10.681   9.987   9.400 -0.2382  0.4339  0.3973
  544loPI   C1A 8695  10.329  10.189   9.171 -0.0493  0.0278 -0.2106
  544loPI   C2A 8696  10.290  10.566   8.889 -0.0222  0.0089 -0.1351
  544loPI   C3A 8697  10.061  10.748   8.584 -0.1106  0.3672  0.2009
  544loPI   C4A 8698  10.074  10.585   8.222 -0.2989 -0.4519 -0.0934
  544loPI   C5A 8699  10.281  10.648   7.918 -0.1765  0.0366 -0.2341
  544loPI   C6A 8700  10.167  11.093   7.709 -0.1051  0.0687  0.1090
  544loPI   C1B 8701  10.699   9.740   9.059  0.4903  0.1176 -0.1800
  544loPI   C2B 8702  10.849   9.769   8.623  0.1569  0.2793  0.4399
  544loPI   C3B 8703  10.921   9.810   8.230  0.0719  0.4987  0.1129
  544loPI   C4B 8704  10.886   9.482   7.807 -0.0455 -0.2698  0.0326
  545loPI    C1 8705  19.270   4.724   9.868  0.2742 -0.0939  0.0454
  545loPI    C2 8706  19.093   5.006  10.089 -0.0186  0.1170 -0.4412
  545loPI    C3 8707  19.090   4.625  10.211 -0.3323  0.2002 -0.1722
  545loPI   PO4 8708  19.270   4.746   9.594 -0.3802 -0.1052 -0.2430
  545loPI   GL1 8709  19.179   5.172   9.372  0.1462  0.0795  0.0289
  545loPI   GL2 8710  19.510   5.178   9.404  0.1215 -0.0835  0.2319
  545loPI   C1A 8711  19.181   5.267   8.908  0.0473  0.1206 -0.0395
  545loPI   C2A 8712  19.150   5.373   8.494  0.0450 -0.3823 -0.2488
  545loPI   C3A 8713  19.167   5.310   8.101 -0.1652  0.0384  0.2048
  545loPI   C4A 8714  19.285   5.213   7.789 -0.0026 -0.0082 -0.0739
  545loPI   C5A 8715  19.215   5.325   7.338 -0.2606  0.0341  0.0887
  545loPI   C6A 8716  18.943   5.555   7.033  0.0442 -0.0539 -0.2891
  545loPI   C1B 8717  19.671   4.956   9.148 -0.4590 -0.0284  0.2944
  545loPI   C2B 8718  19.634   5.004   8.669 -0.3130 -0.1265 -0.2383
  545loPI   C3B 8719  19.596   5.097   8.262  0.0853  0.1224 -0.1063
  545loPI   C4B 8720  19.744   4.890   7.791  0.2099 -0.2945 -0.2336
  546loPI    C1 8721   1.450   4.550  10.042  0.0600 -0.1228  0.0163
  546loPI    C2 8722   1.380   4.912  10.198  0.0323 -0.0461 -0.1712
  546loPI    C3 8723   1.544   4.625  10.424  0.0792  0.0911 -0.0292
  546loPI   PO4 8724   1.604   4.580   9.828 -0.0537  0.1888 -0.0966
  546loPI   GL1 8725   1.675   4.670   9.425 -0.1164  0.2079  0.0357
  546loPI   GL2 8726   1.425   4.856   9.333  0.0565 -0.3385  0.4240
  546loPI   C1A 8727   1.837   4.462   9.141 -0.2679  0.0915  0.1430
  546loPI   C2A 8728   1.884   4.401   8.617 -0.0237 -0.3312  0.0228
  546loPI   C3A 8729   1.693   4.657   8.246 -0.0855  0.1256 -0.2164
  546loPI   C4A 8730   1.520   4.697   7.788  0.2196 -0.1023  0.1632
  546loPI   C5A 8731   1.686   4.630   7.360 -0.3255  0.1675  0.2348
  546loPI   C6A 8732   1.862   4.479   7.066  0.0916 -0.3028 -0.3661
  546loPI   C1B 8733   1.278   4.638   9.054 -0.0994 -0.1200 -0.0775
  546loPI   C2B 8734   1.299   4.656   8.571 -0.2565 -0.2330  0.3147
  546loPI   C3B 8735   1.126   4.506   8.257  0.3557 -0.1051  0.0073
  546loPI   C4B 8736   1.107   4.046   8.249 -0.0094 -0.3412 -0.1275
  547loPI    C1 8737  13.152   5.228   9.160 -0.1444  0.1100 -0.3804
  547loPI    C2 8738  13.551   5.252   9.175 -0.1316 -0.2713  0.2711
  547loPI    C3 8739  13.328   5.472   9.424 -0.3312 -0.1204 -0.0349
  547loPI   PO4 8740  13.079   5.264   8.962 -0.0615  0.3822 -0.1004
  547loPI   GL1 8741  13.161   5.255   8.634  0.4142 -0.1746 -0.2128
  547loPI   GL2 8742  13.017   5.018   8.429 -0.1724 -0.1456 -0.0875
  547loPI   C1A 8743  13.374   5.344   8.282 -0.0308 -0.2904  0.0512
  547loPI   C2A 8744  13.494   5.252   7.904  0.0397  0.1182 -0.1024
  547loPI   C3A 8745  13.408   5.093   7.461  0.0466 -0.0017 -0.2029
  547loPI   C4A 8746  13.348   5.198   7.065  0.0436 -0.1122 -0.0638
  547loPI   C5A 8747  13.265   5.131   6.703  0.0837 -0.2152  0.0654
  547loPI   C6A 8748  13.216   5.451   6.474 -0.1579 -0.2398  0.1937
  547loPI   C1B 8749  12.924   5.228   8.109  0.1867  0.2243  0.3699
  547loPI   C2B 8750  12.960   5.287   7.702  0.0216  0.0303  0.0565
  547loPI   C3B 8751  13.151   5.523   7.329  0.1498 -0.1481 -0.1171
  547loPI   C4B 8752  13.250   5.649   6.930  0.0122 -0.3065 -0.0778
  548loPI    C1 8753  10.531  13.904  10.319  0.1416 -0.1278 -0.1591
  548loPI    C2 8754  10.252  13.666  10.479  0.1433 -0.0426 -0.0274
  548loPI    C3 8755  10.550  13.805  10.706  0.1393  0.0898 -0.1021
  548loPI   PO4 8756  10.607  13.669  10.095  0.3613  0.2284  0.0177
  548loPI   GL1 8757  10.623  13.553   9.589  0.4915 -0.2781 -0.0801
  548loPI   GL2 8758  10.318  13.413   9.574  0.2359 -0.2343  0.1257
  548loPI   C1A 8759  10.511  13.642   9.099  0.3909 -0.1343  0.0720
  548loPI   C2A 8760  10.645  13.320   8.703  0.0802 -0.2364  0.1326
  548loPI   C3A 8761  10.520  13.199   8.250  0.1244 -0.0965 -0.0306
  548loPI   C4A 8762  10.774  13.028   7.934  0.1861  0.0371 -0.0385
  548loPI   C5A 8763  11.240  12.898   7.682  0.0408  0.0895 -0.0496
  548loPI   C6A 8764  11.302  12.938   7.329  0.3531  0.0144 -0.3002
  548loPI   C1B 8765  10.104  13.431   9.245  0.0707  0.1396  0.1424
  548loPI   C2B 8766  10.066  13.295   8.826 -0.1684  0.0130  0.6475
  548loPI   C3B 8767  10.088  13.387   8.515  0.0422 -0.4686  0.2205
  548loPI   C4B 8768   9.999  13.270   8.089  0.2890  0.0183  0.1152
  549loPI    C1 8769  11.871   2.193  10.148  0.0255  0.0696 -0.0163
  549loPI    C2 8770  12.193   2.208  10.386  0.0173  0.1593 -0.0106
  549loPI    C3 8771  11.891   2.465  10.441 -0.1383 -0.0457  0.1034
  549loPI   PO4 8772  12.013   2.115   9.848  0.0368  0.0214 -0.2000
  549loPI   GL1 8773  12.082   2.190   9.433  0.2633 -0.4606 -0.1632
  549loPI   GL2 8774  12.305   2.120   9.269 -0.1855  0.2342 -0.0288
  549loPI   C1A 8775  11.849   2.079   9.049  0.1982  0.2310 -0.2631
  549loPI   C2A 8776  11.877   2.062   8.583  0.0465  0.0915  0.0046
  549loPI   C3A 8777  11.805   2.054   8.131 -0.2677 -0.2340 -0.3577
  549loPI   C4A 8778  11.775   2.089   7.708 -0.0937  0.5172  0.1070
  549loPI   C5A 8779  11.964   2.030   7.280  0.2591 -0.0798 -0.0669
  549loPI   C6A 8780  11.936   2.037   6.834 -0.2420 -0.2998 -0.1352
  549loPI   C1B 8781  12.333   1.944   8.859  0.1167 -0.2136 -0.2416
  549loPI   C2B 8782  12.410   2.044   8.461  0.3517  0.0955 -0.1767
  549loPI   C3B 8783  12.253   1.928   8.020  0.2560 -0.5158 -0.0170
  549loPI   C4B 8784  12.437   1.684   7.761 -0.1345  0.0578  0.1259
  550loPI    C1 8785  18.602   8.084   9.551 -0.1482  0.0788  0.2183
  550loPI    C2 8786  18.560   8.468   9.658 -0.1716  0.0551  0.2947
  550loPI    C3 8787  18.892   8.267   9.757 -0.0222  0.1432 -0.0116
  550loPI   PO4 8788  18.483   8.077   9.264 -0.0521 -0.3912 -0.1722
  550loPI   GL1 8789  18.604   8.221   8.833  0.3476 -0.1966  0.2010
  550loPI   GL2 8790  18.618   8.552   8.778 -0.0664 -0.1508  0.0382
  550loPI   C1A 8791  18.887   8.384   8.473 -0.5756 -0.2591  0.2793
  550loPI   C2A 8792  19.081   8.268   8.106  0.0948 -0.2529  0.0364
  550loPI   C3A 8793  19.035   8.436   7.696 -0.0402  0.0875  0.0754
  550loPI   C4A 8794  19.139   8.721   7.428 -0.0301 -0.2748 -0.0695
  550loPI   C5A 8795  18.959   8.934   7.129 -0.0381  0.2233 -0.0582
  550loPI   C6A 8796  18.725   8.880   6.819 -0.0667  0.0744 -0.1226
  550loPI   C1B 8797  18.549   8.600   8.250  0.1030 -0.1627 -0.2184
  550loPI   C2B 8798  18.571   8.741   7.791  0.2051 -0.0290  0.1631
  550loPI   C3B 8799  18.547   8.908   7.435  0.0970  0.1787  0.1300
  550loPI   C4B 8800  18.491   9.216   7.121 -0.1080  0.4754 -0.0020
  551loPI    C1 8801   2.621  17.575   9.975  0.1718 -0.1715  0.0055
  551loPI    C2 8802   2.558  17.420  10.339  0.0678  0.2491  0.1731
  551loPI    C3 8803   2.718  17.785  10.302  0.3542  0.0920 -0.2134
  551loPI   PO4 8804   2.418  17.467   9.728  0.0809 -0.0280  0.2604
  551loPI   GL1 8805   2.311  17.757   9.326 -0.3078  0.1076  0.2271
  551loPI   GL2 8806   2.010  17.568   9.244  0.0589  0.1405  0.1723
  551loPI   C1A 8807   2.303  17.948   8.909  0.0164 -0.0720 -0.3484
  551loPI   C2A 8808   2.404  18.061   8.476 -0.0281  0.2934  0.2653
  551loPI   C3A 8809   2.156  18.053   8.016  0.1274 -0.0926 -0.1150
  551loPI   C4A 8810   2.319  18.065   7.593  0.2011  0.0172 -0.0277
  551loPI   C5A 8811   2.662  18.267   7.410  0.0657 -0.0510  0.0072
  551loPI   C6A 8812   2.692  18.692   7.411 -0.1078 -0.1492  0.2016
  551loPI   C1B 8813   2.016  17.361   8.891  0.3521  0.1807  0.1078
  551loPI   C2B 8814   2.113  17.184   8.545  0.0095 -0.1691 -0.0805
  551loPI   C3B 8815   1.905  17.084   8.247 -0.4902  0.0983  0.0642
  551loPI   C4B 8816   1.639  16.762   8.075  0.0152 -0.2102  0.2006
  552loPI    C1 8817   5.352  16.092   9.752 -0.3038  0.1536  0.2297
  552loPI    C2 8818   5.644  15.885   9.931 -0.2930 -0.0075  0.0297
  552loPI    C3 8819   5.451  16.172  10.132  0.1634  0.2679  0.0915
  552loPI   PO4 8820   5.440  16.242   9.574 -0.2306 -0.0240 -0.0331
  552loPI   GL1 8821   5.511  16.180   9.136 -0.2657 -0.2769 -0.1200
  552loPI   GL2 8822   5.674  15.854   9.178 -0.1529 -0.0771  0.1709
  552loPI   C1A 8823   5.713  16.080   8.704  0.0929  0.0426  0.1706
  552loPI   C2A 8824   5.932  16.087   8.330 -0.1980 -0.1290  0.2814
  552loPI   C3A 8825   5.835  15.974   8.030 -0.0485 -0.0202 -0.2834
  552loPI   C4A 8826   5.745  16.032   7.703 -0.0309  0.3399 -0.2250
  552loPI   C5A 8827   5.537  16.284   7.450  0.2291  0.0095  0.0737
  552loPI   C6A 8828   5.774  16.462   7.112  0.2668  0.2434  0.2022
  552loPI   C1B 8829   5.419  15.647   8.765  0.2077 -0.5150 -0.0198
  552loPI   C2B 8830   5.442  15.673   8.430  0.1502 -0.3052 -0.1478
  552loPI   C3B 8831   5.593  15.578   8.137 -0.2492  0.0376  0.0187
  552loPI   C4B 8832   5.670  15.488   7.712  0.0094 -0.1212 -0.1968
  553loPI    C1 8833  12.201   4.693   9.685  0.1411 -0.1215  0.0665
  553loPI    C2 8834  12.302   5.066   9.790  0.0544 -0.0543 -0.0842
  553loPI    C3 8835  12.395   4.758  10.029 -0.1230  0.0922  0.1789
  553loPI   PO4 8836  12.258   4.726   9.419 -0.3383 -0.0779  0.1869
  553loPI   GL1 8837  12.227   4.750   8.975  0.2066 -0.3719 -0.2427
  553loPI   GL2 8838  12.164   4.452   8.699 -0.0840 -0.3529  0.2876
  553loPI   C1A 8839  12.256   4.881   8.502  0.2610 -0.1441  0.1585
  553loPI   C2A 8840  12.480   5.079   8.229 -0.1199 -0.1279 -0.2351
  553loPI   C3A 8841  12.423   5.137   7.767 -0.2836 -0.0925 -0.0538
  553loPI   C4A 8842  12.190   5.417   7.586 -0.2539 -0.3599  0.6709
  553loPI   C5A 8843  11.834   5.498   7.227 -0.0880 -0.0158 -0.3618
  553loPI   C6A 8844  11.948   5.686   6.806  0.1923 -0.2843 -0.0234
  553loPI   C1B 8845  12.041   4.425   8.262  0.2066 -0.0565  0.1048
  553loPI   C2B 8846  12.188   4.712   7.947  0.4436  0.0785 -0.0836
  553loPI   C3B 8847  12.224   4.697   7.478  0.1210  0.0961  0.1627
  553loPI   C4B 8848  12.512   4.687   7.168  0.6238 -0.2939 -0.0353
  554loPI    C1 8849   4.343  16.478   9.853  0.2293 -0.2555 -0.0360
  554loPI    C2 8850   4.649  16.724   9.931  0.0717 -0.1271  0.1889
  554loPI    C3 8851   4.274  16.839  10.011 -0.0510 -0.2254 -0.2199
  554loPI   PO4 8852   4.421  16.429   9.577 -0.0844  0.1296  0.2544
  554loPI   GL1 8853   4.422  16.286   9.105 -0.0546  0.1572 -0.1653
  554loPI   GL2 8854   4.646  16.591   9.076 -0.1645  0.0125  0.1260
  554loPI   C1A 8855   4.369  16.339   8.686 -0.1934  0.2406  0.0973
  554loPI   C2A 8856   4.542  16.414   8.351  0.2428  0.1082  0.0034
  554loPI   C3A 8857   4.661  16.594   7.865 -0.0059 -0.0241  0.1551
  554loPI   C4A 8858   4.844  16.784   7.499  0.6424  0.1186 -0.0246
  554loPI   C5A 8859   5.095  17.188   7.436  0.0971  0.2948 -0.2850
  554loPI   C6A 8860   5.261  17.472   7.729  0.0176  0.1467 -0.4029
  554loPI   C1B 8861   4.863  16.652   8.789  0.2020  0.2953 -0.4232
  554loPI   C2B 8862   5.129  16.700   8.421  0.3061  0.0658  0.1089
  554loPI   C3B 8863   5.169  16.502   8.039  0.0147  0.1834  0.1480
  554loPI   C4B 8864   5.030  16.239   7.663  0.3712  0.2654 -0.2582
  555loPI    C1 8865   0.075   8.380   9.776  0.1564 -0.0894  0.1303
  555loPI    C2 8866  -0.117   8.253  10.103  0.0277 -0.0238  0.0810
  555loPI    C3 8867   0.230   8.449  10.138  0.0086 -0.0068  0.1789
  555loPI   PO4 8868  -0.027   8.496   9.536 -0.2987 -0.0404  0.1024
  555loPI   GL1 8869  -0.080   8.728   9.241 -0.1160  0.1448  0.3110
  555loPI   GL2 8870   0.084   8.993   9.142  0.1054  0.3393 -0.1710
  555loPI   C1A 8871  -0.190   8.594   8.817  0.0430 -0.5087 -0.2029
  555loPI   C2A 8872   0.116   8.461   8.535  0.1717  0.4246 -0.0913
  555loPI   C3A 8873   0.091   8.570   8.027  0.0379 -0.3992 -0.0158
  555loPI   C4A 8874   0.244   8.793   7.618  0.0100  0.0661 -0.0176
  555loPI   C5A 8875   0.282   8.942   7.191  0.3457 -0.1525  0.1406
  555loPI   C6A 8876   0.526   8.943   6.899  0.4121 -0.1751 -0.1768
  555loPI   C1B 8877   0.114   9.048   8.739 -0.0121  0.2564 -0.0945
  555loPI   C2B 8878   0.151   8.973   8.397  0.0564  0.1768 -0.0721
  555loPI   C3B 8879   0.479   8.887   8.060 -0.1793  0.0326 -0.0178
  555loPI   C4B 8880   0.597   9.240   7.829 -0.3869 -0.1663  0.1933
  556loPI    C1 8881   8.894  14.909   9.775 -0.0774  0.0583 -0.0925
  556loPI    C2 8882   8.654  14.825  10.083 -0.0133  0.4361  0.0670
  556loPI    C3 8883   8.891  14.541   9.931 -0.4648  0.0910 -0.0144
  556loPI   PO4 8884   9.043  14.998   9.735 -0.5837 -0.1691  0.4015
  556loPI   GL1 8885   9.296  14.938   9.270  0.2782  0.0996  0.4337
  556loPI   GL2 8886   9.620  14.842   9.319 -0.1235  0.1422  0.0617
  556loPI   C1A 8887   9.112  14.845   8.844 -0.2384  0.0259  0.2622
  556loPI   C2A 8888   9.202  14.873   8.351  0.2680  0.2111 -0.0674
  556loPI   C3A 8889   9.354  14.705   8.016 -0.1161 -0.0132 -0.1465
  556loPI   C4A 8890   9.549  14.395   7.730  0.0667 -0.1451 -0.2872
  556loPI   C5A 8891   9.688  14.174   7.395  0.2341 -0.2644  0.1030
  556loPI   C6A 8892  10.061  13.894   7.409 -0.1683 -0.0481 -0.3004
  556loPI   C1B 8893   9.775  14.733   8.938 -0.1322  0.1015  0.0435
  556loPI   C2B 8894   9.711  14.734   8.454  0.2054 -0.6335  0.0028
  556loPI   C3B 8895   9.837  14.738   8.121  0.0705 -0.0120  0.0116
  556loPI   C4B 8896   9.875  14.899   7.741 -0.0008 -0.0013  0.2917
  557loPI    C1 8897   3.809  16.593   9.863  0.2481 -0.1193 -0.1634
  557loPI    C2 8898   3.937  16.231   9.975  0.0100 -0.1009  0.1820
  557loPI    C3 8899   3.945  16.535  10.235 -0.0385  0.0785 -0.0243
  557loPI   PO4 8900   3.609  16.518   9.661 -0.3143 -0.0571 -0.1942
  557loPI   GL1 8901   3.776  16.476   9.196 -0.0249  0.1928 -0.3174
  557loPI   GL2 8902   3.584  16.208   9.241  0.0162  0.1847  0.0302
  557loPI   C1A 8903   4.017  16.601   8.835 -0.0143 -0.1754  0.1690
  557loPI   C2A 8904   4.000  16.624   8.343 -0.0832  0.2294  0.4287
  557loPI   C3A 8905   4.045  16.849   7.915 -0.3107  0.1105 -0.0055
  557loPI   C4A 8906   4.363  16.795   7.534  0.2310  0.0560 -0.0681
  557loPI   C5A 8907   4.389  16.803   7.076  0.4505 -0.0371 -0.1060
  557loPI   C6A 8908   4.649  16.658   6.704  0.0588 -0.1592 -0.0620
  557loPI   C1B 8909   3.456  16.230   8.809 -0.1069  0.0136  0.0321
  557loPI   C2B 8910   3.664  16.316   8.485 -0.2854  0.2305  0.0832
  557loPI   C3B 8911   3.589  16.351   8.050 -0.2822  0.1356  0.0100
  557loPI   C4B 8912   3.234  16.054   7.886 -0.0504 -0.4002 -0.0523
  558loPI    C1 8913   7.938   1.943   9.352 -0.0671 -0.1672 -0.1446
  558loPI    C2 8914   8.011   1.746   9.693 -0.2346  0.1606  0.0865
  558loPI    C3 8915   8.204   1.644   9.357  0.2110  0.0767  0.3598
  558loPI   PO4 8916   7.581   1.955   9.406 -0.0995 -0.0530 -0.0290
  558loPI   GL1 8917   7.215   1.945   9.140  0.0739 -0.0449 -0.1567
  558loPI   GL2 8918   6.838   1.977   9.064 -0.1127 -0.1926 -0.0621
  558loPI   C1A 8919   7.105   1.680   8.674 -0.0177 -0.1122 -0.3028
  558loPI   C2A 8920   7.126   1.416   8.377  0.2047  0.1182  0.0631
  558loPI   C3A 8921   7.043   1.371   7.906 -0.0442  0.0978 -0.0974
  558loPI   C4A 8922   7.221   1.235   7.529  0.1116 -0.1346 -0.1741
  558loPI   C5A 8923   7.101   1.203   7.094 -0.0816  0.0298 -0.0906
  558loPI   C6A 8924   7.324   1.208   6.621  0.1691 -0.4503 -0.1644
  558loPI   C1B 8925   7.034   2.208   8.754  0.2312 -0.2212 -0.2322
  558loPI   C2B 8926   7.194   2.175   8.329  0.0257  0.0208 -0.0797
  558loPI   C3B 8927   7.207   1.880   7.967 -0.0732 -0.1831  0.1439
  558loPI   C4B 8928   7.324   1.733   7.492 -0.2568 -0.3346  0.0849
  559loPI    C1 8929   2.829   1.036  10.023  0.0174 -0.0083 -0.0969
  559loPI    C2 8930   2.785   0.790  10.335  0.2469 -0.0164 -0.0693
  559loPI    C3 8931   2.799   1.186  10.392  0.2477 -0.0157 -0.0737
  559loPI   PO4 8932   2.797   0.789   9.809  0.0530  0.0209 -0.1606
  559loPI   GL1 8933   2.726   0.687   9.295 -0.0064 -0.1195 -0.0927
  559loPI   GL2 8934   2.573   0.432   9.543  0.2161 -0.1710 -0.0825
  559loPI   C1A 8935   2.527   0.638   8.861 -0.0406  0.0351 -0.1511
  559loPI   C2A 8936   2.537   0.652   8.418  0.1980 -0.0099 -0.1868
  559loPI   C3A 8937   2.512   0.721   7.936 -0.2512 -0.0918 -0.1208
  559loPI   C4A 8938   2.522   0.441   7.507 -0.4034  0.0842 -0.0075
  559loPI   C5A 8939   2.502   0.119   7.279 -0.0131  0.2273  0.0752
  559loPI   C6A 8940   2.684  -0.039   6.856 -0.0421  0.1468 -0.0457
  559loPI   C1B 8941   2.350   0.291   9.178  0.3254 -0.0387 -0.1500
  559loPI   C2B 8942   2.236   0.029   8.871 -0.0262 -0.1797 -0.0348
  559loPI   C3B 8943   2.225  -0.110   8.424 -0.1117 -0.3334 -0.1899
  559loPI   C4B 8944   2.313  -0.273   8.062  0.0640 -0.2817  0.1269
  560loPI    C1 8945  17.917   9.726   9.873  0.0776  0.1086  0.0658
  560loPI    C2 8946  17.877   9.896  10.234 -0.0363 -0.0064  0.1079
  560loPI    C3 8947  18.220   9.934  10.032  0.0092  0.1036  0.2051
  560loPI   PO4 8948  17.695   9.776   9.740  0.1493  0.1636  0.2769
  560loPI   GL1 8949  17.509  10.004   9.331  0.0419  0.0613 -0.0109
  560loPI   GL2 8950  17.822   9.999   9.330 -0.0579  0.0242  0.1096
  560loPI   C1A 8951  17.450  10.259   8.899  0.1303  0.2354 -0.1208
  560loPI   C2A 8952  17.458  10.188   8.486 -0.2059  0.0512 -0.0191
  560loPI   C3A 8953  17.315  10.245   7.991 -0.0204 -0.1165 -0.2683
  560loPI   C4A 8954  17.125  10.198   7.592 -0.1648  0.1484 -0.0314
  560loPI   C5A 8955  17.339  10.155   7.141  0.0265 -0.1098 -0.2167
  560loPI   C6A 8956  17.579  10.327   6.842  0.0275 -0.2172  0.3172
  560loPI   C1B 8957  17.748   9.822   8.911 -0.3648 -0.0673 -0.1408
  560loPI   C2B 8958  17.688   9.630   8.466 -0.0576  0.0717  0.1270
  560loPI   C3B 8959  17.430   9.715   8.100  0.3185  0.1207  0.3273
  560loPI   C4B 8960  17.335   9.809   7.640  0.0632 -0.1831 -0.3277
  561loPI    C1 8961   4.900   7.198   9.883  0.0462 -0.1094  0.0023
  561loPI    C2 8962   5.008   7.562   9.756  0.0036 -0.0301  0.1898
  561loPI    C3 8963   5.154   7.419  10.100  0.1583 -0.2636  0.0299
  561loPI   PO4 8964   4.823   7.081   9.608  0.1583  0.0580  0.2158
  561loPI   GL1 8965   5.088   6.995   9.312 -0.1433  0.0663  0.2727
  561loPI   GL2 8966   5.412   7.023   9.278  0.3199 -0.0929 -0.0015
  561loPI   C1A 8967   5.164   7.295   8.903 -0.1046 -0.1158  0.0457
  561loPI   C2A 8968   5.294   7.408   8.464  0.0510 -0.0060 -0.1875
  561loPI   C3A 8969   5.069   7.486   8.055 -0.0144 -0.1774 -0.2790
  561loPI   C4A 8970   4.855   7.511   7.611  0.2055  0.0704 -0.0846
  561loPI   C5A 8971   5.010   7.390   7.248  0.2884  0.0213  0.1836
  561loPI   C6A 8972   5.194   7.622   6.928  0.1720  0.3793  0.0645
  561loPI   C1B 8973   5.690   6.925   8.863 -0.2865 -0.1263  0.3025
  561loPI   C2B 8974   5.733   7.073   8.441 -0.2168 -0.4414 -0.1343
  561loPI   C3B 8975   5.726   7.137   8.076  0.1062  0.0784  0.1513
  561loPI   C4B 8976   5.503   7.137   7.689  0.2053  0.0247  0.0376
  562loPI    C1 8977   5.501   2.450   9.886 -0.1028 -0.2730 -0.1980
  562loPI    C2 8978   5.218   2.732   9.860  0.1936  0.0874  0.3055
  562loPI    C3 8979   5.127   2.368  10.000 -0.1687 -0.0473 -0.2472
  562loPI   PO4 8980   5.666   2.509   9.795 -0.1911 -0.2551 -0.2105
  562loPI   GL1 8981   5.569   2.725   9.395  0.0328 -0.0206 -0.3001
  562loPI   GL2 8982   5.607   2.957   9.237 -0.1921  0.0222 -0.0468
  562loPI   C1A 8983   5.971   2.508   9.173  0.1455 -0.1659 -0.4705
  562loPI   C2A 8984   6.043   2.472   8.754 -0.2301 -0.0347 -0.0510
  562loPI   C3A 8985   6.165   2.369   8.316  0.0118 -0.0707 -0.0933
  562loPI   C4A 8986   5.954   2.334   8.040  0.0334  0.2882  0.1023
  562loPI   C5A 8987   5.624   2.201   7.792  0.1084 -0.3592 -0.0027
  562loPI   C6A 8988   5.445   2.168   7.440  0.2184 -0.0115 -0.1154
  562loPI   C1B 8989   5.606   2.771   8.808  0.2408  0.0835  0.0603
  562loPI   C2B 8990   5.636   2.575   8.378 -0.1926 -0.0348 -0.0448
  562loPI   C3B 8991   5.485   2.682   8.040 -0.1772 -0.2653  0.1094
  562loPI   C4B 8992   5.471   2.629   7.581 -0.0120 -0.2026 -0.0413
  563loPI    C1 8993   0.059   0.121  10.345 -0.2988 -0.1036  0.0918
  563loPI    C2 8994   0.069  -0.277  10.305  0.0605 -0.1030  0.1430
  563loPI    C3 8995  -0.256  -0.099  10.456 -0.1320 -0.3684  0.0493
  563loPI   PO4 8996   0.238   0.201  10.128  0.2495 -0.2321  0.1904
  563loPI   GL1 8997   0.352   0.128   9.712 -0.0315 -0.2281  0.2780
  563loPI   GL2 8998   0.022  -0.072   9.730 -0.2173 -0.2550 -0.2372
  563loPI   C1A 8999   0.569   0.067   9.295 -0.0790 -0.2479  0.1606
  563loPI   C2A 9000   0.754   0.075   8.757 -0.0993 -0.0724  0.1829
  563loPI   C3A 9001   0.867   0.160   8.371  0.0670 -0.1933  0.1057
  563loPI   C4A 9002   0.982   0.007   7.970 -0.1489 -0.3645  0.1163
  563loPI   C5A 9003   0.944   0.109   7.590 -0.1168  0.0795  0.0571
  563loPI   C6A 9004   1.205   0.390   7.341  0.2934 -0.0185 -0.1590
  563loPI   C1B 9005   0.056  -0.049   9.291  0.3177 -0.2742 -0.4523
  563loPI   C2B 9006   0.218  -0.258   8.967 -0.1179 -0.3783  0.2778
  563loPI   C3B 9007   0.228  -0.423   8.642 -0.1113 -0.0672 -0.0478
  563loPI   C4B 9008   0.109  -0.494   8.248 -0.1608 -0.0485 -0.1937
  564loPI    C1 9009   5.067   1.576   9.788  0.0129 -0.0520 -0.2892
  564loPI    C2 9010   4.896   1.937   9.807  0.1119 -0.0033 -0.3179
  564loPI    C3 9011   5.220   1.857  10.028  0.0223 -0.1122 -0.2242
  564loPI   PO4 9012   5.100   1.470   9.528  0.3086 -0.1586  0.0023
  564loPI   GL1 9013   5.021   1.431   9.118  0.0667 -0.1918  0.3808
  564loPI   GL2 9014   4.692   1.540   9.091  0.1831 -0.0396  0.1320
  564loPI   C1A 9015   4.951   1.797   8.695  0.0386  0.2534  0.2654
  564loPI   C2A 9016   4.752   2.105   8.467 -0.0826  0.2188 -0.2381
  564loPI   C3A 9017   4.341   2.137   8.330 -0.3160  0.1459 -0.1127
  564loPI   C4A 9018   4.069   1.889   8.073 -0.0058 -0.1899  0.0167
  564loPI   C5A 9019   3.772   1.854   7.636 -0.1801  0.2010  0.0771
  564loPI   C6A 9020   3.246   1.803   7.657 -0.0130 -0.3144 -0.2937
  564loPI   C1B 9021   4.816   1.227   8.658  0.0576  0.2407 -0.0300
  564loPI   C2B 9022   5.010   0.946   8.346  0.4663  0.0316  0.2752
  564loPI   C3B 9023   4.919   0.914   7.834  0.2607  0.1400 -0.1785
  564loPI   C4B 9024   4.637   0.871   7.547 -0.3429 -0.2839 -0.2696
  565loPI    C1 9025  14.942  18.747   9.384 -0.1320  0.1580 -0.0487
  565loPI    C2 9026  14.931  18.453   9.655  0.2473  0.1431 -0.0435
  565loPI    C3 9027  15.046  18.820   9.764 -0.1076  0.2675 -0.0760
  565loPI   PO4 9028  14.730  18.801   9.315  0.5900  0.0596  0.1513
  565loPI   GL1 9029  14.716  19.147   9.012 -0.0488  0.0595  0.1750
  565loPI   GL2 9030  14.976  19.123   8.822 -0.1262  0.3438 -0.3314
  565loPI   C1A 9031  14.339  19.122   8.771 -0.2903  0.1599  0.2632
  565loPI   C2A 9032  13.909  19.248   8.612 -0.0677  0.0354  0.1970
  565loPI   C3A 9033  13.826  19.301   8.165  0.5252  0.0190  0.2525
  565loPI   C4A 9034  13.837  18.979   7.859 -0.4186 -0.0863 -0.0823
  565loPI   C5A 9035  14.026  18.855   7.436 -0.1392 -0.0082 -0.1271
  565loPI   C6A 9036  13.802  18.604   7.085 -0.0749  0.3356  0.3393
  565loPI   C1B 9037  15.045  18.985   8.311 -0.2085  0.0390  0.4046
  565loPI   C2B 9038  14.824  18.864   7.968  0.0264 -0.3107  0.0852
  565loPI   C3B 9039  14.998  19.027   7.518 -0.2090 -0.0910 -0.1223
  565loPI   C4B 9040  15.137  18.806   7.147  0.1359 -0.1528  0.1603
  566loPI    C1 9041  13.786   4.318   9.280  0.0848 -0.0469  0.3208
  566loPI    C2 9042  13.570   4.565   9.508  0.2203  0.0942  0.2977
  566loPI    C3 9043  13.565   4.172   9.579 -0.1491  0.0799  0.2129
  566loPI   PO4 9044  14.038   4.460   9.233  0.1082 -0.1622 -0.2811
  566loPI   GL1 9045  14.198   4.513   8.799 -0.2014 -0.1539 -0.0830
  566loPI   GL2 9046  14.008   4.710   8.801  0.1997 -0.0934 -0.0031
  566loPI   C1A 9047  14.301   4.644   8.364 -0.0079 -0.1984 -0.0118
  566loPI   C2A 9048  14.280   4.630   7.872 -0.0681 -0.0682  0.2935
  566loPI   C3A 9049  14.302   4.622   7.380 -0.0328  0.0837 -0.0975
  566loPI   C4A 9050  13.852   4.474   7.087  0.0970 -0.1100  0.1616
  566loPI   C5A 9051  13.591   4.188   6.854  0.0293  0.2034 -0.0270
  566loPI   C6A 9052  13.609   4.307   6.392  0.0962 -0.1659  0.1680
  566loPI   C1B 9053  13.833   4.474   8.488  0.1405 -0.0990 -0.0898
  566loPI   C2B 9054  13.583   4.427   8.161 -0.2164  0.3393  0.0130
  566loPI   C3B 9055  13.381   4.237   7.907 -0.2610  0.0345 -0.1156
  566loPI   C4B 9056  13.341   4.204   7.379  0.0055 -0.3763  0.0304
  567loPI    C1 9057  10.105  14.517   9.779  0.0051  0.0835 -0.0342
  567loPI    C2 9058  10.094  14.730   9.441 -0.0535 -0.0505 -0.1173
  567loPI    C3 9059   9.870  14.840   9.753  0.1210  0.1661 -0.0656
  567loPI   PO4 9060  10.153  14.285   9.650 -0.0571 -0.0293 -0.1960
  567loPI   GL1 9061  10.290  13.937   9.418  0.5313 -0.1050  0.0101
  567loPI   GL2 9062   9.942  13.837   9.378  0.0924  0.1105 -0.4844
  567loPI   C1A 9063  10.546  14.117   9.087  0.2037  0.0597  0.0937
  567loPI   C2A 9064  10.665  14.099   8.659 -0.2428 -0.0682 -0.0732
  567loPI   C3A 9065  10.824  14.194   8.277  0.0651 -0.0326 -0.2134
  567loPI   C4A 9066  10.804  14.025   7.869  0.2399  0.1638 -0.1690
  567loPI   C5A 9067  10.753  14.302   7.505  0.1481  0.2357 -0.1893
  567loPI   C6A 9068  10.736  14.337   7.039  0.2038  0.3284 -0.3878
  567loPI   C1B 9069  10.095  13.880   8.906  0.0001  0.0294  0.1911
  567loPI   C2B 9070  10.167  13.904   8.490  0.2487 -0.0982 -0.2426
  567loPI   C3B 9071  10.363  13.746   8.103 -0.0496 -0.0453  0.1333
  567loPI   C4B 9072  10.342  13.625   7.684  0.0328 -0.1089  0.0416
  568loPI    C1 9073   1.746  18.106   9.876 -0.0978  0.1758 -0.1230
  568loPI    C2 9074   2.052  17.858   9.809 -0.2018  0.0299 -0.0628
  568loPI    C3 9075   2.105  18.185  10.033 -0.0351  0.1266 -0.2408
  568loPI   PO4 9076   1.667  18.189   9.671  0.1114  0.2279 -0.1151
  568loPI   GL1 9077   1.563  18.560   9.478 -0.1800  0.0124  0.4256
  568loPI   GL2 9078   1.573  18.836   9.546  0.2610 -0.2281  0.0447
  568loPI   C1A 9079   1.456  18.524   9.012  0.0302 -0.3606  0.1657
  568loPI   C2A 9080   1.498  18.673   8.551  0.3409 -0.0733 -0.1523
  568loPI   C3A 9081   1.438  18.456   8.210  0.2724 -0.3034  0.1167
  568loPI   C4A 9082   1.438  18.361   7.942 -0.0436 -0.3054  0.0596
  568loPI   C5A 9083   1.301  18.487   7.624 -0.2260 -0.0476  0.1140
  568loPI   C6A 9084   1.441  18.215   7.159  0.0747  0.3640 -0.2474
  568loPI   C1B 9085   1.848  18.828   9.157  0.0382 -0.1412  0.1366
  568loPI   C2B 9086   2.276  18.907   8.934 -0.3331  0.4564  0.0467
  568loPI   C3B 9087   2.625  18.917   8.639 -0.2246  0.3686  0.2474
  568loPI   C4B 9088   2.791  19.066   8.313 -0.2063 -0.2141 -0.2474
  569loPI    C1 9089   1.391   1.674  10.018  0.2064 -0.1182 -0.1555
  569loPI    C2 9090   1.739   1.827  10.143  0.2648 -0.2153 -0.1978
  569loPI    C3 9091   1.580   1.511  10.331 -0.0184  0.0928  0.0954
  569loPI   PO4 9092   1.261   1.850   9.954  0.2131  0.3198 -0.1422
  569loPI   GL1 9093   1.295   2.091   9.487  0.0856  0.3564  0.0424
  569loPI   GL2 9094   1.317   2.379   9.277 -0.2056 -0.0547  0.0139
  569loPI   C1A 9095   0.962   1.950   9.225  0.1328  0.1559 -0.1143
  569loPI   C2A 9096   1.098   1.781   8.941 -0.0078  0.3625  0.2179
  569loPI   C3A 9097   0.967   1.599   8.580 -0.2370 -0.1120 -0.0356
  569loPI   C4A 9098   0.798   1.720   8.280  0.3877 -0.2463 -0.0177
  569loPI   C5A 9099   0.770   2.029   7.938  0.1592 -0.1527 -0.1188
  569loPI   C6A 9100   0.755   2.236   7.533 -0.0503 -0.0681  0.2778
  569loPI   C1B 9101   1.325   2.361   8.815 -0.0345  0.2429 -0.3286
  569loPI   C2B 9102   1.446   2.322   8.499 -0.1156 -0.1189 -0.2686
  569loPI   C3B 9103   1.219   2.232   8.128 -0.1454  0.0310  0.3454
  569loPI   C4B 9104   1.093   2.507   7.835 -0.1778 -0.0406 -0.2521
  570loPI    C1 9105  18.241   3.224   9.800 -0.0048 -0.1612  0.4488
  570loPI    C2 9106  18.620   3.343   9.844 -0.0011  0.0364 -0.0454
  570loPI    C3 9107  18.397   3.261  10.166  0.4007  0.0982  0.2567
  570loPI   PO4 9108  18.190   3.240   9.533  0.0316  0.0991  0.1281
  570loPI   GL1 9109  18.152   3.299   9.125  0.1709 -0.2128  0.3666
  570loPI   GL2 9110  18.430   2.999   9.177  0.4246  0.0055  0.0700
  570loPI   C1A 9111  18.419   3.636   8.909  0.2727 -0.3883  0.2227
  570loPI   C2A 9112  18.648   3.869   8.655 -0.1877 -0.2461 -0.0664
  570loPI   C3A 9113  18.753   3.889   8.228 -0.2788  0.0870  0.1813
  570loPI   C4A 9114  18.787   3.821   7.878 -0.2164  0.0969  0.3735
  570loPI   C5A 9115  18.820   3.704   7.497  0.2297 -0.0611 -0.1336
  570loPI   C6A 9116  18.749   3.287   7.349 -0.0341 -0.2094  0.2544
  570loPI   C1B 9117  18.727   3.247   8.881  0.5110  0.1684 -0.2638
  570loPI   C2B 9118  18.786   3.387   8.425 -0.2877 -0.2842  0.3375
  570loPI   C3B 9119  18.909   3.365   7.970  0.0092  0.1306 -0.0439
  570loPI   C4B 9120  19.073   3.178   7.717 -0.0486 -0.0228  0.1353
  571loPI    C1 9121   6.958   0.046   9.900 -0.0739  0.3250 -0.1476
  571loPI    C2 9122   6.852  -0.217  10.182 -0.1303  0.1112 -0.3645
  571loPI    C3 9123   7.112   0.075  10.268 -0.2540  0.1342 -0.0550
  571loPI   PO4 9124   6.911  -0.195   9.672 -0.1406 -0.4593  0.0234
  571loPI   GL1 9125   6.842  -0.149   9.208  0.3539 -0.2464  0.0572
  571loPI   GL2 9126   6.816  -0.367   8.932 -0.0836 -0.1626  0.2445
  571loPI   C1A 9127   6.810   0.179   8.789  0.2377  0.1164  0.0950
  571loPI   C2A 9128   6.729   0.083   8.296 -0.2900  0.1185 -0.1818
  571loPI   C3A 9129   6.857   0.096   7.937 -0.0270  0.1611  0.0633
  571loPI   C4A 9130   6.713   0.126   7.565  0.1440  0.0449 -0.0489
  571loPI   C5A 9131   6.730  -0.117   7.213 -0.1285 -0.1860  0.2774
  571loPI   C6A 9132   6.934  -0.587   7.121  0.1919 -0.1095  0.0164
  571loPI   C1B 9133   6.918  -0.321   8.511  0.1144 -0.0361  0.3059
  571loPI   C2B 9134   6.887  -0.478   8.061  0.0206 -0.2638  0.0425
  571loPI   C3B 9135   6.954  -0.281   7.621  0.0360 -0.1557  0.0411
  571loPI   C4B 9136   7.213  -0.217   7.314 -0.3285  0.1539 -0.1297
  572loPI    C1 9137  18.961   3.726   9.975 -0.0128  0.1131  0.1653
  572loPI    C2 9138  18.604   3.728  10.156 -0.0874  0.0341  0.0208
  572loPI    C3 9139  18.874   3.448  10.250 -0.1392 -0.0284 -0.0152
  572loPI   PO4 9140  18.791   3.803   9.658 -0.2686 -0.1711 -0.2564
  572loPI   GL1 9141  18.961   3.950   9.197  0.0504 -0.2618 -0.2097
  572loPI   GL2 9142  18.737   4.178   9.265  0.0130  0.2933 -0.0728
  572loPI   C1A 9143  19.136   3.826   8.722 -0.1809 -0.0072 -0.0490
  572loPI   C2A 9144  19.206   3.626   8.325  0.0059 -0.0976  0.2182
  572loPI   C3A 9145  19.363   3.579   7.907  0.1760 -0.2190 -0.2769
  572loPI   C4A 9146  19.299   3.517   7.387 -0.1610 -0.1768 -0.0108
  572loPI   C5A 9147  19.162   3.227   7.084 -0.0989  0.1181  0.0126
  572loPI   C6A 9148  19.002   2.840   7.208 -0.1213  0.3891  0.2607
  572loPI   C1B 9149  18.619   4.340   8.901  0.0696 -0.1975 -0.0801
  572loPI   C2B 9150  18.623   4.316   8.416  0.1559  0.1849 -0.0795
  572loPI   C3B 9151  18.591   4.359   7.973  0.0060 -0.1696 -0.1077
  572loPI   C4B 9152  18.723   4.317   7.544 -0.4645 -0.3197  0.2335
  573loPI    C1 9153   8.236  16.584  10.154 -0.0772 -0.0243 -0.1139
  573loPI    C2 9154   8.334  16.204  10.234  0.1665  0.0258 -0.1641
  573loPI    C3 9155   8.388  16.487  10.512 -0.4987 -0.0524  0.0623
  573loPI   PO4 9156   8.009  16.520   9.970  0.0547  0.0835  0.0222
  573loPI   GL1 9157   7.905  16.516   9.573 -0.1989  0.3465  0.0071
  573loPI   GL2 9158   8.251  16.562   9.523 -0.3102  0.1560  0.0028
  573loPI   C1A 9159   7.834  16.867   9.331  0.1331 -0.1268 -0.3748
  573loPI   C2A 9160   7.996  17.105   8.948  0.2669  0.0637  0.2901
  573loPI   C3A 9161   8.089  17.248   8.577  0.2595 -0.0038 -0.3053
  573loPI   C4A 9162   8.109  17.321   8.151 -0.0176 -0.0850 -0.0517
  573loPI   C5A 9163   8.076  17.534   7.753  0.0636 -0.2070 -0.2227
  573loPI   C6A 9164   7.891  17.321   7.442 -0.0188  0.3794  0.0957
  573loPI   C1B 9165   8.134  16.525   9.016 -0.1520  0.2034 -0.3474
  573loPI   C2B 9166   8.219  16.656   8.559 -0.1678 -0.0547  0.1217
  573loPI   C3B 9167   8.149  16.807   8.209 -0.1102 -0.3617  0.0435
  573loPI   C4B 9168   8.009  16.948   7.768  0.1393 -0.2556 -0.0091
  574loPI    C1 9169  13.823   5.423   9.575  0.0571  0.1234 -0.0443
  574loPI    C2 9170  13.631   5.090   9.686  0.0411  0.1129 -0.1037
  574loPI    C3 9171  13.529   5.442   9.847  0.0270  0.0956 -0.0748
  574loPI   PO4 9172  13.976   5.408   9.346  0.0600 -0.1820 -0.0474
  574loPI   GL1 9173  14.080   5.481   8.942  0.3645 -0.1093  0.0252
  574loPI   GL2 9174  13.946   5.664   8.832  0.3594 -0.0134 -0.0467
  574loPI   C1A 9175  14.339   5.493   8.472  0.0140 -0.0170 -0.0527
  574loPI   C2A 9176  14.291   5.500   8.124 -0.3881  0.1144  0.1231
  574loPI   C3A 9177  14.646   5.689   7.739  0.3024  0.0634  0.2680
  574loPI   C4A 9178  15.027   5.709   7.459  0.0929 -0.3250 -0.1635
  574loPI   C5A 9179  15.100   6.049   7.134  0.0287 -0.2480  0.1620
  574loPI   C6A 9180  15.169   6.252   6.723  0.3845 -0.2755 -0.1726
  574loPI   C1B 9181  13.785   5.664   8.338  0.3955 -0.2226  0.1387
  574loPI   C2B 9182  13.669   5.706   7.976 -0.4309 -0.1027  0.0181
  574loPI   C3B 9183  13.527   5.609   7.583 -0.2961  0.0820  0.1072
  574loPI   C4B 9184  13.345   6.059   7.325 -0.3685  0.0261 -0.2946
  575loPI    C1 9185  18.705   1.606   9.802 -0.2091  0.2339  0.2366
  575loPI    C2 9186  18.971   1.710  10.083 -0.0331  0.2627  0.0613
  575loPI    C3 9187  18.641   1.508  10.185  0.2711 -0.1659  0.2243
  575loPI   PO4 9188  18.832   1.456   9.598 -0.1454 -0.1249 -0.0789
  575loPI   GL1 9189  19.092   1.394   9.298 -0.2115  0.0484  0.1066
  575loPI   GL2 9190  18.928   1.652   9.094 -0.1023 -0.2693  0.0561
  575loPI   C1A 9191  19.303   1.368   8.845 -0.0338  0.4218 -0.1304
  575loPI   C2A 9192  19.315   1.456   8.441 -0.2916  0.0190 -0.1816
  575loPI   C3A 9193  19.303   1.498   8.004 -0.0690  0.0591  0.1664
  575loPI   C4A 9194  19.320   1.537   7.505  0.0835  0.2655 -0.1417
  575loPI   C5A 9195  19.414   1.813   7.087  0.1862  0.3011  0.1796
  575loPI   C6A 9196  19.051   2.161   6.945 -0.4453 -0.3054 -0.0967
  575loPI   C1B 9197  18.746   1.616   8.768 -0.0672  0.1837 -0.1282
  575loPI   C2B 9198  18.797   1.540   8.292 -0.3599  0.0836  0.0812
  575loPI   C3B 9199  18.760   1.504   7.783  0.2332  0.3270  0.2108
  575loPI   C4B 9200  18.551   1.528   7.329 -0.0004  0.2157  0.2877
  576loPI    C1 9201   9.481   6.432   9.626  0.1857 -0.0448 -0.0859
  576loPI    C2 9202   9.862   6.310   9.621  0.1572 -0.1379 -0.0257
  576loPI    C3 9203   9.763   6.652   9.804  0.1970 -0.1650  0.0471
  576loPI   PO4 9204   9.406   6.324   9.317 -0.0301  0.1869 -0.2681
  576loPI   GL1 9205   9.338   6.193   8.822 -0.0006  0.0714 -0.1034
  576loPI   GL2 9206   9.426   5.837   8.752  0.0996  0.2013  0.1228
  576loPI   C1A 9207   9.339   6.451   8.502 -0.1750  0.1055 -0.1255
  576loPI   C2A 9208   9.284   6.623   8.134 -0.3061  0.1443 -0.0973
  576loPI   C3A 9209   9.333   6.611   7.689  0.0916  0.4424  0.0429
  576loPI   C4A 9210   9.262   6.672   7.318 -0.1428  0.1003 -0.3596
  576loPI   C5A 9211   9.177   6.659   6.896  0.0067 -0.0094 -0.0027
  576loPI   C6A 9212   9.108   6.504   6.480  0.2509 -0.5108  0.1330
  576loPI   C1B 9213   9.511   5.968   8.299  0.0472 -0.5469 -0.3785
  576loPI   C2B 9214   9.529   6.196   7.991  0.3391 -0.0587 -0.1107
  576loPI   C3B 9215   9.383   6.165   7.466  0.0776 -0.1016 -0.1660
  576loPI   C4B 9216   9.483   6.050   6.992  0.0219 -0.3358 -0.3347
  577loPI    C1 9217  13.392   8.241   9.904  0.1978  0.1625  0.4076
  577loPI    C2 9218  13.390   8.036  10.247 -0.0894  0.3912  0.5477
  577loPI    C3 9219  13.045   8.145  10.078  0.0434  0.1126  0.0791
  577loPI   PO4 9220  13.496   8.025   9.687 -0.2991  0.0535 -0.0867
  577loPI   GL1 9221  13.792   7.910   9.311  0.0628  0.2514 -0.0615
  577loPI   GL2 9222  14.134   8.010   9.244 -0.1083 -0.0991 -0.1904
  577loPI   C1A 9223  13.512   8.096   9.048  0.0115 -0.0452 -0.2182
  577loPI   C2A 9224  13.327   8.079   8.597 -0.0230  0.0000  0.1136
  577loPI   C3A 9225  13.400   8.090   8.175 -0.1061  0.0718  0.2343
  577loPI   C4A 9226  13.451   8.301   7.774 -0.1617  0.2226  0.5057
  577loPI   C5A 9227  13.340   8.473   7.370 -0.1287  0.1896 -0.3543
  577loPI   C6A 9228  12.997   8.297   7.232 -0.4480  0.1741 -0.2042
  577loPI   C1B 9229  13.982   7.889   8.793  0.0412 -0.0539 -0.2477
  577loPI   C2B 9230  13.853   8.115   8.395 -0.0237  0.0370 -0.4594
  577loPI   C3B 9231  13.845   8.179   8.003 -0.1163 -0.1087  0.1525
  577loPI   C4B 9232  13.962   8.361   7.601  0.1486 -0.1564 -0.0372
  578loPI    C1 9233  17.173  17.405  10.165 -0.1328 -0.0823  0.1016
  578loPI    C2 9234  17.201  17.481  10.557  0.0068  0.0796  0.0611
  578loPI    C3 9235  16.844  17.483  10.378 -0.0182  0.4192  0.1080
  578loPI   PO4 9236  17.259  17.279  10.092  0.2229 -0.2580  0.3080
  578loPI   GL1 9237  17.408  17.263   9.618  0.1366 -0.3365 -0.2644
  578loPI   GL2 9238  17.617  17.014   9.413  0.1901 -0.0070  0.1829
  578loPI   C1A 9239  17.324  17.392   9.196 -0.0813  0.3437  0.0033
  578loPI   C2A 9240  17.253  17.258   8.806 -0.2651  0.1573 -0.0636
  578loPI   C3A 9241  17.086  17.141   8.394 -0.0686  0.2349 -0.0475
  578loPI   C4A 9242  17.153  17.042   7.936  0.1359  0.0120  0.1254
  578loPI   C5A 9243  17.145  16.753   7.529 -0.2320  0.2335  0.1203
  578loPI   C6A 9244  17.008  16.388   7.297  0.1431 -0.0102  0.3705
  578loPI   C1B 9245  17.540  16.891   9.040  0.1707 -0.0225  0.5237
  578loPI   C2B 9246  17.402  16.819   8.617 -0.1986 -0.0235  0.0422
  578loPI   C3B 9247  17.430  16.744   8.214 -0.0525 -0.0509 -0.3375
  578loPI   C4B 9248  17.557  16.502   7.903 -0.6643  0.1029  0.1419
  579loPI    C1 9249   4.416  14.944   9.804  0.2647  0.1236  0.0304
  579loPI    C2 9250   4.422  14.563   9.927  0.1906  0.0390 -0.2231
  579loPI    C3 9251   4.688  14.824  10.073  0.0991 -0.0552  0.1207
  579loPI   PO4 9252   4.352  14.956   9.537  0.1049  0.0943 -0.0819
  579loPI   GL1 9253   4.396  14.832   9.089 -0.0425  0.0293  0.0029
  579loPI   GL2 9254   4.103  14.968   9.059  0.1551 -0.1154  0.5296
  579loPI   C1A 9255   4.307  14.703   8.696 -0.0155 -0.2048  0.2052
  579loPI   C2A 9256   4.301  14.764   8.273 -0.0016 -0.1360 -0.0098
  579loPI   C3A 9257   4.415  14.924   8.015 -0.2019  0.2055 -0.1482
  579loPI   C4A 9258   4.296  15.066   7.585 -0.0765  0.1306  0.1212
  579loPI   C5A 9259   4.114  15.013   7.156  0.1261 -0.1117  0.0275
  579loPI   C6A 9260   3.771  14.836   7.107  0.2547  0.4644  0.2761
  579loPI   C1B 9261   3.983  15.154   8.661  0.0691 -0.0498  0.0778
  579loPI   C2B 9262   3.831  15.034   8.204 -0.0437 -0.1747  0.1205
  579loPI   C3B 9263   3.961  14.783   7.880 -0.2753  0.1942 -0.1947
  579loPI   C4B 9264   4.183  14.520   7.665 -0.1781  0.2287 -0.2404
  580loPI    C1 9265   0.952  12.805  10.496 -0.0110  0.2191 -0.0387
  580loPI    C2 9266   1.025  13.157  10.320  0.1406  0.1116 -0.1939
  580loPI    C3 9267   1.030  13.128  10.719  0.0652  0.2979 -0.1783
  580loPI   PO4 9268   0.831  12.666  10.247  0.3822  0.1755  0.1003
  580loPI   GL1 9269   0.727  12.942   9.960 -0.0168  0.2391  0.0011
  580loPI   GL2 9270   0.472  12.676   9.777  0.0691  0.1561 -0.4583
  580loPI   C1A 9271   0.460  13.159   9.639  0.1100  0.3341  0.1433
  580loPI   C2A 9272   0.595  13.075   9.187 -0.0020  0.5272 -0.2423
  580loPI   C3A 9273   0.893  13.003   8.865 -0.0486 -0.0042 -0.0581
  580loPI   C4A 9274   0.979  13.058   8.385  0.0223  0.1642 -0.0601
  580loPI   C5A 9275   0.997  13.144   7.963  0.0794  0.4542 -0.0913
  580loPI   C6A 9276   0.945  13.088   7.547 -0.2575  0.3018 -0.1040
  580loPI   C1B 9277   0.337  12.637   9.350  0.0534  0.0665  0.1037
  580loPI   C2B 9278   0.331  12.786   8.874 -0.2323  0.3108  0.1587
  580loPI   C3B 9279   0.134  12.882   8.426 -0.2045  0.0335  0.1679
  580loPI   C4B 9280   0.021  13.072   7.966 -0.3866 -0.2151 -0.0590
  581loPI    C1 9281  11.840   1.683   9.966 -0.1255  0.2447  0.0790
  581loPI    C2 9282  11.666   1.735  10.322 -0.1101 -0.4963  0.2108
  581loPI    C3 9283  12.063   1.695  10.297 -0.0555  0.0699  0.0398
  581loPI   PO4 9284  11.664   1.516   9.836 -0.1466 -0.0832  0.3442
  581loPI   GL1 9285  11.621   1.390   9.352  0.0149  0.1014 -0.1086
  581loPI   GL2 9286  11.852   1.489   9.168 -0.2343  0.0713  0.0475
  581loPI   C1A 9287  11.449   1.252   9.079  0.0178 -0.1931 -0.2188
  581loPI   C2A 9288  11.613   1.206   8.683  0.1696  0.1170  0.3163
  581loPI   C3A 9289  11.536   1.213   8.190  0.0392 -0.1091  0.2021
  581loPI   C4A 9290  11.568   1.214   7.848  0.0793 -0.3761 -0.0642
  581loPI   C5A 9291  11.815   0.986   7.536 -0.1853 -0.1333  0.0598
  581loPI   C6A 9292  11.795   0.666   7.167 -0.0496 -0.0351  0.1601
  581loPI   C1B 9293  12.035   1.507   8.779  0.1982 -0.2081  0.0711
  581loPI   C2B 9294  11.981   1.640   8.298  0.0625 -0.2122 -0.2556
  581loPI   C3B 9295  11.912   1.551   7.940  0.1305 -0.2079 -0.1813
  581loPI   C4B 9296  11.924   1.584   7.585 -0.3749  0.2631  0.0680
  582loPI    C1 9297  15.183  14.427  10.406  0.3575  0.2395 -0.2276
  582loPI    C2 9298  15.455  14.557  10.668  0.2834  0.2655 -0.1631
  582loPI    C3 9299  15.078  14.496  10.786  0.3267 -0.0501 -0.1816
  582loPI   PO4 9300  15.335  14.317  10.231 -0.0909  0.1393  0.0349
  582loPI   GL1 9301  15.288  14.187   9.854 -0.1402 -0.2366  0.1461
  582loPI   GL2 9302  15.087  13.980   9.762 -0.0263  0.4786  0.1790
  582loPI   C1A 9303  15.501  14.279   9.531 -0.2580  0.3334  0.2267
  582loPI   C2A 9304  15.818  14.393   9.314 -0.1590 -0.0414  0.2287
  582loPI   C3A 9305  15.839  14.438   8.981 -0.0388  0.2876  0.1058
  582loPI   C4A 9306  15.869  14.547   8.552  0.1930  0.0097 -0.5002
  582loPI   C5A 9307  15.741  14.516   8.249 -0.1908  0.1716 -0.0530
  582loPI   C6A 9308  15.945  14.565   7.861  0.1684 -0.2069  0.0786
  582loPI   C1B 9309  15.101  14.102   9.316 -0.1395  0.0237 -0.0216
  582loPI   C2B 9310  14.908  14.195   8.875 -0.0102 -0.1948  0.0061
  582loPI   C3B 9311  14.826  14.302   8.419 -0.0104 -0.0968  0.2178
  582loPI   C4B 9312  14.831  14.186   8.055 -0.3067  0.1157  0.2176
  583loPI    C1 9313   4.261  13.614   9.505  0.0065  0.1724  0.1288
  583loPI    C2 9314   4.147  13.994   9.561 -0.2855  0.1356 -0.1866
  583loPI    C3 9315   3.972  13.700   9.769  0.3884  0.2185  0.5451
  583loPI   PO4 9316   4.508  13.661   9.446  0.1070  0.2397 -0.0091
  583loPI   GL1 9317   4.545  13.715   8.972  0.0526  0.2243  0.1277
  583loPI   GL2 9318   4.176  13.550   8.911  0.1659  0.0787  0.0020
  583loPI   C1A 9319   4.904  13.660   8.745 -0.1603  0.0883  0.1888
  583loPI   C2A 9320   4.952  13.549   8.297 -0.2040 -0.0919 -0.0177
  583loPI   C3A 9321   5.200  13.328   7.966  0.1301  0.1229 -0.1254
  583loPI   C4A 9322   5.242  13.185   7.605  0.1504 -0.2133 -0.2999
  583loPI   C5A 9323   5.265  13.434   7.171 -0.1843  0.1870 -0.1772
  583loPI   C6A 9324   5.172  13.928   7.066 -0.0894 -0.3126 -0.1330
  583loPI   C1B 9325   4.362  13.717   8.533 -0.0028 -0.2778  0.0771
  583loPI   C2B 9326   4.681  13.942   8.354 -0.0513 -0.1028  0.1394
  583loPI   C3B 9327   4.724  13.861   7.966 -0.2826  0.0907 -0.1648
  583loPI   C4B 9328   4.703  14.042   7.602  0.0069 -0.0749 -0.0587
  584loPI    C1 9329   9.220  16.861   9.958  0.1218  0.2157  0.0771
  584loPI    C2 9330   9.458  16.983  10.255  0.2291 -0.1683  0.1550
  584loPI    C3 9331   9.141  16.753  10.335  0.0937 -0.0379  0.0005
  584loPI   PO4 9332   9.166  17.114   9.824  0.1863 -0.1828 -0.0635
  584loPI   GL1 9333   9.201  17.313   9.417 -0.2045  0.1122  0.0473
  584loPI   GL2 9334   9.455  17.062   9.417 -0.3423  0.1265  0.3433
  584loPI   C1A 9335   9.113  17.213   8.953 -0.1949  0.0297  0.2373
  584loPI   C2A 9336   9.035  17.151   8.648  0.2240  0.2479  0.1436
  584loPI   C3A 9337   9.075  17.116   8.210 -0.0322 -0.0990 -0.0395
  584loPI   C4A 9338   8.956  17.129   7.742 -0.0228 -0.1294  0.2556
  584loPI   C5A 9339   8.964  16.819   7.326 -0.1111  0.0156 -0.0747
  584loPI   C6A 9340   8.798  17.089   6.955 -0.0558  0.1873 -0.1925
  584loPI   C1B 9341   9.331  16.665   9.129 -0.1697  0.0928 -0.3480
  584loPI   C2B 9342   9.143  16.665   8.672 -0.2188 -0.0089 -0.1619
  584loPI   C3B 9343   9.183  16.611   8.231 -0.1142  0.0552 -0.0927
  584loPI   C4B 9344   9.202  16.658   7.805  0.0617  0.0069  0.2777
  585loPI    C1 9345   8.039  14.260  10.027  0.0216 -0.0321  0.0091
  585loPI    C2 9346   7.670  14.356   9.905  0.0805 -0.0053 -0.1511
  585loPI    C3 9347   7.721  14.111  10.218 -0.0718  0.1577  0.0036
  585loPI   PO4 9348   8.171  14.243   9.838 -0.0428  0.4521  0.0632
  585loPI   GL1 9349   8.132  14.220   9.368 -0.1454 -0.2020 -0.0033
  585loPI   GL2 9350   8.377  14.229   9.144 -0.1788 -0.0515  0.0473
  585loPI   C1A 9351   7.912  13.959   9.067 -0.0567  0.0816 -0.2485
  585loPI   C2A 9352   7.687  13.879   8.751  0.0829  0.0403  0.2214
  585loPI   C3A 9353   7.695  13.773   8.262 -0.1616 -0.0301  0.1788
  585loPI   C4A 9354   7.810  13.841   7.789  0.3436  0.1035  0.0361
  585loPI   C5A 9355   7.764  13.950   7.358 -0.1990 -0.0566  0.1007
  585loPI   C6A 9356   7.709  14.039   6.984  0.1453 -0.0328 -0.3103
  585loPI   C1B 9357   8.290  14.229   8.749 -0.1372  0.0207 -0.0484
  585loPI   C2B 9358   8.561  14.370   8.403  0.1312 -0.4274  0.1865
  585loPI   C3B 9359   8.637  14.206   8.038  0.3583 -0.1836 -0.0824
  585loPI   C4B 9360   8.576  14.440   7.773 -0.0689 -0.0554  0.3470
  586loPI    C1 9361   4.815   5.298   9.431 -0.1390  0.1104  0.2083
  586loPI    C2 9362   4.458   5.275   9.253 -0.0416 -0.2508  0.0502
  586loPI    C3 9363   4.492   5.198   9.644 -0.1537 -0.0965  0.0915
  586loPI   PO4 9364   4.969   5.557   9.320  0.2133  0.1734 -0.0020
  586loPI   GL1 9365   5.113   5.622   8.951 -0.0038 -0.0774  0.0430
  586loPI   GL2 9366   5.443   5.551   8.752  0.1488  0.0304 -0.0115
  586loPI   C1A 9367   5.153   5.922   8.668  0.0544 -0.0243 -0.0751
  586loPI   C2A 9368   5.400   6.116   8.289  0.0472  0.0470 -0.3032
  586loPI   C3A 9369   5.495   6.140   7.884  0.1427  0.1828 -0.1687
  586loPI   C4A 9370   5.250   5.999   7.552 -0.0480 -0.1341 -0.0949
  586loPI   C5A 9371   5.010   6.152   7.231 -0.2780 -0.0629 -0.0909
  586loPI   C6A 9372   5.102   6.462   6.879  0.1124  0.2495  0.1642
  586loPI   C1B 9373   5.342   5.582   8.336  0.0347 -0.2638 -0.1776
  586loPI   C2B 9374   5.328   5.605   7.877 -0.3985  0.0764 -0.0986
  586loPI   C3B 9375   5.573   5.662   7.547  0.3489  0.0255  0.0650
  586loPI   C4B 9376   5.496   5.759   7.130  0.0630  0.0131 -0.1255
  587loPI    C1 9377   2.875  12.346   9.593  0.0719  0.0174  0.1696
  587loPI    C2 9378   2.935  12.110   9.910  0.1241 -0.0304  0.1243
  587loPI    C3 9379   3.248  12.266   9.715  0.0894  0.0878  0.1629
  587loPI   PO4 9380   2.752  12.250   9.378 -0.2892 -0.2541 -0.2524
  587loPI   GL1 9381   2.479  12.179   9.145  0.1496  0.1078  0.0340
  587loPI   GL2 9382   2.354  12.418   8.901 -0.0776 -0.0919 -0.0560
  587loPI   C1A 9383   2.677  12.106   8.710  0.0545  0.0403  0.0435
  587loPI   C2A 9384   2.440  12.037   8.308 -0.2191  0.0617  0.4664
  587loPI   C3A 9385   2.368  11.981   7.921 -0.0836 -0.0700 -0.1815
  587loPI   C4A 9386   2.401  12.086   7.515  0.0476  0.3919  0.2614
  587loPI   C5A 9387   2.139  11.996   7.102  0.1828 -0.3418  0.1741
  587loPI   C6A 9388   1.971  11.966   6.737  0.4156 -0.0500 -0.1344
  587loPI   C1B 9389   2.242  12.567   8.557 -0.0988  0.0632  0.2120
  587loPI   C2B 9390   2.316  12.511   8.078  0.2717  0.3408  0.1760
  587loPI   C3B 9391   2.463  12.565   7.531  0.1235  0.1049  0.1305
  587loPI   C4B 9392   2.096  12.412   7.388  0.1119  0.0729  0.2051
  588loPI    C1 9393   5.002   9.921   9.741  0.0283 -0.1057  0.0622
  588loPI    C2 9394   4.869   9.719  10.060 -0.0271 -0.2114 -0.0272
  588loPI    C3 9395   5.249   9.843  10.045 -0.1059  0.0719  0.2198
  588loPI   PO4 9396   4.829   9.726   9.533  0.1509  0.2598  0.2714
  588loPI   GL1 9397   4.842   9.518   9.144 -0.1813 -0.1484 -0.0458
  588loPI   GL2 9398   4.583   9.710   9.087  0.0454 -0.2092  0.1012
  588loPI   C1A 9399   5.111   9.699   8.867 -0.0284 -0.1059  0.1377
  588loPI   C2A 9400   5.363  10.012   8.636 -0.2042  0.2660  0.0693
  588loPI   C3A 9401   5.381  10.095   8.225 -0.1423 -0.0731 -0.1917
  588loPI   C4A 9402   5.586   9.871   7.813 -0.0328  0.0998  0.1791
  588loPI   C5A 9403   5.589   9.963   7.364 -0.0350  0.0505 -0.2905
  588loPI   C6A 9404   5.808  10.137   7.046 -0.3704  0.4360  0.3887
  588loPI   C1B 9405   4.670   9.725   8.697 -0.0686  0.7893  0.0273
  588loPI   C2B 9406   4.957   9.805   8.397  0.2920 -0.0855  0.2404
  588loPI   C3B 9407   4.958   9.823   7.964  0.3827  0.2350  0.3553
  588loPI   C4B 9408   4.544   9.559   7.762 -0.0027  0.0313 -0.0376
  589loPI    C1 9409   1.342  17.062   9.666 -0.1605 -0.3416  0.0713
  589loPI    C2 9410   1.651  16.815   9.609 -0.0572 -0.1552 -0.1976
  589loPI    C3 9411   1.625  17.029   9.946 -0.0597 -0.4042 -0.0372
  589loPI   PO4 9412   1.398  17.249   9.449 -0.1171  0.5766  0.0898
  589loPI   GL1 9413   1.048  17.153   9.089  0.0410  0.3129  0.2645
  589loPI   GL2 9414   0.927  16.922   9.412 -0.1628  0.0760 -0.2060
  589loPI   C1A 9415   1.004  17.228   8.702  0.1290  0.0591  0.3571
  589loPI   C2A 9416   0.938  17.381   8.277  0.1034  0.0494  0.0323
  589loPI   C3A 9417   1.077  17.647   7.945  0.0819  0.0359  0.0946
  589loPI   C4A 9418   1.205  17.985   7.641 -0.0506 -0.2777  0.5744
  589loPI   C5A 9419   1.059  17.928   7.226 -0.0674 -0.0862 -0.0457
  589loPI   C6A 9420   0.569  18.010   7.309  0.1480 -0.1497  0.2306
  589loPI   C1B 9421   0.603  17.071   9.188  0.0070 -0.1999 -0.0623
  589loPI   C2B 9422   0.475  17.248   8.859  0.1456  0.1366  0.1459
  589loPI   C3B 9423   0.558  17.473   8.555  0.3207  0.2495 -0.1077
  589loPI   C4B 9424   0.512  17.508   8.050  0.1696  0.2160 -0.0231
  590loPI    C1 9425  10.333   7.450   9.912  0.0557  0.1098  0.1624
  590loPI    C2 9426  10.135   7.719  10.132  0.2407  0.2542  0.1552
  590loPI    C3 9427  10.382   7.459  10.309  0.0578  0.0826  0.1628
  590loPI   PO4 9428  10.442   7.556   9.726  0.0885 -0.0197  0.1406
  590loPI   GL1 9429  10.390   7.728   9.393 -0.1399 -0.1225 -0.1878
  590loPI   GL2 9430  10.458   8.002   9.310 -0.1221  0.1903  0.2208
  590loPI   C1A 9431  10.406   7.553   8.918 -0.1797 -0.0110 -0.2462
  590loPI   C2A 9432  10.141   7.524   8.504  0.0190  0.0241 -0.2053
  590loPI   C3A 9433  10.033   7.395   8.112  0.0165  0.0477 -0.0250
  590loPI   C4A 9434  10.013   7.311   7.661  0.0032 -0.0694  0.2573
  590loPI   C5A 9435  10.113   6.991   7.185 -0.0158  0.0465  0.0603
  590loPI   C6A 9436  10.395   6.772   6.891  0.4717 -0.0383 -0.2260
  590loPI   C1B 9437  10.379   8.029   8.818 -0.0636 -0.1557 -0.2687
  590loPI   C2B 9438  10.248   8.322   8.494 -0.0281 -0.0099 -0.1915
  590loPI   C3B 9439   9.940   8.361   8.177 -0.3365 -0.0478  0.0382
  590loPI   C4B 9440   9.605   8.647   8.226  0.2157 -0.1352  0.4613
  591POPI    C1 9441   8.858   5.072   9.306 -0.0317  0.3125  0.2480
  591POPI    C2 9442   8.524   4.966   9.113  0.1143  0.1293  0.0918
  591POPI    C3 9443   8.501   5.120   9.482 -0.1518  0.2692  0.0203
  591POPI   PO4 9444   9.025   5.222   9.161  0.1694 -0.1541 -0.2897
  591POPI   GL1 9445   9.121   5.354   8.745  0.0341 -0.0720 -0.1335
  591POPI   GL2 9446   8.731   5.360   8.773  0.1418  0.0750  0.4407
  591POPI   C1A 9447   9.478   5.481   8.415  0.1225 -0.2499 -0.4660
  591POPI   D2A 9448   9.583   5.520   8.119  0.0458  0.1410 -0.1269
  591POPI   C3A 9449   9.336   5.214   7.897 -0.2635 -0.0058  0.2829
  591POPI   C4A 9450   9.015   5.038   7.825 -0.1969 -0.3030  0.0669
  591POPI   C1B 9451   8.771   5.318   8.354  0.0694 -0.1940  0.1360
  591POPI   C2B 9452   8.815   5.446   7.990  0.3282  0.1099  0.4192
  591POPI   C3B 9453   8.597   5.305   7.613  0.3043 -0.1042  0.0774
  591POPI   C4B 9454   8.668   5.119   7.269  0.1738  0.3980 -0.1832
  592POPI    C1 9455   8.954   8.484   9.564 -0.0768 -0.2024  0.0346
  592POPI    C2 9456   8.951   8.172   9.815 -0.0075 -0.1572  0.0922
  592POPI    C3 9457   8.872   8.540   9.952 -0.2051 -0.1650  0.0026
  592POPI   PO4 9458   8.757   8.416   9.331  0.0734 -0.1312 -0.1600
  592POPI   GL1 9459   8.569   8.261   8.928  0.0529 -0.2973 -0.0660
  592POPI   GL2 9460   8.577   8.486   8.751  0.1651  0.3010  0.0109
  592POPI   C1A 9461   8.914   7.991   8.718 -0.0068  0.0322  0.0819
  592POPI   D2A 9462   9.030   7.761   8.302 -0.1508  0.0741 -0.1154
  592POPI   C3A 9463   9.118   7.962   7.867 -0.1157  0.0037 -0.1797
  592POPI   C4A 9464   9.236   7.944   7.474 -0.1349 -0.2490 -0.6061
  592POPI   C1B 9465   8.703   8.277   8.384 -0.0786 -0.1104 -0.2312
  592POPI   C2B 9466   8.614   8.170   7.955  0.3997  0.1210 -0.1911
  592POPI   C3B 9467   8.719   8.016   7.530 -0.1360  0.0210 -0.2139
  592POPI   C4B 9468   8.867   7.952   7.072 -0.0398  0.1686  0.0981
  593POPI    C1 9469   3.211   9.281  10.050  0.0880 -0.0531  0.0974
  593POPI    C2 9470   3.019   9.009  10.272 -0.0476 -0.0493 -0.0146
  593POPI    C3 9471   2.952   9.399  10.331 -0.0053 -0.0457  0.0088
  593POPI   PO4 9472   3.094   9.161   9.738 -0.0069  0.2161 -0.1963
  593POPI   GL1 9473   3.098   9.330   9.355 -0.1354 -0.0463 -0.0087
  593POPI   GL2 9474   3.448   9.447   9.396 -0.0510 -0.0908 -0.0841
  593POPI   C1A 9475   2.878   9.345   8.997  0.0312  0.0272  0.0870
  593POPI   D2A 9476   2.948   9.174   8.610  0.1205  0.3406 -0.1274
  593POPI   C3A 9477   2.839   9.369   8.256  0.0887  0.3741 -0.0055
  593POPI   C4A 9478   2.845   9.246   7.730 -0.0605  0.0612 -0.1041
  593POPI   C1B 9479   3.716   9.497   9.080 -0.2121 -0.0890  0.0588
  593POPI   C2B 9480   3.846   9.444   8.575 -0.0465  0.2804 -0.1062
  593POPI   C3B 9481   3.794   9.392   8.164 -0.0767 -0.4170 -0.1492
  593POPI   C4B 9482   3.698   9.348   7.663 -0.0877  0.0145 -0.2254
  594POPI    C1 9483  10.068  17.201   9.606 -0.1727  0.2648  0.3173
  594POPI    C2 9484  10.275  17.149   9.944 -0.0773 -0.0212  0.2176
  594POPI    C3 9485   9.881  17.079   9.938 -0.0354 -0.2662  0.2089
  594POPI   PO4 9486  10.190  17.472   9.525  0.0913  0.0728 -0.1324
  594POPI   GL1 9487   9.954  17.733   9.238  0.1201 -0.1830 -0.0997
  594POPI   GL2 9488  10.277  17.898   9.228 -0.0709 -0.0408 -0.0491
  594POPI   C1A 9489   9.536  17.693   9.129  0.0434  0.5169  0.2425
  594POPI   D2A 9490   9.380  17.588   8.746  0.1898  0.2771 -0.2420
  594POPI   C3A 9491   9.392  17.628   8.333  0.0727 -0.1115 -0.0619
  594POPI   C4A 9492   9.325  17.399   7.867  0.0376  0.0742 -0.2451
  594POPI   C1B 9493  10.338  17.939   8.839 -0.2786  0.1161 -0.0979
  594POPI   C2B 9494  10.312  17.699   8.418  0.2788 -0.2895  0.1175
  594POPI   C3B 9495  10.397  17.575   8.075  0.0450 -0.0803 -0.3220
  594POPI   C4B 9496  10.466  17.393   7.732  0.2196  0.0677  0.0807
  595POPI    C1 9497  18.522  16.913  10.233 -0.0764  0.0368 -0.0356
  595POPI    C2 9498  18.596  16.552  10.387  0.0991  0.1157  0.0680
  595POPI    C3 9499  18.365  16.810  10.587 -0.0456  0.0531 -0.0171
  595POPI   PO4 9500  18.678  17.095  10.171  0.3959  0.0873 -0.0398
  595POPI   GL1 9501  18.736  17.168   9.699 -0.4638 -0.2783  0.0116
  595POPI   GL2 9502  18.642  16.882   9.548  0.3475 -0.5575  0.0063
  595POPI   C1A 9503  18.925  17.319   9.384 -0.0706  0.3772 -0.1106
  595POPI   D2A 9504  18.966  17.281   8.979  0.0380 -0.1687  0.3043
  595POPI   C3A 9505  19.404  17.306   8.767 -0.1158 -0.1560 -0.2838
  595POPI   C4A 9506  19.421  17.257   8.364 -0.1887 -0.3589  0.2140
  595POPI   C1B 9507  18.489  16.728   9.112 -0.2842 -0.0946 -0.3886
  595POPI   C2B 9508  18.472  16.597   8.648 -0.0182 -0.0177 -0.4848
  595POPI   C3B 9509  18.710  16.580   8.325  0.0447 -0.0655 -0.2311
  595POPI   C4B 9510  18.724  16.814   7.951  0.1955  0.0142  0.1401
  596POPI    C1 9511   0.405  11.278  10.057 -0.0324  0.1409  0.1477
  596POPI    C2 9512   0.673  11.012   9.926 -0.1035  0.1046  0.0746
  596POPI    C3 9513   0.796  11.354  10.093 -0.0118  0.0293  0.1628
  596POPI   PO4 9514   0.198  11.277   9.881 -0.3467 -0.0329 -0.0997
  596POPI   GL1 9515   0.139  11.397   9.587 -0.1156 -0.1129  0.1660
  596POPI   GL2 9516   0.014  11.411   9.370  0.0708 -0.2120 -0.0098
  596POPI   C1A 9517   0.466  11.630   9.339  0.1692 -0.1315 -0.0794
  596POPI   D2A 9518   0.435  11.738   8.915 -0.0080 -0.1273 -0.0096
  596POPI   C3A 9519   0.439  11.693   8.508 -0.3063 -0.1789  0.1192
  596POPI   C4A 9520   0.415  11.979   8.099  0.0402 -0.0072  0.3223
  596POPI   C1B 9521   0.039  11.324   8.958 -0.1150 -0.1445 -0.1076
  596POPI   C2B 9522   0.068  11.313   8.475 -0.1680 -0.4102 -0.1622
  596POPI   C3B 9523   0.071  11.511   8.071  0.0602  0.1521 -0.0965
  596POPI   C4B 9524   0.301  11.617   7.730 -0.0155 -0.4287 -0.0564
  597POPI    C1 9525   4.938  10.896   9.949  0.0700 -0.0776  0.1058
  597POPI    C2 9526   5.301  10.729   9.944  0.1864  0.1733 -0.0389
  597POPI    C3 9527   5.119  10.800  10.293  0.4803  0.4752  0.0579
  597POPI   PO4 9528   4.985  11.104   9.672  0.2043 -0.0892 -0.1063
  597POPI   GL1 9529   4.926  10.952   9.330 -0.0962  0.4607 -0.3120
  597POPI   GL2 9530   5.216  10.708   9.260  0.0267  0.1151  0.0847
  597POPI   C1A 9531   4.993  10.851   8.855 -0.0056 -0.0683  0.2062
  597POPI   D2A 9532   4.939  10.858   8.554 -0.1275  0.0764  0.0118
  597POPI   C3A 9533   5.054  11.224   8.397 -0.2131  0.2833  0.3220
  597POPI   C4A 9534   4.964  11.385   7.983 -0.0010 -0.3961 -0.3109
  597POPI   C1B 9535   5.472  10.550   8.947  0.1369 -0.0839 -0.0733
  597POPI   C2B 9536   5.436  10.564   8.553  0.1738  0.3082 -0.2333
  597POPI   C3B 9537   5.306  10.797   8.175  0.0006 -0.1753 -0.3112
  597POPI   C4B 9538   5.339  10.473   7.884  0.3051 -0.1505  0.1645
  598POPI    C1 9539   8.896  10.795   9.987 -0.1649  0.0193 -0.0125
  598POPI    C2 9540   8.912  10.711  10.378 -0.0274  0.3075  0.0457
  598POPI    C3 9541   8.612  10.932  10.233 -0.1418  0.1031 -0.0323
  598POPI   PO4 9542   9.015  10.500   9.852  0.1167 -0.1956  0.0391
  598POPI   GL1 9543   8.918  10.527   9.483 -0.2758 -0.0770 -0.0729
  598POPI   GL2 9544   8.826  10.815   9.531  0.0255  0.2048  0.1964
  598POPI   C1A 9545   8.809  10.418   9.125 -0.3454 -0.0029 -0.1549
  598POPI   D2A 9546   8.791  10.307   8.652 -0.3216  0.2048  0.0395
  598POPI   C3A 9547   9.084  10.342   8.306  0.1106 -0.4552 -0.3840
  598POPI   C4A 9548   9.056  10.432   7.932 -0.1306  0.0071  0.1446
  598POPI   C1B 9549   8.947  11.105   9.210  0.1824 -0.1821 -0.1499
  598POPI   C2B 9550   9.101  11.515   8.990 -0.0200  0.0561  0.1418
  598POPI   C3B 9551   9.011  11.901   8.693 -0.0046  0.1491  0.1549
  598POPI   C4B 9552   9.223  11.969   8.325  0.1856  0.5954  0.2438
  599POPI    C1 9553  11.865   7.117   9.792  0.0671 -0.2965  0.1165
  599POPI    C2 9554  12.101   7.179  10.109 -0.0086  0.0260  0.1132
  599POPI    C3 9555  11.785   7.416  10.045 -0.0855 -0.1347 -0.1180
  599POPI   PO4 9556  11.976   7.100   9.517  0.1134 -0.1771 -0.0342
  599POPI   GL1 9557  12.051   6.980   9.157 -0.0108 -0.1317  0.0332
  599POPI   GL2 9558  11.792   6.745   9.012  0.0845  0.0298 -0.2726
  599POPI   C1A 9559  12.148   6.808   8.696 -0.1538 -0.0339  0.0103
  599POPI   D2A 9560  12.118   6.690   8.266 -0.1560 -0.2562 -0.4620
  599POPI   C3A 9561  12.589   6.647   8.242  0.1762  0.0340  0.1267
  599POPI   C4A 9562  13.059   6.782   8.208  0.0450 -0.0326 -0.1493
  599POPI   C1B 9563  11.670   6.634   8.596  0.2565 -0.0992  0.2044
  599POPI   C2B 9564  11.566   6.850   8.236  0.1224  0.0857 -0.3104
  599POPI   C3B 9565  11.404   7.093   7.883 -0.0023  0.0126  0.1775
  599POPI   C4B 9566  11.698   7.180   7.554  0.3639 -0.1462  0.2933
  600POPI    C1 9567  13.811   0.194  10.053  0.0156 -0.0223 -0.2456
  600POPI    C2 9568  14.165   0.105  10.217 -0.1391 -0.1519  0.0253
  600POPI    C3 9569  13.987   0.452  10.303 -0.0802 -0.0872 -0.1101
  600POPI   PO4 9570  13.798   0.083   9.790 -0.1695 -0.0537  0.1500
  600POPI   GL1 9571  13.894  -0.184   9.441  0.0646 -0.0242 -0.0577
  600POPI   GL2 9572  13.974  -0.392   9.143  0.2089  0.1475  0.0250
  600POPI   C1A 9573  13.787   0.076   9.098  0.1322 -0.1512 -0.1225
  600POPI   D2A 9574  13.624   0.271   8.743  0.0773  0.3609  0.0070
  600POPI   C3A 9575  13.622   0.460   8.385 -0.0183 -0.1579 -0.0961
  600POPI   C4A 9576  13.720   0.408   7.956 -0.1218  0.1523 -0.1487
  600POPI   C1B 9577  13.864  -0.597   8.800  0.2269  0.1823 -0.3786
  600POPI   C2B 9578  13.766  -0.539   8.364 -0.1978  0.0804  0.3517
  600POPI   C3B 9579  13.473  -0.468   8.127  0.0156 -0.1680 -0.1536
  600POPI   C4B 9580  13.285  -0.299   7.725 -0.2250 -0.1580  0.0438
  601POPI    C1 9581  18.647   2.621  10.214  0.0554 -0.3771  0.1828
  601POPI    C2 9582  18.684   2.955  10.432  0.3370 -0.1632 -0.1819
  601POPI    C3 9583  18.976   2.681  10.435  0.3610 -0.1401 -0.3178
  601POPI   PO4 9584  18.557   2.783   9.978  0.2356 -0.0995  0.3722
  601POPI   GL1 9585  18.756   2.836   9.622  0.0458 -0.1323  0.2381
  601POPI   GL2 9586  19.032   2.833   9.538 -0.1914  0.0785  0.0624
  601POPI   C1A 9587  18.871   2.646   9.128  0.0201  0.1830  0.0366
  601POPI   D2A 9588  18.714   2.775   8.728 -0.1931 -0.0251  0.1709
  601POPI   C3A 9589  18.546   2.949   8.420 -0.1270 -0.1712 -0.0993
  601POPI   C4A 9590  18.417   3.012   8.074  0.0622 -0.2127  0.1901
  601POPI   C1B 9591  19.184   3.034   9.068 -0.1154  0.1232 -0.0661
  601POPI   C2B 9592  19.129   3.015   8.600  0.1243  0.0734 -0.1147
  601POPI   C3B 9593  19.173   2.959   8.252 -0.2328  0.4191 -0.0494
  601POPI   C4B 9594  19.225   2.724   7.835 -0.0367 -0.2430 -0.1362
  602POPI    C1 9595   6.242  13.212   9.602 -0.0373 -0.0107 -0.0871
  602POPI    C2 9596   6.619  13.266   9.726 -0.2131  0.2868  0.3402
  602POPI    C3 9597   6.508  13.393   9.364  0.1832 -0.1388  0.0579
  602POPI   PO4 9598   6.124  12.965   9.580 -0.0096  0.0493 -0.2947
  602POPI   GL1 9599   6.006  12.552   9.348 -0.1401  0.2950  0.1201
  602POPI   GL2 9600   6.055  12.226   9.192 -0.0195  0.0723  0.1015
  602POPI   C1A 9601   6.036  12.691   8.915  0.1896 -0.1757 -0.1846
  602POPI   D2A 9602   5.878  12.956   8.561 -0.0739  0.2838 -0.3417
  602POPI   C3A 9603   5.866  12.785   8.190 -0.2432  0.1093  0.1442
  602POPI   C4A 9604   6.011  12.914   7.764  0.1527  0.0995 -0.1306
  602POPI   C1B 9605   5.864  12.125   8.817  0.1481 -0.0691  0.1636
  602POPI   C2B 9606   5.764  12.326   8.420  0.1001 -0.2804 -0.2131
  602POPI   C3B 9607   5.618  12.366   8.030 -0.0078  0.0412 -0.2156
  602POPI   C4B 9608   5.654  12.233   7.627  0.2673  0.2206  0.1478
  603POPI    C1 9609   5.401  14.273   9.984  0.0450 -0.0088 -0.0146
  603POPI    C2 9610   5.092  14.062  10.123 -0.0689  0.2275  0.0967
  603POPI    C3 9611   5.370  14.200  10.376  0.0696  0.1093  0.0100
  603POPI   PO4 9612   5.418  14.097   9.724  0.1202  0.2522 -0.1583
  603POPI   GL1 9613   5.540  14.217   9.263 -0.2808  0.2508 -0.0841
  603POPI   GL2 9614   5.199  14.397   9.398 -0.5468 -0.0544 -0.2562
  603POPI   C1A 9615   5.315  13.968   8.866 -0.1941  0.1751  0.1181
  603POPI   D2A 9616   5.400  13.856   8.562 -0.1148  0.1429  0.0803
  603POPI   C3A 9617   5.157  14.042   8.218 -0.2714 -0.0139 -0.0902
  603POPI   C4A 9618   5.391  14.161   7.903  0.5048 -0.4367  0.0106
  603POPI   C1B 9619   4.941  14.133   9.204 -0.0332  0.1625 -0.3910
  603POPI   C2B 9620   4.845  14.147   8.813  0.0732  0.0821 -0.0098
  603POPI   C3B 9621   4.669  14.423   8.435 -0.2824  0.1429  0.0999
  603POPI   C4B 9622   4.530  14.394   8.019  0.0947  0.0784 -0.1760
  604POPI    C1 9623   5.795   4.897   9.365 -0.2839  0.1049 -0.2459
  604POPI    C2 9624   5.886   5.282   9.311 -0.1948  0.1213  0.0070
  604POPI    C3 9625   5.682   5.169   9.635 -0.0730 -0.0659  0.0196
  604POPI   PO4 9626   5.718   4.805   9.027 -0.1748  0.0868 -0.1696
  604POPI   GL1 9627   5.584   5.022   8.513  0.2433  0.0807  0.0745
  604POPI   GL2 9628   5.403   4.687   8.634 -0.1122 -0.0437  0.0007
  604POPI   C1A 9629   5.753   5.035   8.043 -0.2682  0.1218 -0.5537
  604POPI   D2A 9630   5.736   5.224   7.706  0.0014 -0.0743 -0.3443
  604POPI   C3A 9631   5.695   4.884   7.344 -0.1174  0.0390 -0.2780
  604POPI   C4A 9632   5.510   4.789   6.990 -0.3256  0.0800 -0.0961
  604POPI   C1B 9633   5.293   4.473   8.343  0.0612  0.3081 -0.4182
  604POPI   C2B 9634   5.013   4.525   8.054  0.4259 -0.1816  0.1145
  604POPI   C3B 9635   4.943   4.290   7.710  0.0520 -0.2507  0.1170
  604POPI   C4B 9636   4.989   4.081   7.252 -0.0767  0.2442 -0.3527
  605POPI    C1 9637  15.852  11.957  10.172 -0.0292 -0.1252  0.1274
  605POPI    C2 9638  15.895  11.571  10.073  0.1884 -0.1243  0.2133
  605POPI    C3 9639  15.699  11.672  10.407  0.0568 -0.1558  0.1463
  605POPI   PO4 9640  15.828  12.130   9.974  0.0951 -0.0186 -0.1701
  605POPI   GL1 9641  15.879  12.204   9.639 -0.2435  0.1099  0.1550
  605POPI   GL2 9642  15.501  12.278   9.524 -0.1866 -0.2797 -0.1372
  605POPI   C1A 9643  15.919  12.490   9.281 -0.0392  0.0280  0.2736
  605POPI   D2A 9644  16.145  12.537   8.960 -0.3638  0.2192 -0.2097
  605POPI   C3A 9645  16.291  12.783   8.554 -0.0713 -0.1972  0.2469
  605POPI   C4A 9646  16.324  13.206   8.448 -0.2988 -0.2191 -0.1236
  605POPI   C1B 9647  15.565  12.105   9.068  0.0807  0.1578 -0.0686
  605POPI   C2B 9648  15.556  11.700   8.774 -0.2260 -0.3682  0.0390
  605POPI   C3B 9649  15.719  11.308   8.562 -0.1145  0.0708  0.2741
  605POPI   C4B 9650  15.634  10.865   8.544 -0.0455 -0.1913  0.0221
  606POPI    C1 9651  14.632  14.506  10.115  0.2863 -0.0507 -0.0781
  606POPI    C2 9652  14.415  14.203  10.260 -0.4022  0.3947 -0.1304
  606POPI    C3 9653  14.611  14.446  10.510 -0.1613  0.1382 -0.0660
  606POPI   PO4 9654  14.803  14.456   9.975 -0.3141  0.0147 -0.0883
  606POPI   GL1 9655  14.950  14.580   9.606  0.0293  0.0156  0.0982
  606POPI   GL2 9656  15.233  14.690   9.541 -0.0813 -0.1435 -0.1044
  606POPI   C1A 9657  14.890  14.559   9.174  0.1302 -0.1491  0.1414
  606POPI   D2A 9658  15.031  14.798   8.920  0.1553 -0.0200 -0.2350
  606POPI   C3A 9659  14.966  14.778   8.548  0.0563 -0.2527 -0.1536
  606POPI   C4A 9660  14.880  14.714   8.049  0.0679 -0.4650  0.0329
  606POPI   C1B 9661  15.406  14.569   9.159 -0.2038 -0.0681  0.3212
  606POPI   C2B 9662  15.347  14.367   8.755  0.1854  0.0574 -0.0605
  606POPI   C3B 9663  15.305  14.279   8.323  0.1494 -0.3034 -0.1791
  606POPI   C4B 9664  15.313  14.239   7.819  0.0997 -0.0256  0.1483
  607DPPI    C1 9665   2.348  14.194   9.770  0.2950  0.1442 -0.3188
  607DPPI    C2 9666   2.156  14.418   9.500 -0.1242 -0.0449 -0.1866
  607DPPI    C3 9667   2.148  14.520   9.887 -0.0530 -0.1185 -0.1653
  607DPPI   PO4 9668   2.293  13.921   9.582 -0.0295  0.3565  0.2604
  607DPPI   GL1 9669   2.181  13.859   9.184  0.2740 -0.0127  0.1208
  607DPPI   GL2 9670   1.883  14.032   9.198  0.1709  0.0259 -0.1367
  607DPPI   C1A 9671   2.105  13.736   8.861  0.2118 -0.0569 -0.1948
  607DPPI   C2A 9672   2.038  13.647   8.347  0.1463 -0.0414 -0.0340
  607DPPI   C3A 9673   1.811  13.419   8.115 -0.2202 -0.3432  0.2505
  607DPPI   C4A 9674   1.699  13.670   7.722 -0.3821  0.2248 -0.0723
  607DPPI   C1B 9675   1.660  14.157   8.806  0.1363 -0.0477 -0.1912
  607DPPI   C2B 9676   1.515  14.433   8.432 -0.1319 -0.0378  0.1055
  607DPPI   C3B 9677   1.423  14.627   8.032  0.0747  0.0333  0.1581
  607DPPI   C4B 9678   1.612  14.743   7.579  0.0339  0.0356 -0.0099
  608DPPI    C1 9679   9.520   7.110   9.659  0.1555 -0.1696  0.1004
  608DPPI    C2 9680   9.499   6.850   9.356 -0.0374  0.0464 -0.0754
  608DPPI    C3 9681   9.471   7.242   9.285 -0.0529  0.1010  0.2199
  608DPPI   PO4 9682   9.746   7.188   9.723 -0.2013 -0.1442  0.0874
  608DPPI   GL1 9683  10.202   7.184   9.474  0.4582 -0.0210 -0.0648
  608DPPI   GL2 9684   9.999   6.894   9.435  0.0010 -0.3458  0.0573
  608DPPI   C1A 9685  10.005   7.413   9.159  0.2020  0.0907 -0.3785
  608DPPI   C2A 9686   9.958   7.722   9.083 -0.0570 -0.1337  0.0562
  608DPPI   C3A 9687   9.904   7.950   8.599  0.6402  0.0713  0.2307
  608DPPI   C4A 9688   9.955   7.869   8.125  0.1071 -0.0603  0.0239
  608DPPI   C1B 9689   9.910   6.856   9.050 -0.0402 -0.0741  0.1522
  608DPPI   C2B 9690   9.987   7.076   8.592  0.2920 -0.2494  0.2044
  608DPPI   C3B 9691  10.196   6.931   8.170 -0.0250 -0.0060  0.1924
  608DPPI   C4B 9692  10.375   6.724   8.036  0.0065 -0.0166  0.1904
  609DPPI    C1 9693   3.271  15.579   9.805 -0.0183 -0.0695 -0.0357
  609DPPI    C2 9694   3.468  15.256   9.674  0.1412 -0.0912  0.2484
  609DPPI    C3 9695   3.133  15.213   9.887 -0.1619 -0.0549 -0.2085
  609DPPI   PO4 9696   3.180  15.704   9.583 -0.0529 -0.2319  0.2493
  609DPPI   GL1 9697   3.278  15.813   9.201 -0.1139  0.0630 -0.2820
  609DPPI   GL2 9698   3.107  15.518   9.114 -0.1740 -0.0741  0.2765
  609DPPI   C1A 9699   3.172  15.897   8.735  0.0493 -0.3005 -0.3429
  609DPPI   C2A 9700   3.034  15.998   8.324  0.1839  0.1355  0.0086
  609DPPI   C3A 9701   2.766  16.124   7.947 -0.3099  0.0743  0.1358
  609DPPI   C4A 9702   2.781  16.124   7.509 -0.0782  0.0046  0.1349
  609DPPI   C1B 9703   2.966  15.400   8.777  0.0533  0.1892 -0.1886
  609DPPI   C2B 9704   3.039  15.444   8.292 -0.1499  0.0527  0.1264
  609DPPI   C3B 9705   2.939  15.634   7.956  0.0924 -0.1306 -0.0081
  609DPPI   C4B 9706   2.989  15.725   7.568  0.3590  0.0330 -0.0009
  610DPPI    C1 9707   6.314   6.215   9.319 -0.1702 -0.1102  0.0601
  610DPPI    C2 9708   6.673   6.378   9.253 -0.2031 -0.1589 -0.2524
  610DPPI    C3 9709   6.622   6.123   9.557 -0.0299  0.0231 -0.0674
  610DPPI   PO4 9710   6.210   6.235   9.048  0.3223 -0.1289  0.1955
  610DPPI   GL1 9711   6.302   5.946   8.751 -0.1968 -0.2950 -0.1591
  610DPPI   GL2 9712   6.244   5.686   8.720 -0.0626  0.1911  0.1486
  610DPPI   C1A 9713   6.466   6.226   8.471  0.0696 -0.1210  0.1867
  610DPPI   C2A 9714   6.468   6.595   8.222  0.2583 -0.0416  0.2335
  610DPPI   C3A 9715   6.549   6.686   7.901  0.2142 -0.1110  0.1547
  610DPPI   C4A 9716   6.374   6.895   7.691 -0.0496 -0.0830  0.0953
  610DPPI   C1B 9717   6.165   5.800   8.284 -0.1424 -0.2710 -0.0212
  610DPPI   C2B 9718   6.280   5.833   7.950 -0.0799  0.1050  0.2208
  610DPPI   C3B 9719   6.360   5.880   7.449 -0.1204 -0.1220  0.0257
  610DPPI   C4B 9720   6.413   5.959   7.097  0.0981 -0.0027 -0.1406
  611DPPI    C1 9721  17.045   6.521   9.261  0.0997 -0.0805  0.0289
  611DPPI    C2 9722  17.075   6.380   9.634 -0.1059 -0.0482  0.0586
  611DPPI    C3 9723  17.157   6.142   9.323 -0.1687 -0.1474  0.1174
  611DPPI   PO4 9724  16.789   6.656   9.266 -0.2024  0.0143 -0.1857
  611DPPI   GL1 9725  16.637   6.573   8.921 -0.1955 -0.0232 -0.2296
  611DPPI   GL2 9726  16.459   6.381   8.830  0.1592 -0.1311  0.0050
  611DPPI   C1A 9727  16.804   6.578   8.551 -0.1484  0.2826 -0.1416
  611DPPI   C2A 9728  16.677   6.445   8.156 -0.1617  0.2742 -0.2124
  611DPPI   C3A 9729  17.025   6.572   7.893  0.1533  0.1495 -0.2338
  611DPPI   C4A 9730  17.352   6.734   7.740  0.0502  0.0577  0.2070
  611DPPI   C1B 9731  16.292   6.395   8.472 -0.1160  0.1236 -0.1215
  611DPPI   C2B 9732  16.107   6.417   8.014 -0.3970 -0.0095 -0.3526
  611DPPI   C3B 9733  16.075   6.660   7.627  0.1125 -0.1791  0.2575
  611DPPI   C4B 9734  16.434   6.770   7.284  0.0026 -0.0413  0.1038
  612DPPI    C1 9735   0.819  15.090  10.244 -0.0331  0.0251  0.0424
  612DPPI    C2 9736   1.059  14.894  10.497 -0.2645 -0.1233  0.1506
  612DPPI    C3 9737   0.983  15.283  10.554  0.0818 -0.0321  0.0177
  612DPPI   PO4 9738   0.933  15.032   9.959  0.1702  0.0327 -0.0495
  612DPPI   GL1 9739   0.788  15.198   9.636 -0.3307  0.1135  0.0647
  612DPPI   GL2 9740   0.398  15.102   9.577 -0.1261 -0.1821 -0.2724
  612DPPI   C1A 9741   0.838  15.186   9.200 -0.0535 -0.3903  0.3433
  612DPPI   C2A 9742   0.936  15.291   8.913 -0.4757 -0.1767  0.1349
  612DPPI   C3A 9743   0.996  15.285   8.493 -0.1004 -0.2602 -0.0637
  612DPPI   C4A 9744   1.121  14.983   8.190  0.0834  0.0631 -0.1203
  612DPPI   C1B 9745   0.343  15.016   9.161 -0.3002 -0.0126 -0.0428
  612DPPI   C2B 9746   0.146  14.810   8.836 -0.0790  0.1278 -0.2288
  612DPPI   C3B 9747   0.133  14.641   8.439 -0.0082  0.4358  0.0909
  612DPPI   C4B 9748  -0.132  14.482   8.103 -0.1520  0.0860 -0.1838
  613DPPI    C1 9749   7.261   2.920   9.306  0.0653  0.0748  0.2012
  613DPPI    C2 9750   6.948   2.799   9.524  0.1554 -0.1192  0.2249
  613DPPI    C3 9751   7.048   3.186   9.516 -0.1595 -0.0367  0.1186
  613DPPI   PO4 9752   7.450   2.748   9.329 -0.0000 -0.1782 -0.0053
  613DPPI   GL1 9753   7.498   2.469   8.970  0.2502  0.0645 -0.2180
  613DPPI   GL2 9754   7.682   2.247   9.036 -0.4525  0.0005 -0.4003
  613DPPI   C1A 9755   7.723   2.505   8.557  0.0763 -0.2310 -0.1771
  613DPPI   C2A 9756   7.670   2.381   8.185 -0.0515 -0.1813 -0.1197
  613DPPI   C3A 9757   7.382   2.354   7.869 -0.1496 -0.0653  0.0836
  613DPPI   C4A 9758   7.442   2.288   7.481 -0.2059 -0.1537 -0.1650
  613DPPI   C1B 9759   7.595   1.990   8.629  0.0804 -0.1356  0.1889
  613DPPI   C2B 9760   7.630   1.837   8.304  0.1776 -0.1424  0.0669
  613DPPI   C3B 9761   7.703   1.891   7.898 -0.3772  0.3637 -0.1041
  613DPPI   C4B 9762   7.841   2.267   7.715  0.2718  0.1801 -0.4588
  614DPPI    C1 9763  14.769   3.863   9.571  0.3060  0.1381  0.2837
  614DPPI    C2 9764  14.563   3.544   9.446  0.1905  0.2647  0.1479
  614DPPI    C3 9765  14.697   3.560   9.822  0.2250  0.0424  0.1462
  614DPPI   PO4 9766  14.908   3.920   9.297 -0.3509  0.0723 -0.0220
  614DPPI   GL1 9767  14.836   3.987   8.905 -0.1065 -0.3331  0.3443
  614DPPI   GL2 9768  14.799   3.623   8.924  0.2260 -0.1157  0.0911
  614DPPI   C1A 9769  14.713   3.992   8.479 -0.0088 -0.4109 -0.1312
  614DPPI   C2A 9770  14.774   3.880   8.004  0.1540  0.0763 -0.3062
  614DPPI   C3A 9771  14.911   3.696   7.691  0.0570 -0.3636 -0.1830
  614DPPI   C4A 9772  14.984   3.404   7.377 -0.1381 -0.0994  0.0276
  614DPPI   C1B 9773  14.425   3.517   8.565 -0.1189 -0.0164 -0.0341
  614DPPI   C2B 9774  14.369   3.524   8.082 -0.2733 -0.0345 -0.0757
  614DPPI   C3B 9775  14.342   3.717   7.719  0.0586 -0.1881 -0.2337
  614DPPI   C4B 9776  14.463   3.768   7.339 -0.0711  0.0302  0.1356
  615DPPI    C1 9777   8.054   8.884   9.501  0.1978 -0.1003 -0.2553
  615DPPI    C2 9778   8.237   9.114   9.230  0.1392  0.1042 -0.1229
  615DPPI    C3 9779   8.219   9.230   9.613 -0.3058  0.1117 -0.1414
  615DPPI   PO4 9780   7.882   8.787   9.329 -0.1061  0.1232  0.0199
  615DPPI   GL1 9781   7.961   8.790   8.870  0.2174 -0.3830  0.2841
  615DPPI   GL2 9782   8.215   8.810   8.728  0.2820 -0.1349  0.3698
  615DPPI   C1A 9783   7.883   9.165   8.835 -0.2184 -0.1385 -0.0596
  615DPPI   C2A 9784   7.542   9.331   8.643  0.0611 -0.0105  0.1348
  615DPPI   C3A 9785   7.598   9.482   8.219 -0.3747  0.0053 -0.2443
  615DPPI   C4A 9786   7.913   9.680   8.026  0.1047  0.1658  0.1733
  615DPPI   C1B 9787   8.137   8.690   8.363  0.0223 -0.0348  0.1590
  615DPPI   C2B 9788   8.220   8.724   7.996  0.1798 -0.2501 -0.1471
  615DPPI   C3B 9789   7.979   8.646   7.622 -0.1528 -0.0239 -0.0307
  615DPPI   C4B 9790   8.133   8.539   7.307 -0.0439  0.2050  0.2470
  616PYPI    C1 9791   6.203  15.299   9.632  0.6025  0.5267 -0.1128
  616PYPI    C2 9792   6.071  15.477   9.965 -0.2105 -0.0258 -0.1099
  616PYPI    C3 9793   5.928  15.588   9.608  0.0247 -0.0088 -0.2012
  616PYPI   PO4 9794   6.379  15.254   9.462 -0.0101 -0.1656 -0.0040
  616PYPI   GL1 9795   6.657  15.501   9.240  0.0147 -0.1727 -0.1042
  616PYPI   GL2 9796   6.533  15.260   9.021  0.0840 -0.1875 -0.1331
  616PYPI   C1A 9797   6.714  15.582   8.686  0.0720  0.0409 -0.4654
  616PYPI   C2A 9798   6.641  15.612   8.274 -0.0821  0.1369 -0.1861
  616PYPI   D3A 9799   6.707  15.488   7.869 -0.2596 -0.0961  0.0063
  616PYPI   C4A 9800   6.781  15.653   7.490  0.1025 -0.1845 -0.0645
  616PYPI   C1B 9801   6.475  15.182   8.573  0.2579 -0.2247  0.0085
  616PYPI   C2B 9802   6.530  15.152   8.139  0.6360 -0.0483  0.2832
  616PYPI   C3B 9803   6.788  14.992   7.842 -0.0176  0.1596  0.0575
  616PYPI   C4B 9804   6.889  15.127   7.388  0.1042  0.0020 -0.0779
  617PYPI    C1 9805   1.115   3.190  10.456 -0.1840 -0.2491  0.1309
  617PYPI    C2 9806   0.868   3.465  10.611 -0.1967 -0.2656  0.1403
  617PYPI    C3 9807   1.099   3.244  10.853 -0.1828 -0.2596  0.1325
  617PYPI   PO4 9808   1.017   3.194  10.164  0.1493 -0.3932 -0.1690
  617PYPI   GL1 9809   1.022   3.009   9.704  0.1456  0.1120  0.6227
  617PYPI   GL2 9810   0.974   3.376   9.696  0.1631 -0.1128 -0.1044
  617PYPI   C1A 9811   1.014   2.730   9.350 -0.1325 -0.1915  0.0802
  617PYPI   C2A 9812   0.854   2.476   9.078 -0.2160  0.0980  0.2075
  617PYPI   D3A 9813   0.539   2.460   8.766 -0.0353 -0.3047  0.1127
  617PYPI   C4A 9814   0.622   2.328   8.275  0.1825 -0.2386 -0.0664
  617PYPI   C1B 9815   0.967   3.214   9.267  0.1608 -0.3848 -0.0932
  617PYPI   C2B 9816   0.836   2.981   8.881 -0.0144 -0.2573 -0.3742
  617PYPI   C3B 9817   0.965   2.790   8.599  0.0466  0.0671  0.0533
  617PYPI   C4B 9818   1.249   2.720   8.311  0.0641  0.0965  0.2785
  618PYPI    C1 9819   1.893  18.636   9.922  0.0288 -0.0692  0.0140
  618PYPI    C2 9820   2.130  18.746  10.225  0.0950 -0.1224 -0.0180
  618PYPI    C3 9821   1.776  18.576  10.299 -0.0394  0.1735  0.0332
  618PYPI   PO4 9822   2.064  18.839   9.712  0.5479 -0.0064 -0.0858
  618PYPI   GL1 9823   2.513  18.768   9.431 -0.0806 -0.0569 -0.2657
  618PYPI   GL2 9824   2.802  18.878   9.169 -0.0297 -0.0044 -0.0118
  618PYPI   C1A 9825   2.415  18.442   9.193  0.0418 -0.1515 -0.0574
  618PYPI   C2A 9826   2.519  18.465   8.795 -0.1000 -0.0085  0.2766
  618PYPI   D3A 9827   2.591  18.475   8.304  0.2798 -0.1856 -0.3362
  618PYPI   C4A 9828   2.364  18.482   8.020  0.0884 -0.1466 -0.4338
  618PYPI   C1B 9829   2.718  19.240   9.028  0.4291  0.0962  0.0994
  618PYPI   C2B 9830   2.672  19.533   8.635 -0.0004  0.0248  0.0946
  618PYPI   C3B 9831   2.598  19.555   8.193  0.0121 -0.2003 -0.1141
  618PYPI   C4B 9832   2.761  19.375   7.819  0.2252  0.2095  0.0012
  619PYPI    C1 9833  14.027  14.149   9.974  0.1055  0.1180  0.1634
  619PYPI    C2 9834  13.807  13.933  10.229 -0.0911 -0.0833 -0.1685
  619PYPI    C3 9835  14.162  13.796  10.106 -0.1527 -0.1523 -0.2705
  619PYPI   PO4 9836  13.791  14.204   9.749 -0.0635  0.3841 -0.3126
  619PYPI   GL1 9837  13.614  13.916   9.419  0.1910 -0.2109  0.1987
  619PYPI   GL2 9838  13.403  14.045   9.248  0.2779 -0.3619  0.2018
  619PYPI   C1A 9839  13.789  14.234   9.013 -0.3946  0.0612  0.0850
  619PYPI   C2A 9840  13.907  14.229   8.521  0.0313  0.0938  0.0674
  619PYPI   D3A 9841  13.917  14.485   8.166 -0.2588 -0.0409  0.1354
  619PYPI   C4A 9842  13.932  14.428   7.756  0.2186  0.0839 -0.0406
  619PYPI   C1B 9843  13.331  14.214   8.777 -0.1781 -0.0620  0.0945
  619PYPI   C2B 9844  13.452  14.271   8.398  0.0779  0.0541  0.0085
  619PYPI   C3B 9845  13.431  14.269   7.970 -0.4632 -0.1207  0.0603
  619PYPI   C4B 9846  13.197  14.339   7.536 -0.2148 -0.1091 -0.1330
  620PYPI    C1 9847   7.828   1.343   9.481 -0.3851  0.0927  0.0617
  620PYPI    C2 9848   7.507   1.160   9.635 -0.2349 -0.1825  0.0539
  620PYPI    C3 9849   7.828   1.227   9.864 -0.3749  0.2910  0.1232
  620PYPI   PO4 9850   7.684   1.454   9.290 -0.0791 -0.0609  0.0393
  620PYPI   GL1 9851   7.831   1.659   8.968  0.0090 -0.2898  0.1722
  620PYPI   GL2 9852   8.081   1.494   8.894 -0.3334  0.2337 -0.0174
  620PYPI   C1A 9853   7.637   1.412   8.605 -0.0477 -0.2192  0.2154
  620PYPI   C2A 9854   7.549   1.357   8.163  0.0672  0.1007  0.2439
  620PYPI   D3A 9855   7.629   1.333   7.738  0.1211  0.1251  0.0006
  620PYPI   C4A 9856   7.829   1.670   7.443 -0.1753 -0.1357  0.1071
  620PYPI   C1B 9857   8.099   1.499   8.441  0.0957 -0.1141 -0.0534
  620PYPI   C2B 9858   8.012   1.481   7.990  0.1440  0.1396  0.2101
  620PYPI   C3B 9859   8.087   1.204   7.574  0.0865 -0.0439  0.0240
  620PYPI   C4B 9860   8.103   0.963   7.238 -0.4840 -0.0664  0.0563
  621PYPI    C1 9861  13.168   2.995   9.511  0.0595 -0.0641  0.0658
  621PYPI    C2 9862  13.272   2.947   9.895 -0.2317 -0.0342  0.1511
  621PYPI    C3 9863  13.066   3.271   9.782 -0.3180 -0.1379  0.0056
  621PYPI   PO4 9864  13.005   2.742   9.433 -0.0094  0.2453  0.0685
  621PYPI   GL1 9865  12.661   2.599   9.143 -0.0355  0.0821  0.1048
  621PYPI   GL2 9866  12.856   2.352   9.156 -0.3962  0.1897  0.0182
  621PYPI   C1A 9867  12.378   2.501   8.834  0.2619 -0.1912 -0.1226
  621PYPI   C2A 9868  12.075   2.467   8.466  0.0607  0.0457  0.1266
  621PYPI   D3A 9869  11.808   2.515   8.136  0.3935 -0.1891 -0.0081
  621PYPI   C4A 9870  11.975   2.519   7.674 -0.0730 -0.1077 -0.1435
  621PYPI   C1B 9871  12.779   2.256   8.692 -0.1479 -0.3886  0.0466
  621PYPI   C2B 9872  13.045   2.353   8.266  0.2167  0.0491  0.3450
  621PYPI   C3B 9873  13.213   2.395   7.891 -0.0060 -0.0188 -0.1701
  621PYPI   C4B 9874  13.266   2.234   7.390 -0.4309 -0.2865  0.0600
  622ERGO   ROH 9875  15.906   8.104   8.968 -0.1053  0.2372 -0.0333
  622ERGO    R1 9876  15.822   8.030   8.708  0.0138  0.0525 -0.0216
  622ERGO    R2 9877  15.557   8.038   8.630  0.0174 -0.2277 -0.0791
  622ERGO    R3 9878  15.654   8.192   8.428 -0.0861 -0.2148 -0.1191
  622ERGO    R4 9879  15.467   8.008   8.297 -0.1836 -0.1753 -0.0304
  622ERGO    R5 9880  15.676   8.041   8.243 -0.2134 -0.1926 -0.1509
  622ERGO    C1 9881  15.506   8.135   7.915 -0.3978 -0.1327 -0.0395
  622ERGO    C2 9882  15.442   8.252   7.593  0.2362 -0.0929 -0.0376
  623ERGO   ROH 9883   2.863   1.610   5.875 -0.0407  0.1318 -0.1062
  623ERGO    R1 9884   2.889   1.679   6.148 -0.2684  0.1204 -0.0796
  623ERGO    R2 9885   3.134   1.712   6.270 -0.3632 -0.1294  0.1893
  623ERGO    R3 9886   3.032   1.954   6.339 -0.1873 -0.0160  0.0582
  623ERGO    R4 9887   3.238   1.901   6.541 -0.2810 -0.0932  0.1329
  623ERGO    R5 9888   3.029   1.952   6.578 -0.2502  0.0904  0.0585
  623ERGO    C1 9889   3.202   2.238   6.762 -0.0680  0.0343 -0.0230
  623ERGO    C2 9890   3.223   2.500   6.987  0.0390 -0.0316 -0.0150
  624ERGO   ROH 9891  18.709   2.199   8.809 -0.2354 -0.2170  0.1663
  624ERGO    R1 9892  18.661   2.057   8.569 -0.1668 -0.1306  0.1003
  624ERGO    R2 9893  18.560   2.179   8.342 -0.1371 -0.0546  0.1226
  624ERGO    R3 9894  18.782   2.072   8.226 -0.0963  0.0211  0.1316
  624ERGO    R4 9895  18.600   2.126   8.003 -0.0390  0.0954  0.1104
  624ERGO    R5 9896  18.696   1.936   8.048 -0.0312  0.0895  0.0511
  624ERGO    C1 9897  18.830   1.995   7.696  0.0561  0.2538  0.1117
  624ERGO    C2 9898  18.971   1.944   7.453  0.2702  0.1847  0.1200
  625ERGO   ROH 9899  14.941  17.797   9.015 -0.1634  0.0648 -0.0373
  625ERGO    R1 9900  15.065  17.616   8.836  0.0464  0.0991  0.0712
  625ERGO    R2 9901  14.928  17.408   8.716  0.2621 -0.0668  0.1141
  625ERGO    R3 9902  15.024  17.520   8.487  0.2334 -0.0788  0.0955
  625ERGO    R4 9903  14.860  17.294   8.397  0.0554  0.0310  0.1212
  625ERGO    R5 9904  15.068  17.333   8.344  0.0610 -0.0825  0.0409
  625ERGO    C1 9905  14.910  17.333   7.996 -0.0921  0.0769  0.1079
  625ERGO    C2 9906  14.609  17.272   7.730  0.0118  0.2640  0.0353
  626ERGO   ROH 9907  11.570  14.411   5.740 -0.2366 -0.0034 -0.1438
  626ERGO    R1 9908  11.451  14.531   5.968 -0.2157 -0.0390 -0.1164
  626ERGO    R2 9909  11.421  14.396   6.207  0.0748  0.0213 -0.0522
  626ERGO    R3 9910  11.554  14.611   6.307 -0.0861  0.1995 -0.2074
  626ERGO    R4 9911  11.407  14.502   6.536  0.3518 -0.0484 -0.0136
  626ERGO    R5 9912  11.402  14.708   6.464 -0.0299 -0.0342  0.0076
  626ERGO    C1 9913  11.523  14.765   6.821  0.3620  0.0782 -0.1368
  626ERGO    C2 9914  11.600  14.910   7.115  0.1312 -0.2457  0.2815
  627ERGO   ROH 9915   4.503  11.074   9.052 -0.0499  0.1772  0.1236
  627ERGO    R1 9916   4.424  11.212   8.818 -0.1781 -0.0704  0.0181
  627ERGO    R2 9917   4.605  11.299   8.628 -0.2364  0.1369  0.0660
  627ERGO    R3 9918   4.446  11.158   8.459  0.0737 -0.2138  0.0498
  627ERGO    R4 9919   4.579  11.358   8.289 -0.5654  0.3296  0.1204
  627ERGO    R5 9920   4.364  11.323   8.305 -0.4843 -0.3105  0.2107
  627ERGO    C1 9921   4.414  11.261   7.932 -0.4657  0.1127  0.1369
  627ERGO    C2 9922   4.503  11.409   7.654  0.4163  0.1806 -0.0535
  628ERGO   ROH 9923   9.147  15.477   6.465 -0.1076  0.0864  0.1872
  628ERGO    R1 9924   9.043  15.601   6.697 -0.0484  0.0791  0.2190
  628ERGO    R2 9925   8.772  15.633   6.739 -0.0359  0.2098  0.2226
  628ERGO    R3 9926   8.826  15.505   6.973 -0.1052  0.1167  0.1869
  628ERGO    R4 9927   8.574  15.647   7.022 -0.1660  0.0243  0.1416
  628ERGO    R5 9928   8.755  15.659   7.142 -0.2229  0.0184  0.2273
  628ERGO    C1 9929   8.509  15.535   7.406 -0.3067 -0.1712  0.0609
  628ERGO    C2 9930   8.337  15.518   7.800  0.1096  0.0805 -0.4283
  629ERGO   ROH 9931  17.691   0.868   5.924  0.0880 -0.0575  0.0522
  629ERGO    R1 9932  17.632   0.982   6.176 -0.0799 -0.1006  0.0337
  629ERGO    R2 9933  17.419   0.897   6.332 -0.0306 -0.3057 -0.0037
  629ERGO    R3 9934  17.612   0.867   6.520 -0.0353 -0.1012  0.0352
  629ERGO    R4 9935  17.409   1.033   6.649 -0.0262  0.0490 -0.1513
  629ERGO    R5 9936  17.621   1.078   6.632 -0.0279  0.0221 -0.1985
  629ERGO    C1 9937  17.584   1.083   7.011 -0.0282  0.4475 -0.2007
  629ERGO    C2 9938  17.722   0.990   7.291  0.2935  0.0520  0.0071
  630ERGO   ROH 9939  17.712   1.311   9.179  0.1643 -0.0758  0.0299
  630ERGO    R1 9940  17.876   1.305   8.949  0.0438  0.0055 -0.0598
  630ERGO    R2 9941  17.975   1.069   8.842  0.1104  0.0532 -0.1086
  630ERGO    R3 9942  17.858   1.161   8.615 -0.0628 -0.0113 -0.0467
  630ERGO    R4 9943  18.036   0.947   8.525  0.0725  0.1455 -0.1514
  630ERGO    R5 9944  18.031   1.151   8.450 -0.1259  0.1516 -0.1235
  630ERGO    C1 9945  17.961   0.961   8.127 -0.1119  0.1387 -0.1184
  630ERGO    C2 9946  17.870   0.821   7.823 -0.0071  0.2402  0.1023
  631ERGO   ROH 9947  11.061   5.904   8.832  0.0534  0.0612 -0.1644
  631ERGO    R1 9948  10.931   5.907   8.580 -0.0138 -0.0170 -0.1328
  631ERGO    R2 9949  10.751   6.104   8.508 -0.1196 -0.0911 -0.1085
  631ERGO    R3 9950  10.916   6.130   8.293 -0.1752 -0.0474 -0.1458
  631ERGO    R4 9951  10.690   6.308   8.235 -0.0223  0.2077  0.0896
  631ERGO    R5 9952  10.768   6.150   8.106 -0.2156  0.2573 -0.0777
  631ERGO    C1 9953  10.810   6.451   7.875 -0.0177  0.4228  0.1697
  631ERGO    C2 9954  10.684   6.708   7.594 -0.2429 -0.0755 -0.0290
  632ERGO   ROH 9955  18.373  17.180   9.211  0.0610 -0.1916  0.1019
  632ERGO    R1 9956  18.418  17.229   8.936  0.1995 -0.2228  0.1183
  632ERGO    R2 9957  18.547  17.049   8.771 -0.0068 -0.3845  0.1333
  632ERGO    R3 9958  18.322  17.076   8.621  0.0649 -0.0582  0.0770
  632ERGO    R4 9959  18.534  17.017   8.427  0.0377 -0.3675  0.1300
  632ERGO    R5 9960  18.397  17.186   8.422  0.2791 -0.1627  0.0945
  632ERGO    C1 9961  18.316  17.024   8.086  0.1308 -0.0512  0.0752
  632ERGO    C2 9962  18.271  16.910   7.684  0.3906  0.1337  0.0872
  633ERGO   ROH 9963   7.337  15.311   9.252 -0.2411 -0.2803 -0.1367
  633ERGO    R1 9964   7.278  15.209   8.995 -0.1092 -0.0859 -0.2450
  633ERGO    R2 9965   7.044  15.267   8.861 -0.0372  0.0099 -0.3169
  633ERGO    R3 9966   7.213  15.347   8.665  0.0556  0.1603 -0.1801
  633ERGO    R4 9967   6.981  15.237   8.523  0.2205  0.0015 -0.3661
  633ERGO    R5 9968   7.190  15.180   8.495  0.2950  0.1537 -0.2203
  633ERGO    C1 9969   7.104  15.295   8.141  0.4576  0.1380 -0.2664
  633ERGO    C2 9970   7.235  15.297   7.736  0.0449  0.1137  0.0041
  634ERGO   ROH 9971   5.999   2.183   5.676 -0.1770  0.0647  0.0003
  634ERGO    R1 9972   5.902   2.010   5.878 -0.1205  0.2634  0.2016
  634ERGO    R2 9973   5.684   2.072   6.036 -0.3930  0.2083 -0.1418
  634ERGO    R3 9974   5.593   1.832   5.948  0.0766 -0.1000  0.1698
  634ERGO    R4 9975   5.480   1.861   6.217 -0.3389  0.2503 -0.0311
  634ERGO    R5 9976   5.597   1.692   6.143  0.0150  0.2665  0.4433
  634ERGO    C1 9977   5.275   1.512   6.241  0.1336 -0.0147  0.3259
  634ERGO    C2 9978   5.047   1.581   6.536  0.1751 -0.1685  0.2128
  635ERGO   ROH 9979   4.416  14.349   9.002  0.0899 -0.0113 -0.0225
  635ERGO    R1 9980   4.360  14.194   8.772  0.0652  0.0109 -0.0323
  635ERGO    R2 9981   4.107  14.182   8.660  0.0640  0.0794 -0.0524
  635ERGO    R3 9982   4.240  14.257   8.434  0.1038  0.0580 -0.0352
  635ERGO    R4 9983   4.001  14.117   8.337  0.2263 -0.1024 -0.0707
  635ERGO    R5 9984   4.208  14.074   8.283  0.2620 -0.0125  0.0234
  635ERGO    C1 9985   4.064  14.150   7.938  0.3582 -0.2284 -0.0652
  635ERGO    C2 9986   4.107  14.032   7.536 -0.2059  0.2306 -0.1798
  636ERGO   ROH 9987   2.233  11.461   9.599 -0.0159 -0.2000 -0.1335
  636ERGO    R1 9988   2.224  11.581   9.343  0.0143 -0.0381 -0.0607
  636ERGO    R2 9989   2.451  11.668   9.211  0.0404 -0.0239 -0.0139
  636ERGO    R3 9990   2.357  11.509   9.012 -0.0144  0.1239 -0.1075
  636ERGO    R4 9991   2.548  11.687   8.880  0.0428  0.1290 -0.0050
  636ERGO    R5 9992   2.341  11.653   8.822  0.0349  0.2349 -0.0247
  636ERGO    C1 9993   2.517  11.547   8.501 -0.0072  0.3568 -0.0877
  636ERGO    C2 9994   2.431  11.516   8.114  0.1366  0.2538  0.0194
  637ERGO   ROH 9995   4.063   7.489   5.730  0.0978 -0.0460 -0.0156
  637ERGO    R1 9996   4.220   7.495   5.965  0.0112 -0.0434  0.0430
  637ERGO    R2 9997   4.271   7.728   6.105  0.0176 -0.0299  0.0205
  637ERGO    R3 9998   4.171   7.585   6.314 -0.0979  0.0322  0.0081
  637ERGO    R4 9999   4.272   7.833   6.434  0.0956 -0.0576  0.0291
  637ERGO    R510000   4.323   7.629   6.494 -0.0659 -0.1021  0.0137
  637ERGO    C110001   4.179   7.760   6.822  0.0326 -0.0154  0.0224
  637ERGO    C210002   3.976   7.777   7.055  0.2039  0.2532 -0.0880
  638ERGO   ROH10003  16.155   6.777   6.377  0.0473  0.1564 -0.0110
  638ERGO    R110004  16.086   6.559   6.544 -0.0152  0.0383 -0.1877
  638ERGO    R210005  16.065   6.582   6.819  0.2331 -0.2343 -0.1393
  638ERGO    R310006  15.818   6.478   6.777  0.0993  0.0405 -0.0542
  638ERGO    R410007  15.908   6.355   7.026  0.1083 -0.1702 -0.1627
  638ERGO    R510008  15.835   6.251   6.849 -0.0970 -0.0134 -0.1718
  638ERGO    C110009  15.585   6.124   7.107 -0.0901  0.1251 -0.0966
  638ERGO    C210010  15.477   5.918   7.381  0.0628 -0.2138  0.0416
  639ERGO   ROH10011   8.668   3.035   5.813  0.1679 -0.3427  0.1110
  639ERGO    R110012   8.810   3.024   6.057  0.1443 -0.1222  0.1370
  639ERGO    R210013   9.070   3.115   6.083  0.1322 -0.0737  0.0869
  639ERGO    R310014   8.964   3.262   6.285  0.0965  0.0870 -0.0467
  639ERGO    R410015   9.251   3.320   6.294  0.1467 -0.1754  0.1745
  639ERGO    R510016   9.128   3.251   6.459 -0.0580 -0.0118  0.0950
  639ERGO    C110017   9.257   3.578   6.606  0.1216 -0.0838  0.1000
  639ERGO    C210018   9.262   3.765   6.860  0.2309  0.1060 -0.2022
  640ERGO   ROH10019  16.360   2.458   9.018  0.0466  0.1989 -0.0248
  640ERGO    R110020  16.381   2.563   8.756  0.2023  0.0545 -0.0726
  640ERGO    R210021  16.551   2.455   8.566  0.0734 -0.2629 -0.0216
  640ERGO    R310022  16.323   2.442   8.418  0.0569 -0.0251 -0.0187
  640ERGO    R410023  16.536   2.494   8.223  0.0773 -0.1033 -0.0039
  640ERGO    R510024  16.353   2.609   8.249  0.1701  0.0225  0.0527
  640ERGO    C110025  16.313   2.504   7.884  0.0643  0.2130  0.0091
  640ERGO    C210026  16.184   2.604   7.602  0.0065 -0.1043 -0.3092
  641ERGO   ROH10027   1.437  12.137   9.533  0.1053 -0.0653 -0.1277
  641ERGO    R110028   1.539  12.102   9.271  0.0206 -0.1951 -0.1445
  641ERGO    R210029   1.419  11.936   9.086 -0.2367 -0.0307 -0.1353
  641ERGO    R310030   1.420  12.160   8.932  0.0438 -0.0211 -0.1226
  641ERGO    R410031   1.432  11.938   8.741 -0.1687 -0.0148 -0.1327
  641ERGO    R510032   1.569  12.107   8.752  0.0174 -0.1711 -0.0969
  641ERGO    C110033   1.441  12.149   8.395  0.1343  0.0036 -0.1191
  641ERGO    C210034   1.416  11.995   8.006 -0.2151  0.0752  0.1651
  642ERGO   ROH10035   9.452  18.477   9.017  0.1793  0.1760  0.1458
  642ERGO    R110036   9.583  18.439   8.769  0.2270  0.2044  0.1667
  642ERGO    R210037   9.451  18.350   8.543  0.3317 -0.0592  0.2089
  642ERGO    R310038   9.556  18.575   8.432  0.0753  0.0089  0.0976
  642ERGO    R410039   9.458  18.418   8.204  0.2826 -0.2417  0.1704
  642ERGO    R510040   9.659  18.499   8.230  0.1888  0.0154  0.1498
  642ERGO    C110041   9.561  18.668   7.903  0.0132 -0.2839  0.0434
  642ERGO    C210042   9.461  18.700   7.538 -0.1380  0.0360  0.2424
  643ERGO   ROH10043  17.934   7.487   5.462 -0.3849 -0.1060  0.1166
  643ERGO    R110044  17.950   7.609   5.716  0.2857  0.1783 -0.0460
  643ERGO    R210045  17.839   7.498   5.943 -0.1172  0.9492  0.1526
  643ERGO    R310046  18.091   7.526   6.041  0.0993 -0.0246 -0.0096
  643ERGO    R410047  17.925   7.469   6.276 -0.1179  0.9417  0.1538
  643ERGO    R510048  18.061   7.638   6.251  0.6433  0.3756 -0.1059
  643ERGO    C110049  18.212   7.479   6.563  0.0849  0.0232  0.0023
  643ERGO    C210050  18.385   7.399   6.810  0.0783  0.2749 -0.0530
  644ERGO   ROH10051   3.574   0.302   9.240 -0.0865  0.1612 -0.0935
  644ERGO    R110052   3.509   0.379   8.975 -0.1037 -0.0289 -0.1454
  644ERGO    R210053   3.693   0.496   8.805 -0.1897  0.1061 -0.1445
  644ERGO    R310054   3.621   0.292   8.640  0.0864 -0.0513 -0.0780
  644ERGO    R410055   3.667   0.521   8.462 -0.0708 -0.0884 -0.1694
  644ERGO    R510056   3.487   0.397   8.471  0.0481 -0.2682 -0.1871
  644ERGO    C110057   3.585   0.344   8.106  0.2578 -0.3494 -0.1216
  644ERGO    C210058   3.766   0.366   7.746 -0.0726  0.2754  0.0263
  645ERGO   ROH10059   2.979  14.769   9.043 -0.0489  0.0432 -0.1664
  645ERGO    R110060   2.845  14.849   8.806 -0.0454  0.0642 -0.1611
  645ERGO    R210061   2.981  14.923   8.577 -0.0428  0.0377 -0.1670
  645ERGO    R310062   2.825  14.732   8.462 -0.0819  0.0644 -0.1593
  645ERGO    R410063   2.925  14.893   8.238 -0.0060  0.0059 -0.1705
  645ERGO    R510064   2.716  14.845   8.282 -0.0265  0.0707 -0.1902
  645ERGO    C110065   2.746  14.696   7.932 -0.0213  0.0125 -0.1654
  645ERGO    C210066   2.752  14.642   7.629  0.2707  0.0357  0.0044
  646ERGO   ROH10067  13.206  15.847   9.692 -0.0876 -0.0885 -0.0401
  646ERGO    R110068  13.298  15.749   9.443 -0.0660 -0.0665 -0.0405
  646ERGO    R210069  13.168  15.549   9.305 -0.0448 -0.0635 -0.0614
  646ERGO    R310070  13.171  15.731   9.102 -0.0419 -0.0517 -0.0509
  646ERGO    R410071  13.255  15.478   8.977  0.0246 -0.0343 -0.0496
  646ERGO    R510072  13.361  15.669   8.970 -0.0065 -0.0134 -0.0208
  646ERGO    C110073  13.308  15.607   8.597  0.0677 -0.0062 -0.0329
  646ERGO    C210074  13.314  15.601   8.217 -0.2424  0.5270  0.0613
  647ERGO   ROH10075  13.762   5.515   5.728  0.1920 -0.0209 -0.3140
  647ERGO    R110076  13.871   5.461   5.984  0.1235  0.2393 -0.2266
  647ERGO    R210077  13.961   5.210   6.057 -0.2729  0.2024  0.1935
  647ERGO    R310078  14.189   5.346   6.117 -0.0455 -0.0520 -0.0664
  647ERGO    R410079  14.144   5.171   6.348 -0.2457  0.3413  0.1954
  647ERGO    R510080  14.174   5.387   6.352  0.0836  0.3079 -0.1176
  647ERGO    C110081  14.465   5.276   6.573 -0.0164  0.1835 -0.0474
  647ERGO    C210082  14.785   5.128   6.704  0.0084 -0.2409  0.1962
  648ERGO   ROH10083  13.458  18.924   9.423 -0.0640  0.1852  0.2057
  648ERGO    R110084  13.485  18.941   9.141  0.0678  0.2808  0.2232
  648ERGO    R210085  13.268  18.974   8.973  0.1062 -0.0118  0.1125
  648ERGO    R310086  13.412  19.187   8.883 -0.1601  0.2277  0.2331
  648ERGO    R410087  13.245  19.107   8.655  0.3684 -0.2636 -0.0165
  648ERGO    R510088  13.462  19.131   8.655  0.3378  0.1722  0.3405
  648ERGO    C110089  13.366  19.383   8.385  0.2711 -0.1853  0.0214
  648ERGO    C210090  13.340  19.386   8.049 -0.0599 -0.0837  0.0325
  649ERGO   ROH10091  16.066  14.859   6.531 -0.3195 -0.2647 -0.0662
  649ERGO    R110092  15.918  14.696   6.709 -0.1736 -0.3286 -0.0031
  649ERGO    R210093  16.020  14.462   6.817  0.1099 -0.0966  0.2382
  649ERGO    R310094  15.953  14.580   7.052 -0.1712  0.0040  0.1139
  649ERGO    R410095  15.929  14.293   7.104  0.2868 -0.0115  0.3469
  649ERGO    R510096  15.777  14.444   7.139  0.0149 -0.2232  0.1595
  649ERGO    C110097  15.814  14.305   7.492  0.1259  0.1324  0.2935
  649ERGO    C210098  15.796  14.042   7.755  0.0963  0.1952  0.1938
  650ERGO   ROH10099  12.586  12.452   5.696 -0.0625 -0.0539 -0.0661
  650ERGO    R110100  12.567  12.439   5.978 -0.1904 -0.2709 -0.0810
  650ERGO    R210101  12.642  12.216   6.123  0.2396 -0.2043 -0.1796
  650ERGO    R310102  12.796  12.395   6.258 -0.2300  0.0753  0.0094
  650ERGO    R410103  12.812  12.149   6.417  0.4403 -0.0758 -0.2655
  650ERGO    R510104  12.755  12.347   6.489 -0.0953 -0.2954 -0.0400
  650ERGO    C110105  13.055  12.278   6.714  0.1162  0.2616 -0.1380
  650ERGO    C210106  13.056  12.386   7.007 -0.0023 -0.2995 -0.3539
  651ERGO   ROH10107  18.946  18.827   6.093 -0.0397  0.1911 -0.0689
  651ERGO    R110108  19.135  18.775   6.298  0.0493  0.1386 -0.1637
  651ERGO    R210109  19.326  18.959   6.374 -0.1314  0.2504  0.0264
  651ERGO    R310110  19.220  18.918   6.621 -0.0497 -0.1631 -0.0001
  651ERGO    R410111  19.490  19.020   6.672 -0.1874  0.1831  0.0715
  651ERGO    R510112  19.404  18.837   6.752  0.0873 -0.0332 -0.1070
  651ERGO    C110113  19.486  19.017   7.078 -0.1430 -0.2445  0.0728
  651ERGO    C210114  19.648  19.181   7.253  0.4041 -0.0228 -0.3547
  652ERGO   ROH10115   7.327   9.286   5.919 -0.0555 -0.0785  0.0331
  652ERGO    R110116   7.296   9.205   6.188  0.0450 -0.2197  0.0020
  652ERGO    R210117   7.511   9.143   6.350  0.1190 -0.0444 -0.0361
  652ERGO    R310118   7.399   9.328   6.515 -0.0799 -0.2347  0.0495
  652ERGO    R410119   7.529   9.136   6.695  0.1097 -0.2060 -0.0375
  652ERGO    R510120   7.320   9.200   6.702  0.0357 -0.4167 -0.0170
  652ERGO    C110121   7.434   9.305   7.051 -0.0824 -0.4789  0.0420
  652ERGO    C210122   7.701   9.173   7.266  0.0029 -0.0312 -0.1967
  653ERGO   ROH10123   8.154   2.032   8.931 -0.0941 -0.0792 -0.0657
  653ERGO    R110124   8.073   2.004   8.661 -0.1310  0.1242 -0.0770
  653ERGO    R210125   8.113   2.201   8.472  0.3061  0.0683 -0.0451
  653ERGO    R310126   8.235   2.000   8.336 -0.1015 -0.1793 -0.0634
  653ERGO    R410127   8.132   2.179   8.128  0.3101  0.1060 -0.0479
  653ERGO    R510128   8.095   1.965   8.144 -0.1606  0.1651 -0.0957
  653ERGO    C110129   8.257   1.978   7.799 -0.0700 -0.1045 -0.0668
  653ERGO    C210130   8.201   2.019   7.396 -0.0254 -0.2208  0.1733
  654PSPI    C110131  17.547  14.688   5.468 -0.0193  0.1140 -0.1003
  654PSPI    C210132  17.833  14.573   5.723 -0.0474 -0.0871 -0.1570
  654PSPI    C310133  17.637  14.300   5.507 -0.1687  0.0639 -0.2402
  654PSPI   PO410134  17.421  14.971   5.649  0.2967 -0.0315 -0.0310
  654PSPI   GL110135  17.664  15.010   6.054  0.0089 -0.2297 -0.1340
  654PSPI   GL210136  17.718  15.220   6.211  0.1527  0.1080  0.3988
  654PSPI   C1A10137  17.539  14.697   6.274 -0.1612  0.2958 -0.2259
  654PSPI   C2A10138  17.383  14.647   6.654 -0.1579 -0.0097  0.4494
  654PSPI   C3A10139  17.371  14.815   6.975  0.0620  0.1099 -0.1490
  654PSPI   C4A10140  17.158  14.661   7.374 -0.4076 -0.0713 -0.0732
  654PSPI   C1B10141  17.721  15.060   6.582  0.1695 -0.0254 -0.0490
  654PSPI   C2B10142  18.018  14.973   6.911 -0.1618 -0.0598 -0.2484
  654PSPI   C3B10143  18.197  14.590   7.128  0.3083 -0.1437 -0.0546
  654PSPI   C4B10144  18.514  14.642   7.390 -0.2618  0.2491 -0.0910
  655PSPI    C110145   4.228  18.705   5.462 -0.1510 -0.1021 -0.2303
  655PSPI    C210146   4.516  18.692   5.185  0.0666 -0.0204 -0.0111
  655PSPI    C310147   4.485  18.398   5.454 -0.0708 -0.0412 -0.0493
  655PSPI   PO410148   4.170  18.969   5.579 -0.1616  0.1474 -0.2521
  655PSPI   GL110149   4.376  19.077   5.896 -0.4115 -0.1201  0.0609
  655PSPI   GL210150   4.585  19.216   5.900  0.0826  0.0754 -0.2094
  655PSPI   C1A10151   4.257  19.298   6.281 -0.4183  0.1679  0.1303
  655PSPI   C2A10152   4.381  19.357   6.683 -0.1353  0.2742  0.0741
  655PSPI   C3A10153   4.523  19.407   7.119  0.3099 -0.1407  0.0198
  655PSPI   C4A10154   4.905  19.376   7.204 -0.2167  0.1485  0.1601
  655PSPI   C1B10155   4.667  19.554   6.130  0.2226  0.1417 -0.0400
  655PSPI   C2B10156   4.741  19.946   6.417  0.1828 -0.2152  0.2237
  655PSPI   C3B10157   4.777  20.074   6.793 -0.0266  0.1188 -0.1519
  655PSPI   C4B10158   4.456  20.119   7.152 -0.0721 -0.1809  0.1114
  656PSPI    C110159  13.952  13.252   5.034  0.0725  0.1048 -0.2118
  656PSPI    C210160  13.650  13.512   5.019  0.0999  0.1525  0.0184
  656PSPI    C310161  13.671  13.215   4.752  0.0214  0.3332 -0.1923
  656PSPI   PO410162  14.060  13.228   5.392 -0.0163  0.1802 -0.3147
  656PSPI   GL110163  14.047  13.344   5.820 -0.2151 -0.1624  0.0678
  656PSPI   GL210164  14.299  13.418   6.054  0.0223 -0.0540 -0.1095
  656PSPI   C1A10165  13.988  13.152   6.348 -0.1307  0.1250  0.1243
  656PSPI   C2A10166  14.196  13.204   6.701  0.2447  0.3016  0.0030
  656PSPI   C3A10167  14.329  13.446   7.053  0.0026 -0.3643  0.0562
  656PSPI   C4A10168  14.300  13.235   7.492 -0.2109  0.2866 -0.0512
  656PSPI   C1B10169  14.215  13.625   6.465  0.0498 -0.3519 -0.3180
  656PSPI   C2B10170  13.842  13.519   6.779 -0.1251  0.0421  0.0705
  656PSPI   C3B10171  13.542  13.640   7.123  0.1457 -0.3752 -0.0579
  656PSPI   C4B10172  13.248  13.944   7.254 -0.0428  0.1322 -0.2610
  657PSPI    C110173   4.361   1.130   5.128  0.1474  0.0424  0.1694
  657PSPI    C210174   4.655   0.862   5.166  0.1174 -0.0593 -0.2561
  657PSPI    C310175   4.533   0.974   4.802  0.0376  0.4362 -0.0852
  657PSPI   PO410176   4.209   1.102   5.406 -0.1127 -0.1475  0.2960
  657PSPI   GL110177   4.446   1.355   5.665  0.3665 -0.1265 -0.3031
  657PSPI   GL210178   4.813   1.363   5.658  0.2427 -0.2772  0.1579
  657PSPI   C1A10179   4.169   1.302   5.975 -0.1194 -0.1092  0.1167
  657PSPI   C2A10180   4.030   1.377   6.426 -0.2069  0.2542  0.2886
  657PSPI   C3A10181   3.716   1.697   6.623 -0.0037  0.2314 -0.1025
  657PSPI   C4A10182   3.830   1.978   6.871  0.1342 -0.3247  0.4306
  657PSPI   C1B10183   4.698   1.285   6.076  0.0373  0.1899 -0.3759
  657PSPI   C2B10184   4.563   1.448   6.418  0.4123 -0.1039 -0.0791
  657PSPI   C3B10185   4.251   1.699   6.747 -0.0220  0.3225 -0.5316
  657PSPI   C4B10186   4.113   1.718   7.181  0.3849 -0.0324 -0.0687
  658PSPI    C110187   9.378   0.129   5.020  0.0984  0.1660 -0.1255
  658PSPI    C210188   9.777   0.121   4.992  0.0870  0.1858 -0.3013
  658PSPI    C310189   9.559   0.299   4.707 -0.0628 -0.0819 -0.3571
  658PSPI   PO410190   9.336   0.192   5.293  0.0593  0.2366 -0.1251
  658PSPI   GL110191   9.172   0.180   5.646 -0.0067 -0.1060  0.1206
  658PSPI   GL210192   9.342   0.230   5.855  0.2290  0.0368 -0.0107
  658PSPI   C1A10193   8.862   0.280   5.993  0.1891 -0.2162 -0.2338
  658PSPI   C2A10194   8.517   0.106   6.287 -0.0008  0.3525 -0.1101
  658PSPI   C3A10195   8.253   0.212   6.614  0.4651  0.0439 -0.1101
  658PSPI   C4A10196   8.047  -0.091   6.874  0.1007  0.0348  0.0254
  658PSPI   C1B10197   9.349   0.607   6.266  0.2057  0.0579  0.0971
  658PSPI   C2B10198   9.249   0.500   6.650  0.0170  0.2273  0.0606
  658PSPI   C3B10199   9.305   0.687   7.049 -0.2938 -0.0719  0.0802
  658PSPI   C4B10200   9.658   0.712   7.357 -0.0046  0.1352 -0.0744
  659PSPI    C110201  10.934   5.616   5.182  0.1876  0.1459  0.0606
  659PSPI    C210202  10.945   5.838   5.514 -0.1379 -0.0247  0.1892
  659PSPI    C310203  10.650   5.889   5.249 -0.0339 -0.0816  0.0617
  659PSPI   PO410204  10.802   5.352   5.190 -0.5515 -0.0682 -0.4457
  659PSPI   GL110205  10.816   4.868   5.334  0.5085  0.1062 -0.1781
  659PSPI   GL210206  11.122   4.680   5.401 -0.0827 -0.0603  0.1614
  659PSPI   C1A10207  10.724   5.011   5.747 -0.0086 -0.0419  0.0903
  659PSPI   C2A10208  10.739   5.512   5.901  0.1033  0.1308 -0.0936
  659PSPI   C3A10209  10.497   5.813   5.813 -0.1188 -0.0493 -0.1185
  659PSPI   C4A10210  10.183   6.067   5.731  0.1230 -0.0434 -0.2601
  659PSPI   C1B10211  11.264   4.946   5.742  0.3441  0.0102 -0.0194
  659PSPI   C2B10212  11.000   5.136   6.110 -0.4949 -0.3981 -0.5697
  659PSPI   C3B10213  10.553   5.195   6.332  0.0438 -0.2861  0.0945
  659PSPI   C4B10214  10.296   5.250   6.571  0.1089 -0.0814  0.0386
  660PSPI    C110215  14.303  12.290   5.026  0.1335  0.1077  0.2656
  660PSPI    C210216  14.395  12.668   5.119 -0.0994  0.2712 -0.1424
  660PSPI    C310217  14.480  12.526   4.755 -0.0708 -0.0528 -0.0120
  660PSPI   PO410218  14.033  12.262   5.160 -0.2408  0.1750 -0.0323
  660PSPI   GL110219  13.815  12.156   5.578  0.0508  0.1697 -0.0280
  660PSPI   GL210220  13.752  12.459   5.738  0.3215  0.1221  0.0881
  660PSPI   C1A10221  13.612  12.052   5.982 -0.0351 -0.0919 -0.0533
  660PSPI   C2A10222  13.802  12.034   6.418  0.0956 -0.0453  0.0178
  660PSPI   C3A10223  14.162  11.939   6.603  0.0587 -0.3378 -0.0682
  660PSPI   C4A10224  14.322  11.930   7.025 -0.2184 -0.0440 -0.1810
  660PSPI   C1B10225  14.140  12.856   5.921  0.0496 -0.1556 -0.1817
  660PSPI   C2B10226  14.459  13.004   6.173  0.0121  0.0826 -0.1188
  660PSPI   C3B10227  14.612  13.033   6.571 -0.2391  0.0884 -0.0714
  660PSPI   C4B10228  14.788  13.186   6.958  0.0410  0.1323  0.0827
  661PSPI    C110229   9.536  18.118   5.217  0.0399  0.0811  0.0275
  661PSPI    C210230   9.513  17.892   4.888 -0.0856 -0.0678  0.1372
  661PSPI    C310231   9.683  18.253   4.871  0.1802 -0.1980 -0.0247
  661PSPI   PO410232   9.364  18.185   5.336  0.2500 -0.2035 -0.0255
  661PSPI   GL110233   9.371  18.434   5.718 -0.1347 -0.1900 -0.2074
  661PSPI   GL210234   9.085  18.383   5.774 -0.2095  0.3633  0.0256
  661PSPI   C1A10235   9.709  18.460   6.022  0.0294  0.0511 -0.0793
  661PSPI   C2A10236   9.854  18.684   6.378 -0.4332  0.0643 -0.1225
  661PSPI   C3A10237  10.176  18.757   6.675  0.1448 -0.2528  0.3480
  661PSPI   C4A10238  10.103  18.978   7.090  0.4716  0.0137  0.0871
  661PSPI   C1B10239   9.046  18.363   6.154  0.3180  0.1492  0.1668
  661PSPI   C2B10240   9.200  18.295   6.524 -0.1132  0.0613 -0.0317
  661PSPI   C3B10241   9.389  18.198   6.927  0.2060  0.1148  0.2558
  661PSPI   C4B10242   9.561  18.331   7.278 -0.1593  0.1615  0.2162
  662PSPI    C110243  16.335   1.805   5.163  0.2241  0.1646 -0.1597
  662PSPI    C210244  16.209   2.170   5.268 -0.4242 -0.1394  0.1820
  662PSPI    C310245  16.134   2.031   4.901 -0.0866  0.1003  0.0170
  662PSPI   PO410246  16.201   1.624   5.355  0.1546 -0.1776 -0.1502
  662PSPI   GL110247  15.842   1.438   5.606 -0.5145 -0.1348 -0.3122
  662PSPI   GL210248  15.596   1.166   5.749  0.2796  0.0563  0.1601
  662PSPI   C1A10249  15.687   1.537   6.038 -0.0841  0.0467 -0.3531
  662PSPI   C2A10250  15.646   1.629   6.433 -0.0558 -0.1330 -0.0284
  662PSPI   C3A10251  15.768   1.711   6.826 -0.0856  0.2642  0.2081
  662PSPI   C4A10252  15.741   1.505   7.242 -0.0439 -0.2668  0.5489
  662PSPI   C1B10253  15.340   1.191   6.053  0.0913  0.2583  0.0855
  662PSPI   C2B10254  15.256   1.189   6.539  0.1498  0.2120  0.0060
  662PSPI   C3B10255  15.316   1.557   6.877  0.0676  0.1392 -0.0354
  662PSPI   C4B10256  15.340   1.983   6.864 -0.1177  0.0393  0.2014
  663PSPI    C110257   1.593  17.442   5.643 -0.0409  0.1458 -0.0329
  663PSPI    C210258   1.859  17.148   5.692  0.0824  0.2543 -0.0476
  663PSPI    C310259   1.526  17.082   5.481 -0.0462  0.0318  0.2177
  663PSPI   PO410260   1.815  17.686   5.644  0.0957 -0.2816  0.3480
  663PSPI   GL110261   2.054  17.748   5.986 -0.0589 -0.2049 -0.3512
  663PSPI   GL210262   1.865  17.933   6.100 -0.2613 -0.2213  0.0391
  663PSPI   C1A10263   2.264  17.591   6.450  0.0333  0.2931 -0.2271
  663PSPI   C2A10264   2.399  17.196   6.553  0.1670 -0.1327 -0.3588
  663PSPI   C3A10265   2.495  17.177   6.921  0.1250 -0.3860 -0.0840
  663PSPI   C4A10266   2.763  17.053   7.318  0.2668  0.2397 -0.0246
  663PSPI   C1B10267   1.773  17.967   6.469 -0.2503  0.1094  0.4444
  663PSPI   C2B10268   1.789  18.203   6.815  0.1150 -0.2833  0.0138
  663PSPI   C3B10269   1.882  18.460   7.110 -0.0008 -0.0123 -0.2104
  663PSPI   C4B10270   2.241  18.568   7.334 -0.1806  0.0242 -0.1216
  664PSPI    C110271  11.571  17.372   5.131 -0.0857 -0.1966  0.0493
  664PSPI    C210272  11.769  17.715   5.072 -0.2247 -0.1079  0.0928
  664PSPI    C310273  11.666  17.487   4.760 -0.0605 -0.1514  0.0696
  664PSPI   PO410274  11.383  17.378   5.484  0.0942 -0.1906 -0.3739
  664PSPI   GL110275  11.135  17.580   5.755  0.1319 -0.0078  0.1012
  664PSPI   GL210276  11.099  17.240   5.934 -0.1038 -0.2611 -0.1188
  664PSPI   C1A10277  10.901  17.721   6.076 -0.2404 -0.0405  0.0174
  664PSPI   C2A10278  10.718  17.606   6.396 -0.1480 -0.1668  0.2552
  664PSPI   C3A10279  10.718  17.734   6.930 -0.3271  0.3387  0.2601
  664PSPI   C4A10280  10.908  17.684   7.315 -0.0847  0.1786 -0.0331
  664PSPI   C1B10281  10.821  17.125   6.229  0.2976 -0.2652  0.2831
  664PSPI   C2B10282  10.754  17.218   6.689  0.2117 -0.1473 -0.3189
  664PSPI   C3B10283  10.711  17.267   7.075 -0.2504  0.0182  0.0294
  664PSPI   C4B10284  10.661  17.020   7.349 -0.2076  0.1858 -0.3701
  665PSPI    C110285  18.214  18.616   5.314 -0.2813  0.1694 -0.2122
  665PSPI    C210286  18.492  18.859   5.162  0.0354 -0.1237 -0.1139
  665PSPI    C310287  18.213  18.701   4.923  0.0877 -0.0057 -0.2556
  665PSPI   PO410288  18.101  18.748   5.532  0.0514  0.0449 -0.2262
  665PSPI   GL110289  17.679  18.870   5.716  0.0513 -0.0886 -0.1177
  665PSPI   GL210290  17.910  18.979   5.914 -0.1415 -0.1353 -0.0046
  665PSPI   C1A10291  17.206  18.831   5.767 -0.2351  0.5617 -0.0968
  665PSPI   C2A10292  17.057  18.548   5.985  0.0534 -0.1375  0.1948
  665PSPI   C3A10293  16.898  18.358   6.442 -0.0481  0.3206 -0.0574
  665PSPI   C4A10294  16.542  18.498   6.625 -0.0007  0.1350  0.0354
  665PSPI   C1B10295  17.592  18.971   6.270  0.0128 -0.1661 -0.2943
  665PSPI   C2B10296  17.234  18.773   6.406  0.1296  0.2394 -0.2126
  665PSPI   C3B10297  17.379  18.450   6.748  0.2809  0.1397  0.1215
  665PSPI   C4B10298  17.397  18.087   6.965  0.0217  0.3225 -0.0340
  666PSPI    C110299  16.935  12.931   5.131  0.0178 -0.0114  0.2619
  666PSPI    C210300  17.186  13.132   4.893 -0.1527 -0.2053 -0.0905
  666PSPI    C310301  17.282  12.765   5.022 -0.1290 -0.1630  0.0136
  666PSPI   PO410302  16.841  13.103   5.386  0.0384 -0.3425 -0.0418
  666PSPI   GL110303  16.929  13.021   5.809 -0.0069 -0.2768 -0.3429
  666PSPI   GL210304  17.216  12.919   5.822  0.2656 -0.1677 -0.2836
  666PSPI   C1A10305  16.908  12.928   6.340  0.0323 -0.1999  0.2413
  666PSPI   C2A10306  16.779  12.919   6.640 -0.0558 -0.1556  0.1109
  666PSPI   C3A10307  16.533  13.104   7.072  0.1587 -0.1869 -0.5071
  666PSPI   C4A10308  15.992  13.240   7.213 -0.2085  0.1369 -0.0653
  666PSPI   C1B10309  17.323  12.737   6.184  0.0451 -0.4196 -0.1103
  666PSPI   C2B10310  17.151  12.583   6.572 -0.2046 -0.1506 -0.2824
  666PSPI   C3B10311  16.929  12.498   6.899  0.4563 -0.0371 -0.2836
  666PSPI   C4B10312  16.703  12.003   7.196 -0.1749 -0.1269 -0.0614
  667PSPI    C110313   2.921   6.495   5.105 -0.1040  0.1333 -0.0856
  667PSPI    C210314   2.588   6.644   4.942 -0.0176  0.3226 -0.0917
  667PSPI    C310315   2.932   6.654   4.738 -0.0316  0.0143 -0.1357
  667PSPI   PO410316   2.939   6.643   5.391  0.2293  0.1003 -0.2305
  667PSPI   GL110317   3.142   6.593   5.780  0.0527  0.1759  0.3377
  667PSPI   GL210318   3.027   6.865   6.018 -0.1496 -0.1545 -0.1327
  667PSPI   C1A10319   2.836   6.371   6.096 -0.0625 -0.0952  0.0697
  667PSPI   C2A10320   2.793   6.262   6.409 -0.4700  0.1556  0.0589
  667PSPI   C3A10321   2.507   5.983   6.614  0.1373 -0.0557 -0.1105
  667PSPI   C4A10322   2.616   5.689   6.889  0.0629 -0.0091  0.1160
  667PSPI   C1B10323   2.965   6.714   6.444  0.2152  0.2189  0.0102
  667PSPI   C2B10324   2.957   6.902   6.851 -0.0619 -0.0982  0.2427
  667PSPI   C3B10325   2.856   6.754   7.277  0.1973 -0.0397  0.2502
  667PSPI   C4B10326   2.408   6.687   7.277 -0.0089  0.2604 -0.6547
  668PSPI    C110327  14.910  14.542   5.154 -0.0263  0.0390  0.1283
  668PSPI    C210328  14.978  14.183   5.317  0.0087 -0.0064  0.0144
  668PSPI    C310329  14.824  14.210   4.948 -0.2049  0.0959  0.1091
  668PSPI   PO410330  14.841  14.718   5.428  0.0270  0.1554  0.0121
  668PSPI   GL110331  14.726  14.846   5.894  0.2812  0.0395 -0.0563
  668PSPI   GL210332  15.079  14.792   6.013 -0.1508 -0.0572 -0.1816
  668PSPI   C1A10333  14.810  15.125   6.307  0.2722 -0.0122  0.1883
  668PSPI   C2A10334  14.595  15.422   6.435 -0.1473 -0.1328  0.3574
  668PSPI   C3A10335  14.383  15.641   6.792 -0.0939  0.2094 -0.1290
  668PSPI   C4A10336  14.390  15.932   7.064 -0.0301  0.3577 -0.1385
  668PSPI   C1B10337  15.189  14.809   6.468 -0.2684  0.1280 -0.3402
  668PSPI   C2B10338  15.506  15.013   6.765 -0.0528  0.0390 -0.0661
  668PSPI   C3B10339  15.736  15.097   7.174  0.1600 -0.1770  0.1748
  668PSPI   C4B10340  15.977  15.461   7.348 -0.4735  0.2289  0.2136
  669PSPI    C110341   2.861  15.382   5.389  0.2375  0.0875 -0.0313
  669PSPI    C210342   3.052  15.384   5.037  0.1429  0.3578 -0.0827
  669PSPI    C310343   2.738  15.625   5.097 -0.0313  0.0937  0.0847
  669PSPI   PO410344   2.986  15.358   5.541  0.1395 -0.1183  0.1466
  669PSPI   GL110345   3.176  15.083   5.824  0.0759 -0.2766  0.0531
  669PSPI   GL210346   3.014  14.850   5.727 -0.0307 -0.3161  0.0797
  669PSPI   C1A10347   2.947  15.036   6.262  0.2397  0.3426 -0.2088
  669PSPI   C2A10348   2.949  14.663   6.593 -0.0298  0.3258 -0.1993
  669PSPI   C3A10349   3.132  14.347   6.799 -0.1084 -0.1840 -0.2077
  669PSPI   C4A10350   3.437  14.075   6.918 -0.3516 -0.0517 -0.0024
  669PSPI   C1B10351   3.207  14.596   6.134  0.3333  0.1607  0.1534
  669PSPI   C2B10352   3.432  14.654   6.521 -0.2562  0.0148 -0.3972
  669PSPI   C3B10353   3.222  14.777   7.012 -0.4913  0.4040 -0.0804
  669PSPI   C4B10354   2.840  15.003   7.309 -0.3995 -0.3220  0.0062
  670PSPI    C110355  19.176   3.355   4.852  0.3236  0.3108  0.2993
  670PSPI    C210356  19.514   3.177   4.732 -0.0275 -0.0024 -0.2712
  670PSPI    C310357  19.382   3.504   4.544 -0.1619 -0.0164 -0.2029
  670PSPI   PO410358  19.205   3.482   5.169 -0.1087 -0.0621 -0.1153
  670PSPI   GL110359  18.996   3.561   5.597 -0.1875 -0.2341  0.1401
  670PSPI   GL210360  19.025   3.887   5.543 -0.1837  0.4541  0.0221
  670PSPI   C1A10361  19.001   3.537   5.982  0.1465  0.3044  0.0369
  670PSPI   C2A10362  19.098   3.620   6.373  0.1668 -0.0480  0.1978
  670PSPI   C3A10363  19.361   3.504   6.649 -0.4815  0.3773 -0.2813
  670PSPI   C4A10364  19.752   3.772   6.709 -0.0311  0.0302 -0.0294
  670PSPI   C1B10365  19.306   4.081   5.882  0.2175 -0.3219 -0.0109
  670PSPI   C2B10366  19.356   4.089   6.252  0.0821 -0.0051 -0.2759
  670PSPI   C3B10367  19.256   4.090   6.647  0.0493  0.0677  0.1105
  670PSPI   C4B10368  19.381   3.870   7.000 -0.0347 -0.3887 -0.1334
  671PSPI    C110369  16.178  15.660   5.482 -0.0659 -0.0430 -0.1940
  671PSPI    C210370  15.878  15.652   5.217 -0.2809 -0.0127  0.0451
  671PSPI    C310371  15.904  15.369   5.499 -0.2100  0.1077  0.1610
  671PSPI   PO410372  16.176  16.062   5.718  0.0398 -0.0811  0.0470
  671PSPI   GL110373  16.527  16.296   5.929 -0.2878  0.0316 -0.3461
  671PSPI   GL210374  16.631  16.570   6.010 -0.0133 -0.0316 -0.0360
  671PSPI   C1A10375  16.187  16.474   6.201  0.0695 -0.3681  0.0447
  671PSPI   C2A10376  16.061  16.450   6.640 -0.1928  0.3076  0.3729
  671PSPI   C3A10377  16.069  16.410   6.993  0.0030  0.0053 -0.1188
  671PSPI   C4A10378  15.697  16.376   7.229 -0.1342 -0.1259 -0.0486
  671PSPI   C1B10379  16.952  16.617   6.125 -0.3770 -0.1459  0.2426
  671PSPI   C2B10380  16.960  16.862   6.479  0.0953  0.0634  0.1983
  671PSPI   C3B10381  17.135  17.090   6.795  0.2216  0.0314 -0.1426
  671PSPI   C4B10382  17.006  17.370   7.101  0.2553 -0.2318  0.0181
  672PSPI    C110383  16.537   4.439   4.971 -0.1238  0.0184 -0.0365
  672PSPI    C210384  16.693   4.791   4.864 -0.1047  0.0308  0.0320
  672PSPI    C310385  16.923   4.464   4.872 -0.0363  0.0829  0.3079
  672PSPI   PO410386  16.293   4.580   5.163 -0.1974  0.3077 -0.1276
  672PSPI   GL110387  16.134   4.701   5.585 -0.0635  0.1143 -0.1323
  672PSPI   GL210388  15.816   4.622   5.781  0.0160  0.1796  0.1965
  672PSPI   C1A10389  16.353   4.954   5.844  0.2628  0.1766 -0.2180
  672PSPI   C2A10390  16.189   5.302   6.179 -0.1920 -0.0552 -0.0018
  672PSPI   C3A10391  16.195   5.513   6.572 -0.2899 -0.2915  0.1049
  672PSPI   C4A10392  15.948   5.775   6.776 -0.0821  0.1545 -0.1616
  672PSPI   C1B10393  16.014   4.735   6.211  0.0095  0.0664 -0.1465
  672PSPI   C2B10394  15.979   4.649   6.710  0.1993  0.1848  0.0551
  672PSPI   C3B10395  16.100   4.328   6.998 -0.0981 -0.0991 -0.3395
  672PSPI   C4B10396  16.106   3.914   7.116 -0.0631 -0.1962 -0.1175
  673PSPI    C110397   1.993  11.585   5.263  0.3755 -0.1895  0.4399
  673PSPI    C210398   1.984  11.336   4.950  0.1344  0.0767  0.2302
  673PSPI    C310399   2.140  11.702   4.910 -0.1269  0.2040  0.3497
  673PSPI   PO410400   1.921  11.347   5.433 -0.3408 -0.2995  0.2226
  673PSPI   GL110401   2.117  11.109   5.881  0.0201  0.6482  0.0009
  673PSPI   GL210402   2.371  11.193   5.694  0.1987 -0.1234  0.5563
  673PSPI   C1A10403   1.812  11.252   6.117  0.0658  0.1781  0.2416
  673PSPI   C2A10404   1.739  11.188   6.561 -0.3165  0.0029 -0.2090
  673PSPI   C3A10405   1.781  11.016   6.962  0.0032  0.1158  0.0887
  673PSPI   C4A10406   2.147  11.199   7.318 -0.3255  0.1604  0.5655
  673PSPI   C1B10407   2.604  11.617   5.759 -0.0059 -0.1230 -0.3797
  673PSPI   C2B10408   2.800  12.010   5.629 -0.3452 -0.0431 -0.2267
  673PSPI   C3B10409   3.020  12.390   5.612 -0.2924 -0.2417 -0.0992
  673PSPI   C4B10410   3.370  12.657   5.594 -0.2787 -0.1293 -0.0120
  674POPI    C110411   8.521   4.987   4.760  0.0634 -0.1607 -0.0097
  674POPI    C210412   8.631   4.711   5.028 -0.0450 -0.1464  0.0502
  674POPI    C310413   8.454   4.600   4.687 -0.1113 -0.1495  0.0855
  674POPI   PO410414   8.399   5.145   4.953 -0.0906  0.1946 -0.0091
  674POPI   GL110415   8.217   5.331   5.217 -0.1313 -0.0674  0.5817
  674POPI   GL210416   8.450   5.172   5.426 -0.1318  0.2201  0.0215
  674POPI   C1A10417   8.072   5.605   5.619 -0.3737  0.0314 -0.3038
  674POPI   D2A10418   8.069   5.716   6.068 -0.0191  0.2174 -0.1462
  674POPI   C3A10419   8.294   5.822   6.434 -0.0892 -0.0351  0.2667
  674POPI   C4A10420   8.522   6.161   6.690  0.1006 -0.0610 -0.1877
  674POPI   C1B10421   8.166   4.790   5.506  0.2154  0.0911 -0.5498
  674POPI   C2B10422   7.787   4.472   5.662  0.0460  0.1623  0.2450
  674POPI   C3B10423   7.413   4.487   5.931  0.1986  0.0804  0.0539
  674POPI   C4B10424   7.036   4.641   6.082 -0.4630  0.3558 -0.0965
  675POPI    C110425   8.506   9.089   5.221  0.0662  0.1737  0.2786
  675POPI    C210426   8.581   9.481   5.199  0.0789  0.1514 -0.1844
  675POPI    C310427   8.449   9.285   4.877 -0.1301 -0.1873  0.0998
  675POPI   PO410428   8.685   9.008   5.428  0.1649 -0.3244  0.2845
  675POPI   GL110429   8.851   8.832   5.796  0.0158 -0.2492 -0.0407
  675POPI   GL210430   9.125   8.976   6.033  0.0380  0.0692  0.3285
  675POPI   C1A10431   8.710   8.484   5.975 -0.0153  0.0284  0.1210
  675POPI   D2A10432   8.814   8.114   6.141 -0.3232  0.0476 -0.0086
  675POPI   C3A10433   8.967   8.210   6.574  0.0352 -0.0481 -0.0093
  675POPI   C4A10434   9.319   8.160   7.009  0.2474 -0.4013 -0.1556
  675POPI   C1B10435   8.980   8.689   6.320  0.1110  0.0353 -0.2956
  675POPI   C2B10436   8.579   8.539   6.528 -0.0154  0.3075 -0.0630
  675POPI   C3B10437   8.138   8.572   6.662  0.2141  0.2557 -0.1722
  675POPI   C4B10438   7.842   8.746   6.885  0.1565 -0.5365 -0.1826
  676POPI    C110439  17.860   7.257   4.938  0.0508  0.1657 -0.1055
  676POPI    C210440  18.199   7.047   4.896  0.0167  0.0930 -0.0197
  676POPI    C310441  18.214   7.443   4.951  0.0734  0.1508 -0.4238
  676POPI   PO410442  17.744   7.204   5.121  0.2118  0.1060 -0.0767
  676POPI   GL110443  17.484   7.150   5.557  0.0116 -0.1204  0.0211
  676POPI   GL210444  17.224   7.044   5.317 -0.1010 -0.2952 -0.3211
  676POPI   C1A10445  17.711   6.884   5.786  0.0775 -0.0887  0.3335
  676POPI   D2A10446  17.858   6.710   6.075 -0.2982 -0.0871  0.2195
  676POPI   C3A10447  17.631   6.279   6.199 -0.2250 -0.0693 -0.1875
  676POPI   C4A10448  17.912   6.034   6.525 -0.0512 -0.0569  0.3706
  676POPI   C1B10449  17.117   7.125   5.865 -0.5012  0.2581  0.0475
  676POPI   C2B10450  17.428   7.296   6.253  0.3661 -0.1344 -0.1648
  676POPI   C3B10451  17.662   7.123   6.502  0.0973 -0.0924  0.0542
  676POPI   C4B10452  17.810   6.634   6.595  0.1105  0.2057 -0.2051
  677POPI    C110453   7.111  10.098   5.206 -0.1208  0.1436  0.1028
  677POPI    C210454   7.187  10.489   5.162  0.0218  0.1341  0.2550
  677POPI    C310455   7.241  10.239   4.854  0.0201  0.2202  0.1842
  677POPI   PO410456   7.267  10.096   5.514  0.0157  0.1237 -0.0024
  677POPI   GL110457   6.989  10.033   5.837  0.0245  0.2078 -0.0138
  677POPI   GL210458   7.061  10.190   6.035  0.0629 -0.0591 -0.0423
  677POPI   C1A10459   6.592  10.093   6.135  0.1318  0.0445  0.1900
  677POPI   D2A10460   6.459   9.934   6.424 -0.0840  0.3692  0.1369
  677POPI   C3A10461   6.473   9.652   6.775  0.0921 -0.0385  0.0301
  677POPI   C4A10462   6.400   9.166   7.059 -0.0973 -0.2024 -0.0963
  677POPI   C1B10463   7.328  10.384   6.261  0.4030 -0.0014 -0.0348
  677POPI   C2B10464   7.378  10.400   6.743  0.1300 -0.0360 -0.1424
  677POPI   C3B10465   7.510  10.472   7.120 -0.1238  0.0095 -0.0105
  677POPI   C4B10466   7.271  10.495   7.512  0.0084  0.1046  0.3759
  678POPI    C110467  13.125   2.369   5.087 -0.1479  0.1725  0.1287
  678POPI    C210468  12.797   2.271   4.880 -0.0216 -0.1151  0.0595
  678POPI    C310469  13.129   2.384   4.688 -0.0613  0.1223  0.1273
  678POPI   PO410470  13.027   2.478   5.277 -0.0707  0.1096  0.1431
  678POPI   GL110471  13.003   2.317   5.671 -0.2005 -0.0034 -0.1793
  678POPI   GL210472  12.951   1.978   5.696 -0.0964  0.0009  0.0524
  678POPI   C1A10473  13.040   2.532   6.006  0.0461 -0.1552  0.1829
  678POPI   D2A10474  12.963   2.698   6.369 -0.0405  0.0662 -0.3287
  678POPI   C3A10475  13.253   2.871   6.484 -0.2634  0.2472 -0.3125
  678POPI   C4A10476  13.335   3.164   6.855  0.1525 -0.0822  0.0502
  678POPI   C1B10477  12.739   2.172   6.020  0.0914 -0.1631  0.1690
  678POPI   C2B10478  12.748   2.249   6.537  0.3429 -0.0243  0.1577
  678POPI   C3B10479  12.963   2.450   6.925 -0.2401  0.2318  0.3974
  678POPI   C4B10480  13.370   2.688   6.998  0.3831 -0.2067  0.2181
  679POPI    C110481   9.052  13.286   5.019  0.0280 -0.1364 -0.0597
  679POPI    C210482   8.759  13.127   5.241 -0.0981  0.0952 -0.0570
  679POPI    C310483   8.984  12.892   5.008 -0.1004 -0.1218  0.1562
  679POPI   PO410484   9.234  13.506   5.212  0.1794  0.2996 -0.0608
  679POPI   GL110485   9.109  13.334   5.500  0.0380 -0.0546 -0.0616
  679POPI   GL210486   9.189  12.996   5.456 -0.1561  0.2444 -0.0341
  679POPI   C1A10487   9.207  13.647   5.903 -0.0109 -0.1360 -0.0530
  679POPI   D2A10488   9.323  13.595   6.405  0.0247  0.1192 -0.0470
  679POPI   C3A10489   9.383  13.872   6.632  0.0910  0.1799 -0.0520
  679POPI   C4A10490   9.263  14.104   7.057 -0.4215 -0.1938 -0.1476
  679POPI   C1B10491   9.217  13.136   5.953  0.0456  0.1530  0.1593
  679POPI   C2B10492   9.071  13.138   6.452  0.3372 -0.2388  0.0153
  679POPI   C3B10493   9.174  13.074   6.787 -0.0611 -0.0957 -0.0377
  679POPI   C4B10494   9.361  13.172   7.256 -0.0688  0.1245 -0.2629
  680POPI    C110495  13.412  17.462   5.370  0.2684 -0.0517  0.1988
  680POPI    C210496  13.329  17.671   5.701  0.3064 -0.0069  0.1802
  680POPI    C310497  13.615  17.797   5.452 -0.0205  0.2040 -0.0983
  680POPI   PO410498  13.397  17.169   5.532  0.0368  0.0852  0.4656
  680POPI   GL110499  13.309  16.786   5.882  0.0168 -0.0426  0.1021
  680POPI   GL210500  13.319  17.126   6.045  0.2221 -0.1917 -0.0350
  680POPI   C1A10501  13.560  16.708   6.189 -0.1740 -0.2196  0.3288
  680POPI   D2A10502  13.977  16.438   6.417 -0.0818 -0.0914 -0.0777
  680POPI   C3A10503  14.151  16.147   6.692 -0.0194 -0.1034  0.0071
  680POPI   C4A10504  13.895  15.825   6.860 -0.0532  0.4282 -0.2243
  680POPI   C1B10505  13.234  17.156   6.526 -0.1614 -0.0705 -0.1193
  680POPI   C2B10506  13.332  17.283   6.958  0.1270 -0.1093  0.3404
  680POPI   C3B10507  13.529  17.195   7.427  0.0243  0.0833  0.0465
  680POPI   C4B10508  13.633  17.024   7.749 -0.2405 -0.0479 -0.0105
  681POPI    C110509  19.194  11.703   5.277  0.1981  0.0032 -0.0702
  681POPI    C210510  19.048  11.654   4.908 -0.2976  0.0926  0.1060
  681POPI    C310511  19.305  11.951   4.984 -0.0546 -0.0337 -0.2001
  681POPI   PO410512  18.959  11.794   5.399 -0.0337  0.2502 -0.0077
  681POPI   GL110513  18.816  11.754   5.832 -0.0864  0.0920 -0.0922
  681POPI   GL210514  18.788  11.449   6.032  0.0809 -0.0248 -0.3286
  681POPI   C1A10515  18.471  11.767   6.256 -0.1872 -0.4243 -0.0469
  681POPI   D2A10516  18.453  11.509   6.666  0.2348  0.1637 -0.2809
  681POPI   C3A10517  18.538  11.055   6.705 -0.1187  0.0628 -0.1074
  681POPI   C4A10518  18.820  10.932   7.089  0.1978  0.0832  0.0410
  681POPI   C1B10519  18.868  11.213   6.419  0.0155 -0.1122  0.2675
  681POPI   C2B10520  19.048  10.899   6.632 -0.2883 -0.1826  0.1874
  681POPI   C3B10521  19.214  10.663   6.978  0.2780 -0.1538 -0.1004
  681POPI   C4B10522  19.281  10.720   7.438 -0.0705 -0.1480 -0.3198
  682POPI    C110523  16.822  15.361   5.221 -0.1713  0.0076  0.0777
  682POPI    C210524  16.539  15.632   5.139 -0.3025 -0.2393 -0.3146
  682POPI    C310525  16.823  15.551   4.869  0.1008 -0.0557  0.0417
  682POPI   PO410526  16.888  15.415   5.488  0.1056  0.4774 -0.5259
  682POPI   GL110527  16.921  15.792   5.844 -0.0488 -0.2879 -0.1771
  682POPI   GL210528  16.626  15.782   5.785  0.4672 -0.1799 -0.2192
  682POPI   C1A10529  16.904  16.085   6.159  0.1495 -0.0901 -0.2301
  682POPI   D2A10530  16.653  16.292   6.483 -0.1231 -0.2515  0.0151
  682POPI   C3A10531  16.617  16.301   6.970  0.0767 -0.1320  0.0570
  682POPI   C4A10532  16.491  16.252   7.415  0.2901 -0.0903 -0.0171
  682POPI   C1B10533  16.741  15.617   6.306  0.1507  0.1481 -0.1009
  682POPI   C2B10534  16.691  15.511   6.773 -0.0440 -0.0011  0.2902
  682POPI   C3B10535  16.701  15.494   7.183 -0.0133 -0.1260  0.1245
  682POPI   C4B10536  16.820  15.393   7.675  0.0675  0.2270 -0.0282
  683POPI    C110537   7.763   8.258   4.961  0.1216 -0.0299  0.1921
  683POPI    C210538   8.061   8.184   4.704  0.1263  0.0209  0.1828
  683POPI    C310539   7.732   7.955   4.701  0.1605 -0.0285  0.1857
  683POPI   PO410540   7.643   8.445   4.980 -0.2581 -0.0420  0.1737
  683POPI   GL110541   7.540   8.827   5.182  0.1183 -0.1417  0.2970
  683POPI   GL210542   7.178   8.962   5.211 -0.0115 -0.1984 -0.0947
  683POPI   C1A10543   7.481   8.770   5.683  0.0844 -0.0173 -0.0478
  683POPI   D2A10544   7.264   8.724   6.075  0.1013 -0.3195 -0.2340
  683POPI   C3A10545   7.386   8.644   6.548 -0.0978 -0.0322 -0.4952
  683POPI   C4A10546   7.242   8.569   6.879 -0.4948 -0.1191  0.0200
  683POPI   C1B10547   6.983   8.925   5.672 -0.2889  0.0722  0.0395
  683POPI   C2B10548   6.742   9.002   6.063 -0.3090 -0.3726  0.0013
  683POPI   C3B10549   6.679   8.654   6.258  0.0202 -0.4514 -0.0813
  683POPI   C4B10550   6.948   8.422   6.331 -0.0201 -0.0166 -0.0353
  684POPI    C110551  14.398   9.708   5.012 -0.0571  0.1149  0.0758
  684POPI    C210552  14.741   9.812   4.835 -0.1502 -0.0438 -0.2036
  684POPI    C310553  14.411  10.032   4.779 -0.0541  0.2205  0.2212
  684POPI   PO410554  14.305   9.409   5.006  0.0079  0.0384  0.2121
  684POPI   GL110555  14.336   9.193   5.273  0.2681 -0.0894  0.0128
  684POPI   GL210556  14.448   9.449   5.491 -0.0958 -0.0501  0.0325
  684POPI   C1A10557  14.459   8.924   5.640  0.0578 -0.0060  0.0989
  684POPI   D2A10558  14.360   8.654   5.888 -0.1503  0.0158  0.2670
  684POPI   C3A10559  14.767   8.536   6.138  0.1315  0.3037  0.0070
  684POPI   C4A10560  14.945   8.731   6.462 -0.0065 -0.0793  0.0208
  684POPI   C1B10561  14.391   9.396   5.976 -0.0497 -0.0496 -0.2041
  684POPI   C2B10562  14.312   9.403   6.385  0.1959  0.0217 -0.2170
  684POPI   C3B10563  14.453   9.607   6.780  0.0137 -0.0099  0.1008
  684POPI   C4B10564  14.368   9.606   7.280 -0.3684  0.2536  0.1399
  685POPI    C110565  10.199   3.610   4.959 -0.1079  0.3306  0.0640
  685POPI    C210566  10.341   3.344   4.696 -0.3368  0.0976  0.1721
  685POPI    C310567  10.500   3.710   4.715 -0.0032 -0.0364  0.0364
  685POPI   PO410568  10.188   3.590   5.146 -0.1958  0.0838 -0.2792
  685POPI   GL110569  10.174   3.916   5.510 -0.3180 -0.0406 -0.0418
  685POPI   GL210570  10.232   4.120   5.641  0.3381 -0.2157 -0.2234
  685POPI   C1A10571  10.114   3.683   5.955 -0.0235  0.2588 -0.2110
  685POPI   D2A10572  10.144   3.721   6.366  0.2669  0.0659  0.1108
  685POPI   C3A10573  10.375   4.043   6.663 -0.1978  0.0765  0.0339
  685POPI   C4A10574  10.570   4.291   6.925 -0.2150 -0.0505 -0.0100
  685POPI   C1B10575  10.410   4.255   6.149  0.1537 -0.1923 -0.0840
  685POPI   C2B10576  10.334   4.552   6.528  0.2227  0.0191  0.0156
  685POPI   C3B10577  10.549   4.860   6.776  0.1006 -0.2158  0.0378
  685POPI   C4B10578  10.584   5.157   6.953 -0.4404 -0.1789  0.1320
  686POPI    C110579  12.339  15.321   5.260  0.0243  0.2479 -0.2225
  686POPI    C210580  12.114  15.564   5.485  0.0023 -0.0060  0.0350
  686POPI    C310581  11.981  15.442   5.128 -0.2940 -0.1881  0.2024
  686POPI   PO410582  12.399  15.146   5.456 -0.0107 -0.0781  0.3474
  686POPI   GL110583  12.337  15.075   5.794  0.0510 -0.4352 -0.0106
  686POPI   GL210584  12.257  15.262   5.933  0.0436  0.0197  0.2877
  686POPI   C1A10585  12.471  14.912   6.260 -0.0670  0.0056  0.1498
  686POPI   D2A10586  12.874  15.014   6.447 -0.0075  0.1369 -0.2038
  686POPI   C3A10587  13.169  14.652   6.531 -0.0552  0.1157 -0.0877
  686POPI   C4A10588  13.584  14.403   6.439  0.0213  0.4898 -0.1163
  686POPI   C1B10589  12.220  15.275   6.445  0.0536 -0.1315 -0.1434
  686POPI   C2B10590  11.903  15.141   6.826 -0.1768  0.1312  0.1893
  686POPI   C3B10591  11.661  15.482   7.101  0.0138  0.0840  0.0044
  686POPI   C4B10592  11.698  15.913   7.189  0.0591 -0.1251 -0.1328
  687POPI    C110593  16.779   6.647   5.098 -0.0506 -0.0106  0.0073
  687POPI    C210594  16.974   6.921   4.881  0.1055  0.1317  0.3206
  687POPI    C310595  16.868   6.572   4.716  0.0261  0.3239 -0.0434
  687POPI   PO410596  16.952   6.544   5.330  0.0281 -0.1721 -0.2689
  687POPI   GL110597  17.286   6.590   5.523  0.0753  0.0342 -0.1112
  687POPI   GL210598  17.696   6.487   5.344 -0.0341 -0.0381  0.0388
  687POPI   C1A10599  17.167   6.442   5.952 -0.0161 -0.0916  0.0394
  687POPI   D2A10600  17.045   6.339   6.358  0.2501 -0.1521 -0.0610
  687POPI   C3A10601  17.347   6.204   6.622  0.2299 -0.1624  0.2369
  687POPI   C4A10602  17.655   6.173   6.914 -0.0318 -0.0951  0.2653
  687POPI   C1B10603  17.843   6.345   5.757  0.2350  0.1664  0.0937
  687POPI   C2B10604  18.259   6.174   5.749 -0.0872 -0.0141 -0.3970
  687POPI   C3B10605  18.712   6.223   5.955 -0.2309  0.1903  0.1593
  687POPI   C4B10606  19.157   6.171   6.079  0.0641 -0.1223  0.1027
  688POPI    C110607  13.867   0.487   5.492  0.1486 -0.2261 -0.0503
  688POPI    C210608  13.810   0.374   5.112 -0.1642 -0.2505  0.0018
  688POPI    C310609  13.991   0.127   5.370  0.0413 -0.2371 -0.1280
  688POPI   PO410610  13.941   0.736   5.462  0.3501 -0.1304  0.1552
  688POPI   GL110611  14.117   1.011   5.795 -0.2502  0.1642  0.0974
  688POPI   GL210612  14.087   0.859   6.149 -0.1821 -0.1217  0.0744
  688POPI   C1A10613  14.355   1.317   6.199 -0.2348 -0.0874 -0.2146
  688POPI   D2A10614  14.246   1.521   6.602  0.0008 -0.0781 -0.0053
  688POPI   C3A10615  14.370   1.390   6.988  0.3818 -0.0336  0.0369
  688POPI   C4A10616  14.552   1.429   7.454  0.1306  0.0045  0.1596
  688POPI   C1B10617  14.194   1.018   6.557 -0.2610 -0.0597  0.1575
  688POPI   C2B10618  14.082   0.905   7.028 -0.0093  0.0880 -0.0669
  688POPI   C3B10619  14.274   0.954   7.450  0.0496  0.0118 -0.2061
  688POPI   C4B10620  14.578   1.041   7.760 -0.2632  0.0165  0.0819
  689POPI    C110621  10.040   5.603   4.732 -0.0718  0.0826 -0.0483
  689POPI    C210622  10.418   5.478   4.691 -0.0875  0.0252 -0.0205
  689POPI    C310623  10.263   5.738   4.429 -0.0251  0.0585 -0.0247
  689POPI   PO410624   9.908   5.528   5.005  0.1037  0.0265  0.2298
  689POPI   GL110625   9.552   5.787   5.240  0.2666  0.0625  0.1344
  689POPI   GL210626   9.873   5.871   5.334 -0.1181 -0.1189  0.0763
  689POPI   C1A10627   9.282   5.838   5.664  0.1183  0.1927 -0.0187
  689POPI   D2A10628   9.388   5.922   6.123  0.1075 -0.2540  0.1245
  689POPI   C3A10629   9.252   5.763   6.576  0.1810 -0.0979 -0.2919
  689POPI   C4A10630   9.011   5.448   6.834 -0.0583  0.0358 -0.0060
  689POPI   C1B10631   9.732   5.803   5.789  0.1919  0.0424 -0.2122
  689POPI   C2B10632   9.851   5.935   6.130  0.0667  0.0590 -0.3087
  689POPI   C3B10633   9.977   5.948   6.586  0.1265 -0.1641  0.0267
  689POPI   C4B10634   9.975   5.799   7.019 -0.0148  0.1082 -0.1390
  690POPI    C110635   0.904   5.849   4.840  0.0370  0.0399 -0.0200
  690POPI    C210636   1.265   5.847   4.668  0.0609  0.0536  0.0293
  690POPI    C310637   0.971   5.620   4.520  0.1380 -0.0876  0.0908
  690POPI   PO410638   0.941   5.756   5.227  0.1363 -0.0063  0.3137
  690POPI   GL110639   0.749   5.648   5.647  0.3185 -0.2374 -0.1078
  690POPI   GL210640   0.655   5.865   5.897 -0.2837 -0.0900 -0.1696
  690POPI   C1A10641   0.452   5.396   5.816 -0.2574  0.3731  0.3653
  690POPI   D2A10642   0.059   5.320   5.932  0.0136 -0.0953  0.1443
  690POPI   C3A10643   0.071   5.595   6.239  0.1568 -0.3211  0.1682
  690POPI   C4A10644  -0.202   5.511   6.554 -0.1820 -0.3248  0.0928
  690POPI   C1B10645   0.642   5.618   6.179 -0.1337 -0.1932 -0.0130
  690POPI   C2B10646   0.887   5.351   6.492 -0.0109 -0.2372  0.1746
  690POPI   C3B10647   1.128   5.164   6.778  0.0372  0.0047 -0.1480
  690POPI   C4B10648   1.183   5.107   7.187 -0.0354 -0.2083 -0.0824
  691POPI    C110649   8.889   3.703   4.710  0.2537  0.0104  0.2517
  691POPI    C210650   9.226   3.766   4.505  0.0176 -0.1040 -0.1830
  691POPI    C310651   8.889   3.954   4.398 -0.0585  0.0179  0.2537
  691POPI   PO410652   8.955   3.725   4.960 -0.2286 -0.1351  0.1134
  691POPI   GL110653   8.991   3.963   5.328 -0.0732  0.3623  0.1428
  691POPI   GL210654   9.166   3.825   5.473 -0.2268 -0.1887 -0.2349
  691POPI   C1A10655   8.685   3.923   5.625  0.0650 -0.0504 -0.1487
  691POPI   D2A10656   8.349   3.861   5.944 -0.0130 -0.1833  0.0954
  691POPI   C3A10657   8.008   4.195   6.051 -0.2728 -0.3391  0.0858
  691POPI   C4A10658   7.540   4.070   6.196 -0.1230  0.1566  0.2360
  691POPI   C1B10659   9.108   4.163   5.795 -0.0439 -0.2085  0.0403
  691POPI   C2B10660   9.000   4.549   6.014 -0.0480  0.0109  0.0402
  691POPI   C3B10661   8.856   4.961   6.282 -0.0785  0.3430 -0.0043
  691POPI   C4B10662   8.737   4.930   6.706 -0.1329  0.0898  0.2880
  692POPI    C110663   5.620  11.743   5.190  0.0742 -0.3405 -0.0783
  692POPI    C210664   5.745  12.085   5.026 -0.3578 -0.1185  0.0401
  692POPI    C310665   5.716  11.756   4.802  0.2848 -0.1468 -0.0223
  692POPI   PO410666   5.640  11.697   5.485 -0.1228 -0.5059 -0.0529
  692POPI   GL110667   5.361  11.891   5.758 -0.1044 -0.1346  0.1340
  692POPI   GL210668   5.482  12.106   5.961 -0.0335 -0.2479 -0.0319
  692POPI   C1A10669   5.575  11.640   6.140  0.0162  0.1018  0.3134
  692POPI   D2A10670   5.690  11.325   6.569  0.1058  0.2766  0.3019
  692POPI   C3A10671   5.621  11.101   6.818  0.3329  0.0996 -0.0264
  692POPI   C4A10672   5.402  10.969   7.185  0.2027 -0.3931 -0.2100
  692POPI   C1B10673   5.088  12.220   6.148  0.2771 -0.2768  0.1156
  692POPI   C2B10674   4.924  12.151   6.622  0.2178 -0.2429 -0.1000
  692POPI   C3B10675   4.797  12.151   7.081 -0.0056  0.1810 -0.3926
  692POPI   C4B10676   4.718  12.439   7.456 -0.3031 -0.0464 -0.0851
  693POPI    C110677   5.531   2.809   5.161 -0.1350  0.0262  0.1712
  693POPI    C210678   5.161   2.768   5.014  0.0206  0.1066 -0.2589
  693POPI    C310679   5.415   2.459   5.004 -0.0938 -0.0113  0.2241
  693POPI   PO410680   5.619   3.053   5.121  0.0869  0.3073  0.0860
  693POPI   GL110681   5.516   3.438   5.423  0.0112  0.1615  0.0490
  693POPI   GL210682   5.688   3.812   5.433  0.0391  0.1941 -0.0300
  693POPI   C1A10683   5.802   3.303   5.837 -0.0348  0.2692  0.0395
  693POPI   D2A10684   6.017   3.010   6.018  0.2813 -0.2199 -0.2023
  693POPI   C3A10685   6.338   3.057   6.339  0.3959 -0.4156 -0.1876
  693POPI   C4A10686   6.357   2.952   6.745 -0.2244  0.4861  0.2287
  693POPI   C1B10687   5.626   3.890   5.822  0.0145  0.0954  0.0563
  693POPI   C2B10688   5.619   4.110   6.203 -0.1825 -0.1163  0.1318
  693POPI   C3B10689   5.644   4.210   6.706  0.0053 -0.2192  0.0211
  693POPI   C4B10690   5.775   4.247   7.126  0.1010 -0.0498 -0.1678
  694POPI    C110691   9.296   8.004   5.007  0.1145 -0.1067 -0.1025
  694POPI    C210692   9.053   8.321   4.991  0.2260  0.0198  0.4910
  694POPI    C310693   8.981   8.002   4.761 -0.0526  0.3556  0.0979
  694POPI   PO410694   9.251   7.899   5.303  0.0079 -0.0586  0.2084
  694POPI   GL110695   9.528   7.861   5.702 -0.4455  0.1614 -0.2587
  694POPI   GL210696   9.696   7.588   5.915 -0.0247 -0.2663 -0.0059
  694POPI   C1A10697   9.295   7.646   6.111 -0.2312 -0.0691  0.0724
  694POPI   D2A10698   9.239   7.491   6.530  0.3681 -0.2176 -0.0662
  694POPI   C3A10699   8.823   7.725   6.627 -0.1481  0.0848 -0.0060
  694POPI   C4A10700   8.453   8.112   6.688  0.1339  0.4264 -0.2357
  694POPI   C1B10701   9.692   7.265   6.346  0.2421 -0.0128 -0.1249
  694POPI   C2B10702   9.405   7.046   6.560  0.0751 -0.6015  0.2847
  694POPI   C3B10703   9.042   7.075   6.518  0.1559 -0.1011  0.1070
  694POPI   C4B10704   8.596   7.237   6.436  0.0491  0.0418 -0.0701
  695POPI    C110705  10.053  18.920   5.282  0.3453 -0.0277 -0.1200
  695POPI    C210706  10.062  19.093   4.922  0.4297 -0.1118 -0.1588
  695POPI    C310707   9.887  18.736   4.968  0.0477  0.0859 -0.0326
  695POPI   PO410708  10.119  19.242   5.453  0.1763  0.2493  0.0967
  695POPI   GL110709  10.204  19.361   5.851  0.0701 -0.0845  0.2356
  695POPI   GL210710  10.087  19.733   5.829  0.2559  0.1343 -0.2378
  695POPI   C1A10711  10.592  19.303   6.043  0.0203  0.4252  0.0859
  695POPI   D2A10712  10.996  19.161   6.138  0.2380 -0.0447  0.0032
  695POPI   C3A10713  11.424  19.244   6.012  0.1814 -0.1278 -0.0823
  695POPI   C4A10714  11.824  19.259   6.141 -0.0293 -0.1249  0.2858
  695POPI   C1B10715  10.241  19.656   6.282 -0.2150 -0.2405  0.2921
  695POPI   C2B10716  10.131  19.575   6.761 -0.2062  0.2220 -0.1563
  695POPI   C3B10717   9.903  19.727   7.118  0.2743  0.3178  0.1446
  695POPI   C4B10718   9.454  19.589   7.104  0.3375 -0.1671 -0.0227
  696POPI    C110719   7.941   6.496   4.306  0.1866 -0.2040 -0.1699
  696POPI    C210720   8.048   6.807   4.078  0.2744 -0.1466 -0.0518
  696POPI    C310721   7.976   6.451   3.911  0.1020 -0.0453 -0.1964
  696POPI   PO410722   7.688   6.581   4.574 -0.4797 -0.4202  0.1778
  696POPI   GL110723   7.550   6.766   4.950 -0.4260  0.3830 -0.0984
  696POPI   GL210724   7.776   6.891   4.957  0.0543 -0.0865  0.0388
  696POPI   C1A10725   7.141   6.580   5.116 -0.2416  0.1729 -0.0835
  696POPI   D2A10726   7.008   6.204   5.377 -0.0487  0.1508  0.0065
  696POPI   C3A10727   7.192   5.885   5.687 -0.0615 -0.0063  0.1829
  696POPI   C4A10728   6.985   5.921   6.152 -0.0143 -0.1453  0.3917
  696POPI   C1B10729   7.578   6.936   5.370 -0.1943 -0.0381  0.1070
  696POPI   C2B10730   7.356   6.680   5.604  0.1003  0.0190 -0.0180
  696POPI   C3B10731   7.011   6.593   5.651 -0.2827 -0.5879 -0.0116
  696POPI   C4B10732   6.842   6.300   5.854 -0.0403 -0.1717  0.1550
  697POPI    C110733   7.182   2.259   5.004 -0.0238 -0.0420  0.1720
  697POPI    C210734   6.803   2.223   4.881  0.0040 -0.0031  0.0745
  697POPI    C310735   6.994   2.572   4.841  0.0102  0.0129  0.2378
  697POPI   PO410736   7.175   2.150   5.218  0.2797  0.1414  0.0151
  697POPI   GL110737   7.126   1.916   5.687  0.2589 -0.1213 -0.1066
  697POPI   GL210738   7.327   1.569   5.725 -0.0393  0.2776  0.0446
  697POPI   C1A10739   7.003   1.889   6.049 -0.2258  0.0460 -0.2874
  697POPI   D2A10740   6.718   1.998   6.341  0.0103 -0.1748  0.0427
  697POPI   C3A10741   6.825   2.069   6.709 -0.1107 -0.1442  0.1000
  697POPI   C4A10742   6.685   2.455   7.011 -0.2026  0.0920  0.1141
  697POPI   C1B10743   7.142   1.373   6.135 -0.1100  0.0271 -0.0428
  697POPI   C2B10744   6.960   1.551   6.426 -0.1918  0.0458  0.0576
  697POPI   C3B10745   6.886   1.586   6.895  0.0060 -0.0378 -0.2165
  697POPI   C4B10746   6.823   1.468   7.371 -0.0770  0.3734 -0.3516
  698POPI    C110747  17.328   9.154   5.095 -0.3547 -0.4067 -0.3446
  698POPI    C210748  17.546   9.272   4.781  0.0435  0.0175  0.0743
  698POPI    C310749  17.263   9.513   4.930 -0.0963 -0.1525  0.0873
  698POPI   PO410750  17.562   8.994   5.228  0.2332  0.0336 -0.2261
  698POPI   GL110751  17.480   9.097   5.626 -0.2379 -0.4571  0.0263
  698POPI   GL210752  17.341   9.239   5.732 -0.1379 -0.3879  0.3749
  698POPI   C1A10753  17.574   8.730   5.862 -0.2019 -0.0566 -0.0714
  698POPI   D2A10754  17.509   8.229   5.968  0.4089 -0.2498 -0.4512
  698POPI   C3A10755  17.295   8.214   6.356  0.1071 -0.1856  0.0293
  698POPI   C4A10756  17.169   7.970   6.707 -0.1840 -0.2389  0.0592
  698POPI   C1B10757  17.502   9.174   6.204  0.0701 -0.0837  0.0375
  698POPI   C2B10758  17.452   9.073   6.643  0.1508  0.0941  0.0374
  698POPI   C3B10759  17.619   9.295   7.044 -0.3558 -0.0527  0.0302
  698POPI   C4B10760  17.269   9.419   7.320  0.1563  0.4673  0.1373
  699POPI    C110761   7.502  16.527   4.869  0.0251 -0.2110 -0.0245
  699POPI    C210762   7.150  16.680   4.756 -0.0302  0.0142  0.4324
  699POPI    C310763   7.483  16.776   4.556 -0.1816  0.0583  0.1977
  699POPI   PO410764   7.423  16.514   5.165  0.0328 -0.1191 -0.1008
  699POPI   GL110765   7.551  16.312   5.509 -0.0276 -0.0607  0.0756
  699POPI   GL210766   7.707  16.060   5.269  0.2083 -0.1771  0.1167
  699POPI   C1A10767   7.704  16.485   5.921  0.1325 -0.1045 -0.1730
  699POPI   D2A10768   7.753  16.517   6.394  0.0276 -0.0707  0.2605
  699POPI   C3A10769   7.893  16.152   6.595 -0.0986 -0.1352  0.1188
  699POPI   C4A10770   8.184  15.917   6.931 -0.0044 -0.2533  0.2764
  699POPI   C1B10771   7.954  16.098   5.651  0.0678  0.1865 -0.0411
  699POPI   C2B10772   8.408  15.979   5.818  0.2775  0.2126 -0.0293
  699POPI   C3B10773   8.699  15.878   6.041  0.5917  0.1103 -0.1693
  699POPI   C4B10774   8.878  15.907   6.344  0.0418 -0.1691  0.2117
  700POPI    C110775  17.192  18.438   5.017  0.1199 -0.2787  0.0208
  700POPI    C210776  17.433  18.631   4.763 -0.0182  0.0339  0.1216
  700POPI    C310777  17.100  18.455   4.628  0.0268  0.0007  0.0526
  700POPI   PO410778  17.325  18.167   5.170 -0.1390 -0.0463 -0.1631
  700POPI   GL110779  17.594  18.164   5.522 -0.0797 -0.0917  0.0382
  700POPI   GL210780  17.484  18.421   5.604  0.4662 -0.1263  0.3148
  700POPI   C1A10781  17.652  17.909   5.974 -0.1671 -0.2860  0.2459
  700POPI   D2A10782  17.628  17.533   6.266  0.0471  0.3118  0.0698
  700POPI   C3A10783  17.453  17.420   6.676  0.1586 -0.1486 -0.0389
  700POPI   C4A10784  17.437  17.621   7.125  0.1798  0.1032 -0.2377
  700POPI   C1B10785  17.522  18.353   6.098 -0.2175  0.2374 -0.0881
  700POPI   C2B10786  17.519  18.106   6.441  0.0252  0.0558 -0.1181
  700POPI   C3B10787  17.746  17.941   6.630 -0.1194 -0.1758  0.2618
  700POPI   C4B10788  17.881  17.815   7.041 -0.3153 -0.1254 -0.1611
  701POPI    C110789   7.764  14.038   5.375 -0.3336 -0.0680 -0.2525
  701POPI    C210790   8.133  13.942   5.255 -0.2028  0.1397 -0.0240
  701POPI    C310791   7.845  13.665   5.255  0.0534 -0.1324  0.1821
  701POPI   PO410792   7.789  14.189   5.628  0.0425 -0.0186  0.3733
  701POPI   GL110793   7.599  14.083   5.972 -0.2559  0.1275 -0.3080
  701POPI   GL210794   7.404  13.833   6.181  0.0390 -0.1007  0.2888
  701POPI   C1A10795   7.961  13.849   6.223 -0.0919 -0.2228  0.2403
  701POPI   D2A10796   8.119  13.500   6.323 -0.1872 -0.1561  0.0949
  701POPI   C3A10797   8.101  13.233   6.738  0.2627  0.2101 -0.3784
  701POPI   C4A10798   8.123  13.163   7.152 -0.1400  0.0123 -0.3126
  701POPI   C1B10799   7.493  14.091   6.583 -0.4705 -0.2062 -0.1124
  701POPI   C2B10800   7.229  14.379   6.810 -0.1770 -0.1114 -0.3059
  701POPI   C3B10801   6.890  14.512   7.069 -0.0733 -0.1494  0.3724
  701POPI   C4B10802   6.582  14.795   7.187 -0.0886  0.3176 -0.1087
  702POPI    C110803  14.033  10.396   4.948 -0.2215  0.0400 -0.0583
  702POPI    C210804  13.822  10.706   5.087 -0.2213  0.0985 -0.1873
  702POPI    C310805  14.217  10.740   5.036 -0.2081  0.0484 -0.1189
  702POPI   PO410806  13.951  10.198   5.061  0.3759 -0.4204 -0.0016
  702POPI   GL110807  14.267   9.957   5.392  0.1830  0.2183 -0.3698
  702POPI   GL210808  14.162   9.924   5.616  0.1284  0.0005 -0.1584
  702POPI   C1A10809  14.655   9.762   5.762 -0.3716  0.0427  0.3085
  702POPI   D2A10810  15.033  10.095   5.764 -0.1110  0.1034  0.3411
  702POPI   C3A10811  15.031  10.193   6.228 -0.0643  0.1299  0.3411
  702POPI   C4A10812  15.373  10.210   6.393 -0.3271 -0.1031 -0.0326
  702POPI   C1B10813  14.238   9.882   5.960  0.2027  0.0357 -0.1515
  702POPI   C2B10814  14.397   9.957   6.306  0.0392  0.0504  0.2569
  702POPI   C3B10815  14.137  10.135   6.616  0.0123  0.2839  0.2588
  702POPI   C4B10816  14.144  10.492   6.797  0.2256  0.0049  0.0427
  703POPI    C110817   3.548   3.328   5.027  0.3761  0.0983 -0.1296
  703POPI    C210818   3.612   3.600   4.741 -0.0771  0.1754 -0.1651
  703POPI    C310819   3.377   3.285   4.668 -0.0146  0.0761  0.0548
  703POPI   PO410820   3.665   3.457   5.267 -0.4131  0.0480  0.0516
  703POPI   GL110821   4.049   3.574   5.563 -0.4304 -0.0303 -0.2978
  703POPI   GL210822   4.290   3.773   5.685 -0.0128  0.0977 -0.0807
  703POPI   C1A10823   3.817   3.397   5.960 -0.1698 -0.2410 -0.0093
  703POPI   D2A10824   3.667   3.570   6.415 -0.0358  0.2443  0.0001
  703POPI   C3A10825   3.344   3.310   6.586 -0.0199  0.0575 -0.0465
  703POPI   C4A10826   3.379   3.043   6.954  0.0054  0.0458 -0.3384
  703POPI   C1B10827   4.248   3.926   6.063 -0.3742  0.0627  0.1003
  703POPI   C2B10828   4.191   3.885   6.485 -0.1304 -0.1385  0.2279
  703POPI   C3B10829   4.203   3.644   6.847  0.1717  0.2242  0.0319
  703POPI   C4B10830   4.407   3.370   7.007 -0.0940  0.1232  0.1200
  704POPI    C110831   9.078  16.430   5.179  0.0456 -0.3016 -0.0287
  704POPI    C210832   8.737  16.349   4.986  0.0293  0.0495 -0.1538
  704POPI    C310833   9.067  16.139   4.904 -0.1511 -0.2859 -0.0390
  704POPI   PO410834   8.988  16.451   5.424 -0.0303  0.0681 -0.1513
  704POPI   GL110835   8.920  16.278   5.747  0.1244  0.1066  0.1602
  704POPI   GL210836   9.199  16.131   5.879 -0.1192  0.0581  0.0135
  704POPI   C1A10837   8.749  16.461   6.139  0.1275  0.2595 -0.0107
  704POPI   D2A10838   8.326  16.424   6.326 -0.1370  0.2387  0.2580
  704POPI   C3A10839   7.975  16.098   6.151 -0.0749  0.0733  0.2391
  704POPI   C4A10840   7.532  16.108   6.218  0.0109  0.0481  0.0924
  704POPI   C1B10841   9.173  16.338   6.293 -0.3821 -0.3746  0.4852
  704POPI   C2B10842   9.119  16.186   6.705 -0.2126  0.0705 -0.2864
  704POPI   C3B10843   9.173  15.962   7.024 -0.0135  0.1089  0.2967
  704POPI   C4B10844   9.060  15.925   7.467 -0.1708 -0.2533  0.1405
  705POPI    C110845   2.753  17.621   4.942 -0.0756 -0.1029 -0.0014
  705POPI    C210846   3.026  17.911   4.978 -0.0859 -0.1076  0.1189
  705POPI    C310847   3.119  17.572   4.788 -0.0192 -0.0948  0.1287
  705POPI   PO410848   2.703  17.609   5.224  0.0359 -0.0082 -0.1903
  705POPI   GL110849   2.887  17.690   5.628  0.0697  0.1537  0.2050
  705POPI   GL210850   2.616  18.040   5.647  0.1648  0.1068 -0.2646
  705POPI   C1A10851   3.048  17.909   5.922 -0.1539 -0.2456 -0.0415
  705POPI   D2A10852   2.983  18.048   6.323 -0.1680  0.3351 -0.0476
  705POPI   C3A10853   2.757  17.741   6.594 -0.2234 -0.3710 -0.0016
  705POPI   C4A10854   2.736  17.942   7.036 -0.1123 -0.0072 -0.3047
  705POPI   C1B10855   2.460  17.988   6.082  0.3503 -0.2008  0.1814
  705POPI   C2B10856   2.289  18.101   6.498 -0.0448 -0.1094 -0.0213
  705POPI   C3B10857   2.276  17.898   6.857  0.0861 -0.0069 -0.0692
  705POPI   C4B10858   2.290  18.115   7.097 -0.1771 -0.0278 -0.2055
  706POPI    C110859   2.008  10.486   5.016  0.0221  0.0686  0.0816
  706POPI    C210860   1.631  10.398   5.119  0.0118  0.1915  0.1509
  706POPI    C310861   1.856  10.126   4.931 -0.2371  0.2481 -0.2392
  706POPI   PO410862   2.110  10.539   5.259  0.0278  0.1845  0.3862
  706POPI   GL110863   2.101  10.442   5.742  0.2740 -0.1048  0.0254
  706POPI   GL210864   2.211  10.147   5.985  0.1263 -0.0263  0.0524
  706POPI   C1A10865   1.925  10.649   6.048  0.0527 -0.0215 -0.2610
  706POPI   D2A10866   2.017  10.753   6.455 -0.2142 -0.0392 -0.2243
  706POPI   C3A10867   2.287  10.980   6.823  0.2474 -0.0421 -0.1160
  706POPI   C4A10868   2.470  10.888   7.155 -0.1610 -0.0493 -0.1637
  706POPI   C1B10869   2.381  10.389   6.288  0.0070  0.1507  0.2224
  706POPI   C2B10870   2.456  10.529   6.742  0.0065  0.0030  0.3930
  706POPI   C3B10871   2.576  10.377   7.152  0.1226 -0.1455  0.2851
  706POPI   C4B10872   2.488  10.445   7.470  0.0694 -0.2195 -0.2056
  707POPI    C110873   4.871   0.036   5.412 -0.2158 -0.0734  0.0923
  707POPI    C210874   4.538  -0.174   5.346 -0.1477 -0.1577  0.0138
  707POPI    C310875   4.886  -0.300   5.196 -0.1711  0.2231 -0.3807
  707POPI   PO410876   4.724   0.366   5.450 -0.1191 -0.2767  0.1034
  707POPI   GL110877   4.566   0.515   5.836  0.0294 -0.1614  0.3565
  707POPI   GL210878   4.515   0.851   5.750  0.2262  0.0560  0.0970
  707POPI   C1A10879   4.930   0.758   6.016 -0.0722 -0.0828  0.4401
  707POPI   D2A10880   4.997   1.034   6.476  0.1255  0.1206 -0.2511
  707POPI   C3A10881   4.894   1.184   6.829 -0.3613  0.2743 -0.1324
  707POPI   C4A10882   4.678   1.543   6.947  0.2379  0.0682 -0.1241
  707POPI   C1B10883   4.324   0.890   6.250 -0.0613  0.0113 -0.1009
  707POPI   C2B10884   4.354   0.972   6.681  0.1852  0.2081 -0.2125
  707POPI   C3B10885   4.358   1.185   7.050 -0.0366  0.1857 -0.0584
  707POPI   C4B10886   4.405   1.327   7.461  0.2440  0.3906 -0.1386
  708POPI    C110887   0.186   2.562   5.097  0.1483 -0.1402 -0.0551
  708POPI    C210888   0.038   2.643   4.734 -0.0803  0.0286  0.0731
  708POPI    C310889   0.414   2.746   4.825 -0.0300  0.0072 -0.1068
  708POPI   PO410890   0.167   2.347   5.146 -0.3193  0.0116  0.2411
  708POPI   GL110891   0.283   2.315   5.614  0.0886 -0.1403  0.0892
  708POPI   GL210892   0.303   2.673   5.652  0.0756 -0.0597 -0.0188
  708POPI   C1A10893   0.369   2.117   5.935  0.1863 -0.0558  0.2198
  708POPI   D2A10894   0.484   2.314   6.260 -0.0328 -0.2794 -0.2700
  708POPI   C3A10895   0.914   2.235   6.470 -0.4371  0.3818 -0.0016
  708POPI   C4A10896   0.932   2.048   6.969  0.0374 -0.0036  0.0556
  708POPI   C1B10897   0.223   2.732   6.160  0.2182 -0.3732  0.1885
  708POPI   C2B10898   0.254   2.783   6.609 -0.5000  0.0023  0.2411
  708POPI   C3B10899   0.219   3.032   7.022  0.0671 -0.0930  0.3347
  708POPI   C4B10900   0.023   2.985   7.426  0.1784 -0.2298 -0.1773
  709POPI    C110901   5.032  14.262   5.020  0.0504  0.0231 -0.0245
  709POPI    C210902   5.003  13.970   4.749  0.1190 -0.0420  0.0380
  709POPI    C310903   4.864  14.335   4.664 -0.0907 -0.1268  0.0104
  709POPI   PO410904   5.016  14.153   5.346 -0.1056 -0.0991  0.1275
  709POPI   GL110905   4.903  13.930   5.676 -0.3539  0.2904 -0.0719
  709POPI   GL210906   5.233  13.930   5.805  0.0585 -0.1252 -0.2561
  709POPI   C1A10907   4.446  13.933   5.710 -0.0494  0.0639 -0.1747
  709POPI   D2A10908   4.027  14.031   5.843 -0.3009  0.1900  0.0246
  709POPI   C3A10909   3.865  14.054   6.254  0.1706 -0.0566  0.1719
  709POPI   C4A10910   3.878  14.079   6.672 -0.6239  0.1595  0.0528
  709POPI   C1B10911   5.122  14.384   5.998 -0.1157  0.2291 -0.2762
  709POPI   C2B10912   4.837  14.363   6.385  0.2905  0.3960  0.1621
  709POPI   C3B10913   4.655  14.418   6.777  0.0995  0.3028  0.1503
  709POPI   C4B10914   4.771  14.395   7.110 -0.2524 -0.1527 -0.3377
  710POPI    C110915  19.257  12.312   5.411 -0.1498  0.1191 -0.1476
  710POPI    C210916  19.511  12.619   5.376  0.0279 -0.0036  0.0401
  710POPI    C310917  19.181  12.606   5.150  0.1054  0.2380 -0.0915
  710POPI   PO410918  19.284  12.239   5.646  0.1084  0.0844  0.0180
  710POPI   GL110919  19.289  12.135   6.094 -0.0702  0.3650 -0.3228
  710POPI   GL210920  19.410  12.004   6.442 -0.0985 -0.0003  0.2117
  710POPI   C1A10921  18.868  12.208   6.211  0.1071 -0.0476 -0.0859
  710POPI   D2A10922  18.487  12.306   6.395 -0.0195  0.3461  0.0013
  710POPI   C3A10923  18.263  12.036   6.686  0.4072  0.0049 -0.3596
  710POPI   C4A10924  17.969  11.673   6.917 -0.0281  0.0637 -0.0970
  710POPI   C1B10925  19.129  12.349   6.644 -0.1392  0.0636  0.0863
  710POPI   C2B10926  19.082  12.318   6.998 -0.0043  0.1956 -0.1252
  710POPI   C3B10927  19.285  12.530   7.374 -0.0319  0.0431 -0.1350
  710POPI   C4B10928  19.475  12.608   7.673 -0.1122  0.1693 -0.0797
  711POPI    C110929  11.224   6.047   5.104 -0.0177  0.0061  0.0051
  711POPI    C210930  11.615   6.077   5.028 -0.0888  0.2188 -0.2982
  711POPI    C310931  11.378   5.874   4.777 -0.1281 -0.1799  0.0494
  711POPI   PO410932  11.256   6.207   5.329 -0.1202  0.0157 -0.2426
  711POPI   GL110933  11.451   6.050   5.768  0.2280  0.1751  0.6540
  711POPI   GL210934  11.417   6.395   5.861  0.3036 -0.0577 -0.2208
  711POPI   C1A10935  11.487   5.975   6.169 -0.0859  0.0767 -0.0846
  711POPI   D2A10936  11.644   6.043   6.634 -0.0588 -0.0859 -0.4393
  711POPI   C3A10937  12.031   6.121   6.611 -0.2077  0.4500 -0.1270
  711POPI   C4A10938  12.390   6.290   6.427 -0.0725 -0.2324 -0.0856
  711POPI   C1B10939  11.132   6.787   5.884  0.1349  0.0479 -0.2236
  711POPI   C2B10940  10.876   6.948   6.237  0.0428 -0.0997  0.1909
  711POPI   C3B10941  10.463   6.948   6.373  0.3272 -0.0389 -0.4442
  711POPI   C4B10942  10.041   6.914   6.533  0.1328 -0.1347 -0.0855
  712POPI    C110943   0.086   1.874   5.380 -0.0840  0.2267  0.1148
  712POPI    C210944  -0.273   1.785   5.228  0.0337 -0.1298  0.0364
  712POPI    C310945  -0.217   2.132   5.419 -0.3556 -0.0782  0.0640
  712POPI   PO410946   0.169   1.663   5.529 -0.1376  0.1664  0.2437
  712POPI   GL110947   0.209   1.514   5.954  0.2590  0.2622 -0.0220
  712POPI   GL210948  -0.131   1.463   6.084  0.0896  0.1477  0.0433
  712POPI   C1A10949   0.130   1.750   6.320  0.0921 -0.2724 -0.1098
  712POPI   D2A10950  -0.186   1.574   6.653 -0.0329 -0.1339  0.3006
  712POPI   C3A10951  -0.625   1.656   6.829 -0.4340  0.2669 -0.2943
  712POPI   C4A10952  -0.812   1.966   7.029  0.2139  0.1829 -0.0163
  712POPI   C1B10953  -0.448   1.676   6.256 -0.1293  0.0995 -0.3939
  712POPI   C2B10954  -0.492   2.084   6.473  0.1219 -0.0594 -0.1727
  712POPI   C3B10955  -0.725   2.403   6.737  0.3891 -0.3814  0.0319
  712POPI   C4B10956  -0.682   2.816   6.810  0.2529 -0.0234 -0.0936
  713POPI    C110957   0.727  12.117   5.709 -0.3227 -0.0876  0.2911
  713POPI    C210958   0.377  12.177   5.894 -0.3899  0.3258  0.0444
  713POPI    C310959   0.474  12.397   5.575 -0.1474 -0.1709 -0.2374
  713POPI   PO410960   0.761  11.862   5.712  0.0725 -0.3540 -0.0968
  713POPI   GL110961   0.515  11.525   5.832  0.0492  0.1564  0.2978
  713POPI   GL210962   0.709  11.301   6.010 -0.2283  0.0678 -0.3484
  713POPI   C1A10963   0.469  11.717   6.267 -0.0235 -0.1543 -0.2874
  713POPI   D2A10964   0.351  11.835   6.734 -0.2209 -0.1966 -0.0606
  713POPI   C3A10965   0.442  11.704   7.049  0.1123  0.0352  0.1262
  713POPI   C4A10966   0.841  11.571   7.288  0.2956  0.1113  0.4130
  713POPI   C1B10967   0.691  11.310   6.457  0.0905  0.0672  0.2089
  713POPI   C2B10968   0.706  11.421   6.777 -0.1728  0.0663 -0.0243
  713POPI   C3B10969   0.557  11.206   7.045 -0.1994  0.1486  0.0212
  713POPI   C4B10970   0.514  11.265   7.420 -0.3655 -0.0202 -0.2731
  714POPI    C110971  18.234   8.581   5.181  0.0960  0.0373 -0.3453
  714POPI    C210972  18.055   8.921   5.290  0.0696 -0.0715 -0.0385
  714POPI    C310973  17.951   8.741   4.948 -0.0446  0.1316 -0.1126
  714POPI   PO410974  18.232   8.430   5.337 -0.1079 -0.3752 -0.2685
  714POPI   GL110975  18.306   8.477   5.684 -0.1452  0.1685  0.0983
  714POPI   GL210976  18.548   8.444   5.753  0.0892  0.3807  0.1845
  714POPI   C1A10977  18.070   8.498   6.080  0.1118  0.1866  0.2744
  714POPI   D2A10978  17.729   8.501   6.380 -0.0647 -0.1084  0.0308
  714POPI   C3A10979  17.734   8.633   6.854 -0.1109 -0.1571 -0.4250
  714POPI   C4A10980  18.077   8.588   7.128  0.1924 -0.5138 -0.2373
  714POPI   C1B10981  18.450   8.816   5.976  0.1423  0.2820 -0.4727
  714POPI   C2B10982  18.569   9.023   6.286 -0.1243 -0.1095 -0.0106
  714POPI   C3B10983  18.361   9.256   6.560  0.2817 -0.2693 -0.5251
  714POPI   C4B10984  18.107   9.425   6.775  0.1317  0.1510  0.0894
  715POPI    C110985   3.707  10.569   4.918  0.1526 -0.1238  0.2409
  715POPI    C210986   3.943  10.604   4.596  0.0139  0.0773  0.1594
  715POPI    C310987   3.746  10.262   4.663 -0.0308  0.0664 -0.0217
  715POPI   PO410988   3.679  10.715   5.013 -0.2618  0.3183  0.0335
  715POPI   GL110989   3.495  10.887   5.511 -0.1205 -0.1403  0.2281
  715POPI   GL210990   3.189  10.820   5.652  0.0587  0.0874  0.1684
  715POPI   C1A10991   3.946  10.956   5.796 -0.1427  0.4162  0.0445
  715POPI   D2A10992   4.106  10.698   6.150  0.0839 -0.1492 -0.0606
  715POPI   C3A10993   3.885  10.654   6.496 -0.1191  0.3202  0.0016
  715POPI   C4A10994   4.061  10.588   6.870 -0.0301 -0.0351  0.0398
  715POPI   C1B10995   3.022  10.817   6.087  0.1644 -0.1747  0.1393
  715POPI   C2B10996   2.839  10.565   6.349 -0.0057 -0.1623 -0.3630
  715POPI   C3B10997   2.852  10.306   6.656  0.0485 -0.0938 -0.1070
  715POPI   C4B10998   2.793   9.992   6.965  0.2112 -0.1633 -0.2335
  716POPI    C110999   2.074   3.584   5.171 -0.1684 -0.3009 -0.1702
  716POPI    C211000   2.079   3.932   4.973  0.1307 -0.2596 -0.0940
  716POPI    C311001   2.050   3.587   4.772  0.2989 -0.2116 -0.2026
  716POPI   PO411002   1.930   3.686   5.365 -0.1831 -0.2225 -0.2087
  716POPI   GL111003   1.980   3.911   5.725  0.0923  0.0046  0.0319
  716POPI   GL211004   1.615   3.926   5.798  0.1557 -0.1026 -0.0366
  716POPI   C1A11005   1.933   3.638   6.064  0.0031 -0.2985  0.4819
  716POPI   D2A11006   1.724   3.301   6.240 -0.2337  0.0448 -0.1489
  716POPI   C3A11007   1.397   3.345   6.634 -0.1856  0.1719 -0.2040
  716POPI   C4A11008   1.104   3.250   6.762 -0.2060  0.1046 -0.1489
  716POPI   C1B11009   1.332   3.689   6.147  0.1236  0.0848  0.4050
  716POPI   C2B11010   1.605   3.763   6.487 -0.0395 -0.2812  0.1266
  716POPI   C3B11011   1.888   3.632   6.780  0.0463  0.1733 -0.1303
  716POPI   C4B11012   2.165   3.391   7.030  0.0448 -0.0533 -0.1283
  717POPI    C111013  12.871  13.371   5.230 -0.3032 -0.0554  0.0844
  717POPI    C211014  12.790  13.379   4.838 -0.0327  0.1241  0.0290
  717POPI    C311015  13.143  13.243   4.966 -0.2172 -0.1774  0.2310
  717POPI   PO411016  12.808  13.614   5.402  0.2010 -0.1682  0.3607
  717POPI   GL111017  13.098  13.866   5.731  0.0947 -0.2207  0.3880
  717POPI   GL211018  13.271  13.645   5.839  0.0673 -0.0238  0.0438
  717POPI   C1A11019  12.803  13.780   6.012 -0.0117  0.1148 -0.2622
  717POPI   D2A11020  12.425  13.937   6.322 -0.0748 -0.1548 -0.0829
  717POPI   C3A11021  12.384  13.714   6.796  0.1539 -0.2210  0.0694
  717POPI   C4A11022  12.201  13.340   7.017 -0.1839  0.1704 -0.2033
  717POPI   C1B11023  13.524  13.281   5.996 -0.3232 -0.0120  0.0877
  717POPI   C2B11024  13.735  13.550   6.243 -0.0204  0.0425  0.0547
  717POPI   C3B11025  13.856  13.989   6.604  0.3011  0.1747 -0.1055
  717POPI   C4B11026  13.579  14.144   7.024  0.0024 -0.1914 -0.3484
  718POPI    C111027   5.689  18.905   4.812  0.2837 -0.1004 -0.0197
  718POPI    C211028   5.412  18.621   4.756  0.3866 -0.2187  0.0644
  718POPI    C311029   5.315  18.962   4.941  0.2127 -0.1123 -0.2170
  718POPI   PO411030   5.857  18.746   5.010 -0.1042  0.1141  0.1542
  718POPI   GL111031   5.938  18.787   5.449 -0.0334 -0.3029  0.3535
  718POPI   GL211032   6.178  18.744   5.638 -0.3361 -0.0176  0.5218
  718POPI   C1A11033   5.741  18.685   5.845  0.2072 -0.0688  0.5404
  718POPI   D2A11034   5.342  18.787   6.122  0.0128  0.1350  0.1054
  718POPI   C3A11035   5.124  18.481   6.259 -0.1001  0.0808 -0.2361
  718POPI   C4A11036   4.986  18.423   6.670  0.1121  0.0811  0.0595
  718POPI   C1B11037   6.348  18.702   6.031 -0.3477  0.1314  0.2182
  718POPI   C2B11038   6.489  18.816   6.476 -0.0429 -0.2448  0.1171
  718POPI   C3B11039   6.443  18.803   6.997 -0.0292 -0.1000 -0.0928
  718POPI   C4B11040   6.595  18.660   7.477  0.0345 -0.2850 -0.1307
  719POPI    C111041  18.647  15.277   5.506 -0.0109 -0.0912 -0.2707
  719POPI    C211042  18.300  15.471   5.466  0.0725  0.0769 -0.1879
  719POPI    C311043  18.645  15.666   5.412  0.1566 -0.0599 -0.1486
  719POPI   PO411044  18.638  15.183   5.750  0.0674  0.1505  0.0696
  719POPI   GL111045  18.594  15.114   6.187 -0.3137 -0.1983 -0.1275
  719POPI   GL211046  18.854  15.343   6.191 -0.0790 -0.1017  0.1756
  719POPI   C1A11047  18.192  15.238   6.455 -0.0465 -0.0341  0.0783
  719POPI   D2A11048  18.050  15.542   6.837 -0.2272 -0.0476 -0.0438
  719POPI   C3A11049  17.697  15.349   7.042 -0.3324 -0.3256  0.1234
  719POPI   C4A11050  17.695  15.027   7.322 -0.0837  0.0275 -0.0613
  719POPI   C1B11051  18.962  15.548   6.421 -0.1058 -0.2127  0.1257
  719POPI   C2B11052  18.849  15.672   6.868 -0.1012 -0.0012 -0.3136
  719POPI   C3B11053  18.435  15.696   7.098 -0.2128 -0.1479 -0.0222
  719POPI   C4B11054  18.587  15.512   7.529  0.1445 -0.3571 -0.1776
  720POPI    C111055   3.926  11.896   4.921  0.0039 -0.1938  0.1388
  720POPI    C211056   3.831  11.961   4.538 -0.0530  0.0500  0.1926
  720POPI    C311057   4.210  11.885   4.640 -0.0068  0.1651  0.1095
  720POPI   PO411058   3.677  12.037   5.022  0.0609 -0.1511 -0.0216
  720POPI   GL111059   3.598  12.097   5.469  0.0929 -0.1074  0.1692
  720POPI   GL211060   3.916  12.029   5.589  0.2172  0.1334 -0.0602
  720POPI   C1A11061   3.441  12.260   5.900 -0.1230  0.2222  0.1381
  720POPI   D2A11062   3.458  12.633   6.126 -0.3854 -0.0142 -0.2325
  720POPI   C3A11063   3.726  12.949   6.049  0.1675  0.2148  0.0711
  720POPI   C4A11064   4.120  13.093   6.270  0.0819 -0.0538 -0.0023
  720POPI   C1B11065   4.198  11.762   5.759  0.0137 -0.2080  0.2357
  720POPI   C2B11066   4.512  11.735   5.999  0.0331 -0.0150  0.0920
  720POPI   C3B11067   4.721  11.776   6.423  0.0741  0.2262  0.1433
  720POPI   C4B11068   4.901  11.705   6.817  0.0050  0.0393  0.2480
  721POPS   CNO11069   0.985   2.749   5.461  0.1363  0.0636 -0.2033
  721POPS   PO411070   1.321   3.045   5.484 -0.1642 -0.0774 -0.0555
  721POPS   GL111071   1.035   3.100   5.882  0.0845 -0.0463 -0.2056
  721POPS   GL211072   0.820   3.361   5.657  0.3526  0.2307 -0.1009
  721POPS   C1A11073   0.922   3.312   6.215 -0.0278  0.1437 -0.2030
  721POPS   D2A11074   0.805   3.601   6.401 -0.1819 -0.1160  0.2243
  721POPS   C3A11075   1.081   3.724   6.567  0.0129  0.0065 -0.2020
  721POPS   C4A11076   1.038   3.957   6.926  0.1123 -0.2373 -0.1197
  721POPS   C1B11077   0.700   3.676   5.859  0.3033 -0.0446  0.1058
  721POPS   C2B11078   0.513   3.964   6.121 -0.0656  0.1134 -0.0740
  721POPS   C3B11079   0.597   4.152   6.557 -0.0438 -0.1182  0.1066
  721POPS   C4B11080   0.419   4.241   6.960  0.0251 -0.0312 -0.1861
  722POPS   CNO11081   5.984  11.447   5.086 -0.0437  0.0005 -0.0210
  722POPS   PO411082   5.779  11.087   5.373 -0.0304  0.1062  0.2870
  722POPS   GL111083   5.707  10.930   5.802  0.1826 -0.1578 -0.0797
  722POPS   GL211084   5.879  10.787   5.948  0.1148 -0.0841 -0.1505
  722POPS   C1A11085   5.494  11.129   6.129  0.1896 -0.2592 -0.1943
  722POPS   D2A11086   5.050  11.096   6.165  0.2048  0.0242 -0.3560
  722POPS   C3A11087   4.758  11.320   6.425  0.1492 -0.0633  0.1011
  722POPS   C4A11088   4.456  11.439   6.750 -0.0966  0.2310 -0.1558
  722POPS   C1B11089   5.709  10.705   6.344 -0.1689 -0.1172  0.4508
  722POPS   C2B11090   5.523  10.470   6.744 -0.1210  0.1588 -0.3283
  722POPS   C3B11091   5.271  10.546   7.067 -0.1679  0.4146 -0.0072
  722POPS   C4B11092   5.537  10.481   7.397  0.1291  0.2896 -0.3727
  723POPS   CNO11093   7.813   2.823   5.045  0.0593  0.1435 -0.2748
  723POPS   PO411094   8.216   2.981   4.917 -0.0235  0.1610 -0.0081
  723POPS   GL111095   8.047   3.110   5.382 -0.0763 -0.0846 -0.0380
  723POPS   GL211096   7.837   3.393   5.417 -0.2933  0.0763 -0.1191
  723POPS   C1A11097   8.235   3.384   5.843 -0.0452  0.3533  0.0675
  723POPS   D2A11098   8.306   3.439   6.228  0.1874  0.1927 -0.0277
  723POPS   C3A11099   8.552   3.199   6.441  0.0224 -0.2019  0.1832
  723POPS   C4A11100   8.804   2.962   6.774 -0.0063 -0.0465 -0.1645
  723POPS   C1B11101   7.747   3.356   5.921 -0.3340  0.1174  0.2369
  723POPS   C2B11102   7.848   3.224   6.458  0.2137  0.0699  0.1837
  723POPS   C3B11103   8.048   3.070   6.550  0.3200  0.0111  0.0413
  723POPS   C4B11104   8.110   2.688   6.660 -0.1001 -0.1255  0.1166
  724POPS   CNO11105  12.962   0.110   5.666 -0.1963 -0.2175 -0.1162
  724POPS   PO411106  12.868  -0.273   5.968  0.2125  0.3084 -0.0985
  724POPS   GL111107  13.148  -0.197   6.306  0.0537 -0.3492  0.1028
  724POPS   GL211108  13.302   0.117   6.209 -0.0441  0.0565 -0.0679
  724POPS   C1A11109  13.034  -0.133   6.671  0.3041 -0.1913 -0.1789
  724POPS   D2A11110  13.246  -0.025   6.995  0.1066  0.0628 -0.0217
  724POPS   C3A11111  13.491  -0.416   7.275  0.3266 -0.1889  0.0847
  724POPS   C4A11112  13.520  -0.709   7.595 -0.2465  0.2284 -0.2367
  724POPS   C1B11113  13.561  -0.004   6.593 -0.2146  0.2380  0.2529
  724POPS   C2B11114  13.795   0.226   7.070 -0.1150  0.2267  0.0476
  724POPS   C3B11115  14.024   0.453   7.391 -0.5112  0.1164  0.0213
  724POPS   C4B11116  14.475   0.496   7.519  0.0149  0.0747 -0.2628
  725POPS   CNO11117   2.552   4.683   4.540  0.0573 -0.4335  0.2216
  725POPS   PO411118   2.652   4.653   4.983 -0.1219  0.1518  0.3663
  725POPS   GL111119   2.560   4.692   5.439 -0.1424 -0.1029 -0.0986
  725POPS   GL211120   2.694   4.694   5.737 -0.0054  0.2832  0.0354
  725POPS   C1A11121   2.422   5.053   5.747  0.0147 -0.2586 -0.1648
  725POPS   D2A11122   2.255   5.385   5.878  0.4021 -0.0593 -0.0086
  725POPS   C3A11123   2.634   5.476   5.979  0.1006 -0.1346 -0.3059
  725POPS   C4A11124   2.761   5.459   6.479 -0.0831 -0.1118 -0.1756
  725POPS   C1B11125   2.475   4.566   6.094 -0.3254 -0.2001  0.0515
  725POPS   C2B11126   2.401   4.371   6.549 -0.4288  0.3753 -0.6011
  725POPS   C3B11127   2.390   4.470   7.028 -0.3391 -0.1191 -0.1272
  725POPS   C4B11128   2.260   4.630   7.412  0.1206 -0.0084 -0.2255
  726POPS   CNO11129   5.619   5.159   4.975 -0.0863 -0.0341 -0.1758
  726POPS   PO411130   5.295   5.181   5.198  0.2401 -0.0149 -0.1804
  726POPS   GL111131   5.488   5.385   5.473  0.0373  0.1856  0.0201
  726POPS   GL211132   5.720   5.284   5.598 -0.4126  0.1088  0.2454
  726POPS   C1A11133   5.414   5.761   5.634  0.6608  0.0281  0.2127
  726POPS   D2A11134   5.063   5.854   5.907 -0.0786 -0.1944 -0.0193
  726POPS   C3A11135   5.108   6.192   6.227  0.3078  0.1727 -0.2006
  726POPS   C4A11136   5.385   6.393   6.435  0.0440 -0.1362  0.1545
  726POPS   C1B11137   6.085   5.244   5.695 -0.3717 -0.0799  0.2073
  726POPS   C2B11138   6.515   5.408   5.822 -0.0449  0.3978 -0.1918
  726POPS   C3B11139   6.576   5.910   5.785  0.0966 -0.2387  0.0951
  726POPS   C4B11140   6.539   6.263   5.485  0.0870 -0.3030 -0.1216
  727POPS   CNO11141  14.803   7.120   5.008  0.0638  0.2133 -0.3943
  727POPS   PO411142  15.175   7.278   4.958 -0.0251  0.0405  0.2430
  727POPS   GL111143  15.032   7.295   5.488 -0.0005 -0.1231 -0.0067
  727POPS   GL211144  14.921   7.496   5.668 -0.1692 -0.1379  0.5131
  727POPS   C1A11145  15.324   7.212   5.940 -0.2372 -0.2049  0.1422
  727POPS   D2A11146  15.290   7.348   6.279  0.0523  0.0851  0.0894
  727POPS   C3A11147  15.078   7.397   6.695 -0.1517  0.0012 -0.0942
  727POPS   C4A11148  14.847   7.627   7.085  0.1866 -0.0288  0.0090
  727POPS   C1B11149  15.148   7.662   5.943  0.0302  0.0926  0.0084
  727POPS   C2B11150  15.169   7.898   6.332 -0.2488 -0.0700  0.0508
  727POPS   C3B11151  15.417   7.928   6.728 -0.2009 -0.0947  0.1333
  727POPS   C4B11152  15.720   7.918   7.090 -0.0802  0.3198  0.0332
  728POPS   CNO11153  13.502   6.664   4.955 -0.1789  0.0603  0.1529
  728POPS   PO411154  13.751   6.383   5.309 -0.0906  0.0413  0.1678
  728POPS   GL111155  13.894   6.269   5.672 -0.0257  0.2261 -0.1182
  728POPS   GL211156  13.587   6.216   5.767  0.0265  0.1770 -0.0010
  728POPS   C1A11157  14.023   5.952   5.978 -0.2797  0.1356 -0.0554
  728POPS   D2A11158  14.378   5.814   6.301 -0.0877  0.2030  0.0418
  728POPS   C3A11159  14.210   5.754   6.786  0.1132 -0.2587 -0.2866
  728POPS   C4A11160  14.310   5.698   7.232 -0.1103  0.0460  0.1272
  728POPS   C1B11161  13.529   5.864   6.095 -0.0715  0.3101  0.0183
  728POPS   C2B11162  13.648   5.620   6.513 -0.0032  0.5187 -0.0997
  728POPS   C3B11163  13.747   5.619   6.864  0.1254  0.0995  0.1172
  728POPS   C4B11164  13.835   5.907   7.120  0.3596  0.1758 -0.0640
  729POPS   CNO11165   6.083  14.833   5.159  0.0974  0.2734 -0.0380
  729POPS   PO411166   6.575  14.752   5.361  0.1318  0.0473  0.1924
  729POPS   GL111167   6.591  14.711   5.794  0.0962 -0.1265  0.3170
  729POPS   GL211168   6.432  14.373   5.845 -0.0298 -0.1696 -0.0455
  729POPS   C1A11169   6.547  14.566   6.234 -0.1019 -0.5776 -0.2708
  729POPS   D2A11170   6.364  14.438   6.550  0.0081 -0.0773 -0.3442
  729POPS   C3A11171   6.303  14.804   6.713 -0.1183  0.4850 -0.1158
  729POPS   C4A11172   6.455  15.168   6.856  0.3239  0.0292  0.0010
  729POPS   C1B11173   6.081  14.340   6.106  0.2446 -0.0293 -0.2814
  729POPS   C2B11174   5.954  14.648   6.371  0.0416 -0.1133 -0.1009
  729POPS   C3B11175   5.863  14.608   6.769  0.0980  0.1097  0.1093
  729POPS   C4B11176   5.934  14.669   7.143  0.1500 -0.1273 -0.1201
  730POPS   CNO11177   2.057   8.057   4.843 -0.5255 -0.0687 -0.2165
  730POPS   PO411178   2.100   8.052   5.257 -0.0025 -0.1226  0.0625
  730POPS   GL111179   2.246   7.793   5.625  0.2691  0.0540 -0.3864
  730POPS   GL211180   2.151   7.673   5.809 -0.1325  0.1018 -0.0276
  730POPS   C1A11181   2.617   7.779   6.007 -0.1566 -0.2524 -0.0840
  730POPS   D2A11182   3.019   7.891   6.030  0.0517  0.0739 -0.0054
  730POPS   C3A11183   3.122   7.742   6.443  0.0020 -0.0273  0.0843
  730POPS   C4A11184   3.094   7.922   6.816 -0.2273 -0.1428 -0.0401
  730POPS   C1B11185   2.171   7.601   6.279 -0.0413 -0.1951 -0.6081
  730POPS   C2B11186   2.246   7.596   6.717 -0.2201  0.0308  0.2679
  730POPS   C3B11187   2.157   7.514   7.297  0.3243 -0.0978 -0.1019
  730POPS   C4B11188   1.983   7.614   7.744  0.1462  0.0657  0.0743
  731POPS   CNO11189  10.364  17.455   5.159  0.3221 -0.1495  0.3798
  731POPS   PO411190  10.089  17.602   5.467 -0.2125  0.0493  0.0558
  731POPS   GL111191  10.071  17.920   5.694 -0.1359  0.0949  0.0662
  731POPS   GL211192   9.921  18.243   5.591  0.1277  0.0501  0.2406
  731POPS   C1A11193  10.170  18.205   6.064  0.2732 -0.0647  0.2807
  731POPS   D2A11194  10.207  18.362   6.393 -0.3498 -0.0844 -0.1328
  731POPS   C3A11195  10.486  18.331   6.706 -0.0303  0.0232  0.0515
  731POPS   C4A11196  10.597  18.164   7.103  0.0312  0.0881  0.1790
  731POPS   C1B11197  10.153  18.553   5.712  0.2866 -0.1438  0.0260
  731POPS   C2B11198  10.229  18.796   6.060 -0.0673  0.0273  0.3465
  731POPS   C3B11199  10.156  19.150   6.282 -0.0060 -0.1999  0.2641
  731POPS   C4B11200   9.861  19.110   6.656 -0.0762 -0.2814  0.2639
  732POPS   CNO11201  13.637   4.999   5.098 -0.2179 -0.1601 -0.1644
  732POPS   PO411202  13.912   5.376   5.218  0.0808 -0.1423 -0.0184
  732POPS   GL111203  14.165   5.196   5.475 -0.3895  0.0442  0.2515
  732POPS   GL211204  14.199   4.949   5.703 -0.1072  0.0509 -0.2011
  732POPS   C1A11205  14.519   5.358   5.746 -0.3782  0.2273 -0.2520
  732POPS   D2A11206  14.721   5.334   6.115 -0.5462  0.2127 -0.2424
  732POPS   C3A11207  14.943   4.877   6.268  0.3302  0.1344 -0.0849
  732POPS   C4A11208  15.002   4.632   6.616 -0.0872  0.0687 -0.1487
  732POPS   C1B11209  14.363   4.818   6.007  0.1062  0.0206 -0.0737
  732POPS   C2B11210  14.500   4.680   6.394  0.1546  0.3199  0.3239
  732POPS   C3B11211  14.548   4.446   6.825 -0.1091 -0.0124  0.1470
  732POPS   C4B11212  14.650   4.131   7.083  0.1460  0.5343  0.1219
  733POPS   CNO11213  17.135   1.800   5.090 -0.3277  0.2636 -0.0628
  733POPS   PO411214  16.825   1.713   4.948  0.2075  0.1266 -0.1449
  733POPS   GL111215  16.666   1.781   5.572 -0.1522 -0.1369 -0.1770
  733POPS   GL211216  16.468   2.009   5.678  0.0899  0.2433  0.0193
  733POPS   C1A11217  16.654   1.517   5.929  0.2181 -0.1073  0.0029
  733POPS   D2A11218  16.542   1.516   6.303 -0.2101 -0.0240  0.0196
  733POPS   C3A11219  16.646   1.497   6.727  0.1088 -0.2324 -0.2554
  733POPS   C4A11220  16.837   1.527   7.199  0.0443 -0.0524  0.1603
  733POPS   C1B11221  16.599   2.046   6.095  0.0902 -0.2339  0.1236
  733POPS   C2B11222  16.404   2.009   6.465 -0.2574  0.0790 -0.5267
  733POPS   C3B11223  16.044   2.243   6.638  0.0015  0.2045 -0.0452
  733POPS   C4B11224  16.037   2.667   6.766  0.3834 -0.1619  0.1020
  734POPS   CNO11225  18.142  13.477   4.988 -0.0035 -0.0892  0.1328
  734POPS   PO411226  18.258  13.106   5.254 -0.2152 -0.0787  0.0185
  734POPS   GL111227  18.067  12.840   5.693  0.0288  0.1710 -0.4688
  734POPS   GL211228  17.959  13.032   5.992 -0.2269 -0.0265  0.1787
  734POPS   C1A11229  17.894  12.578   6.138 -0.1378 -0.3377  0.3692
  734POPS   D2A11230  17.799  12.300   6.433 -0.1722  0.3555  0.2920
  734POPS   C3A11231  17.377  12.222   6.353 -0.1202 -0.2102 -0.1220
  734POPS   C4A11232  17.425  11.844   6.096 -0.1209 -0.1606  0.2130
  734POPS   C1B11233  17.737  13.051   6.376 -0.0844  0.0437 -0.0837
  734POPS   C2B11234  17.636  12.716   6.686 -0.1427  0.0208  0.2248
  734POPS   C3B11235  17.434  12.531   7.114 -0.1675 -0.3466  0.0413
  734POPS   C4B11236  17.185  12.259   7.263  0.1568  0.0605 -0.2257
  735POPS   CNO11237   7.649  17.746   5.409 -0.2225  0.1128  0.3130
  735POPS   PO411238   7.798  18.079   5.233  0.0271  0.0061  0.1191
  735POPS   GL111239   7.869  18.478   5.374 -0.2242  0.1423  0.0616
  735POPS   GL211240   7.537  18.489   5.561  0.1598  0.2163  0.0045
  735POPS   C1A11241   7.960  18.616   5.823 -0.1770  0.2141 -0.1026
  735POPS   D2A11242   7.972  18.718   6.134 -0.1995  0.1036  0.1273
  735POPS   C3A11243   8.162  18.631   6.532 -0.2569  0.3311 -0.2432
  735POPS   C4A11244   8.479  18.742   6.938  0.2028  0.1517  0.0481
  735POPS   C1B11245   7.518  18.440   6.048 -0.0015 -0.2548  0.2783
  735POPS   C2B11246   7.639  18.585   6.458 -0.0945  0.1656  0.3208
  735POPS   C3B11247   7.695  19.066   6.595  0.1328  0.0818  0.1472
  735POPS   C4B11248   7.722  19.436   6.514  0.1416 -0.1933  0.2034
  736POPS   CNO11249   9.242  17.279   5.045 -0.1756  0.0437 -0.1538
  736POPS   PO411250   8.736  17.414   5.224 -0.2953  0.3488 -0.0728
  736POPS   GL111251   8.748  17.118   5.746  0.0191  0.0016 -0.0947
  736POPS   GL211252   8.710  16.764   5.739 -0.2558  0.3091 -0.0905
  736POPS   C1A11253   8.920  16.993   6.220  0.3761  0.0044 -0.1705
  736POPS   D2A11254   9.083  16.825   6.656 -0.2342 -0.2990 -0.1010
  736POPS   C3A11255   9.457  16.597   6.644 -0.0534  0.1739 -0.0965
  736POPS   C4A11256   9.690  16.219   6.818  0.1106 -0.0168  0.0177
  736POPS   C1B11257   8.437  16.874   6.056 -0.1071 -0.0197  0.3208
  736POPS   C2B11258   8.068  17.020   6.444 -0.4406  0.2569 -0.0620
  736POPS   C3B11259   8.042  17.046   6.932 -0.2043 -0.1555 -0.2514
  736POPS   C4B11260   7.947  16.797   7.312 -0.1761  0.1101 -0.2622
  737POPS   CNO11261   9.520   2.896   5.067 -0.4129  0.0618 -0.2513
  737POPS   PO411262   9.517   2.500   5.262 -0.1290 -0.0658 -0.0920
  737POPS   GL111263   9.637   2.371   5.631 -0.1594 -0.0037  0.1924
  737POPS   GL211264   9.652   2.569   5.910 -0.2463 -0.0279  0.0428
  737POPS   C1A11265   9.884   2.135   5.922 -0.1386  0.1847  0.1720
  737POPS   D2A11266  10.144   2.102   6.327  0.0079 -0.0372 -0.0552
  737POPS   C3A11267  10.081   2.134   6.801 -0.1403  0.2608 -0.0537
  737POPS   C4A11268  10.055   2.188   7.319  0.1532 -0.0603  0.0016
  737POPS   C1B11269   9.676   2.374   6.255 -0.3959 -0.2850  0.1060
  737POPS   C2B11270   9.546   2.024   6.490 -0.0127  0.0540  0.0261
  737POPS   C3B11271   9.316   1.946   6.847  0.0003 -0.0825  0.0557
  737POPS   C4B11272   9.132   1.673   7.042 -0.1101  0.2121 -0.1479
  738POPS   CNO11273  18.378   4.883   4.816 -0.0847 -0.0240 -0.0558
  738POPS   PO411274  18.689   5.234   4.824 -0.0899  0.1855  0.0866
  738POPS   GL111275  18.590   5.272   5.325  0.0877 -0.1360 -0.0750
  738POPS   GL211276  18.858   5.079   5.419  0.1212 -0.2244 -0.1578
  738POPS   C1A11277  18.477   5.194   5.741  0.2192 -0.1466 -0.1853
  738POPS   D2A11278  18.264   5.438   6.019 -0.1808  0.1337  0.1290
  738POPS   C3A11279  18.323   5.949   6.209 -0.0719 -0.2227 -0.3451
  738POPS   C4A11280  18.233   6.399   6.236 -0.3589 -0.0060 -0.1683
  738POPS   C1B11281  18.989   5.092   5.827  0.2115 -0.1297  0.1389
  738POPS   C2B11282  18.964   5.197   6.222 -0.3745  0.0616 -0.3232
  738POPS   C3B11283  19.092   5.011   6.558 -0.0497  0.2238  0.1240
  738POPS   C4B11284  19.011   5.003   7.022  0.0984  0.1906  0.1213
  739POPS   CNO11285  18.247  11.233   5.202 -0.3887  0.1263 -0.0806
  739POPS   PO411286  18.137  10.801   5.362  0.2313 -0.1352 -0.1867
  739POPS   GL111287  18.148  10.808   5.853 -0.1422  0.1303 -0.2745
  739POPS   GL211288  18.051  10.546   5.829 -0.3430  0.2281  0.1159
  739POPS   C1A11289  17.913  10.946   6.214  0.2534  0.1955  0.2497
  739POPS   D2A11290  17.698  10.701   6.557 -0.1185  0.0268 -0.2960
  739POPS   C3A11291  17.783  10.801   7.013 -0.0840  0.2756 -0.1831
  739POPS   C4A11292  17.889  10.889   7.314 -0.1017 -0.1822  0.2461
  739POPS   C1B11293  18.132  10.461   6.293  0.0284  0.2061  0.1073
  739POPS   C2B11294  18.162  10.744   6.634 -0.2079  0.0315 -0.0476
  739POPS   C3B11295  18.342  10.732   7.111  0.0993  0.2481  0.0346
  739POPS   C4B11296  18.389  10.978   7.492 -0.1891 -0.0676  0.0351
  740POPS   CNO11297  11.783  15.062   4.683  0.1814 -0.2955 -0.3212
  740POPS   PO411298  12.016  14.938   5.097 -0.1124 -0.2264  0.0351
  740POPS   GL111299  12.110  14.634   5.588 -0.0756 -0.0784  0.0892
  740POPS   GL211300  12.282  14.422   5.870  0.1376  0.1733 -0.1831
  740POPS   C1A11301  11.959  14.719   6.000 -0.2561 -0.1088  0.0318
  740POPS   D2A11302  11.974  14.740   6.487  0.0872  0.0601  0.1930
  740POPS   C3A11303  12.401  14.892   6.749  0.1937 -0.1295  0.0905
  740POPS   C4A11304  12.589  15.145   7.184 -0.2934 -0.2437 -0.1234
  740POPS   C1B11305  12.457  14.423   6.342  0.1121 -0.2631 -0.3558
  740POPS   C2B11306  12.568  14.309   6.755  0.4049 -0.2660  0.1239
  740POPS   C3B11307  12.290  14.121   7.121  0.0701  0.2043 -0.0112
  740POPS   C4B11308  12.333  13.894   7.441 -0.2226 -0.0014 -0.1971
  741POPS   CNO11309   9.800   6.096   4.392 -0.2403 -0.2811 -0.1173
  741POPS   PO411310   9.542   5.871   4.738  0.0549  0.2343  0.2457
  741POPS   GL111311   9.104   5.936   4.985  0.2554  0.2394  0.1310
  741POPS   GL211312   8.979   6.310   4.963 -0.2020 -0.1378 -0.0068
  741POPS   C1A11313   8.914   6.003   5.355  0.1099 -0.2507 -0.0098
  741POPS   D2A11314   8.488   5.840   5.669 -0.4153  0.0123 -0.0556
  741POPS   C3A11315   8.349   6.133   5.970  0.1243  0.0676  0.0823
  741POPS   C4A11316   8.239   6.369   6.335 -0.0468 -0.3645 -0.0054
  741POPS   C1B11317   9.047   6.496   5.297 -0.2643 -0.2840  0.2101
  741POPS   C2B11318   9.128   6.724   5.693 -0.0294  0.0086 -0.1387
  741POPS   C3B11319   9.257   6.320   5.910 -0.0120  0.0437  0.4178
  741POPS   C4B11320   9.762   6.374   5.807 -0.1230  0.3191 -0.0951
  742POPS   CNO11321  15.595   2.723   5.025 -0.1963 -0.2211 -0.3311
  742POPS   PO411322  15.778   3.153   5.160  0.1133  0.1441  0.3270
  742POPS   GL111323  15.698   3.010   5.549  0.0017  0.1230 -0.2728
  742POPS   GL211324  15.533   2.655   5.525  0.1938  0.0954 -0.0398
  742POPS   C1A11325  15.782   3.286   5.908  0.0790  0.2292  0.1683
  742POPS   D2A11326  15.771   3.178   6.413  0.0692  0.1937  0.0666
  742POPS   C3A11327  15.434   3.065   6.501  0.1143 -0.0281  0.0946
  742POPS   C4A11328  15.174   2.796   6.779  0.4917  0.0712 -0.3163
  742POPS   C1B11329  15.386   2.921   5.904  0.1309  0.1841  0.0651
  742POPS   C2B11330  15.292   3.342   6.124  0.1914  0.2315  0.2662
  742POPS   C3B11331  15.315   3.804   5.972 -0.2005  0.0689 -0.1373
  742POPS   C4B11332  15.099   4.102   5.946 -0.1891 -0.0662  0.2018
  743POPS   CNO11333  17.291  14.534   5.885 -0.4091 -0.0016 -0.2912
  743POPS   PO411334  16.855  14.465   5.652 -0.0601 -0.0144  0.2432
  743POPS   GL111335  16.863  14.761   5.938 -0.0652 -0.0192  0.3051
  743POPS   GL211336  16.937  14.965   5.866  0.0323 -0.0466  0.1605
  743POPS   C1A11337  17.047  14.701   6.289  0.0073  0.0516 -0.1239
  743POPS   D2A11338  16.882  14.660   6.712  0.2344  0.3634  0.0070
  743POPS   C3A11339  16.905  14.883   7.007  0.4638 -0.0289 -0.0075
  743POPS   C4A11340  16.837  15.039   7.353  0.0310 -0.2295 -0.0659
  743POPS   C1B11341  16.727  15.094   6.276  0.0469 -0.4460 -0.2730
  743POPS   C2B11342  16.527  15.034   6.618 -0.0084  0.2584  0.2193
  743POPS   C3B11343  16.438  14.763   6.880  0.1122  0.0762 -0.2403
  743POPS   C4B11344  16.715  14.487   7.211 -0.0169  0.1818  0.1367
  744POPS   CNO11345   3.801  13.663   4.531 -0.2916  0.3315  0.0362
  744POPS   PO411346   3.795  13.298   4.767 -0.1987 -0.2320  0.0111
  744POPS   GL111347   3.861  13.286   5.170  0.2288 -0.0610 -0.7446
  744POPS   GL211348   3.640  13.354   5.405  0.0276 -0.1893 -0.0338
  744POPS   C1A11349   4.041  12.926   5.533 -0.3242 -0.1428  0.2215
  744POPS   D2A11350   4.217  12.805   5.888  0.3349 -0.4214  0.1349
  744POPS   C3A11351   4.006  12.587   6.284 -0.0577  0.3227 -0.2106
  744POPS   C4A11352   3.735  12.755   6.516  0.1905  0.4043  0.0579
  744POPS   C1B11353   3.383  13.189   5.686  0.2541 -0.0377 -0.2152
  744POPS   C2B11354   3.148  13.066   6.052 -0.0185  0.2059  0.1987
  744POPS   C3B11355   2.956  12.723   6.224  0.0291  0.2482 -0.0542
  744POPS   C4B11356   3.008  12.176   6.131  0.2809 -0.1454  0.0952
  745POPS   CNO11357  16.635   0.287   5.379  0.3077 -0.0935 -0.1537
  745POPS   PO411358  16.695  -0.086   5.075 -0.0987 -0.0867 -0.2872
  745POPS   GL111359  16.672  -0.271   5.451  0.0374 -0.0631 -0.2308
  745POPS   GL211360  16.885  -0.183   5.638  0.0588 -0.0127 -0.2563
  745POPS   C1A11361  16.703  -0.587   5.769  0.1217 -0.0387  0.0573
  745POPS   D2A11362  16.713  -0.585   6.188  0.3978  0.1436  0.0825
  745POPS   C3A11363  16.845  -0.496   6.717 -0.1047  0.0590 -0.1818
  745POPS   C4A11364  17.005  -0.252   7.138 -0.1691 -0.0444  0.2380
  745POPS   C1B11365  16.657  -0.069   5.950  0.0718  0.0197  0.0734
  745POPS   C2B11366  16.375  -0.209   6.225  0.3617  0.1549 -0.4450
  745POPS   C3B11367  16.345  -0.382   6.614 -0.1561 -0.1820  0.0980
  745POPS   C4B11368  16.417  -0.375   7.048 -0.1460  0.0564  0.0565
  746POPS   CNO11369  11.081  17.524   4.849  0.0468  0.1040 -0.1903
  746POPS   PO411370  10.923  17.520   5.258 -0.0287 -0.1586  0.1866
  746POPS   GL111371  10.614  17.626   5.627 -0.1197 -0.0644 -0.0916
  746POPS   GL211372  10.653  17.278   5.682 -0.1327  0.0559  0.0530
  746POPS   C1A11373  10.375  17.758   6.111  0.0977 -0.1639 -0.2355
  746POPS   D2A11374  10.400  17.893   6.576  0.0485  0.4655  0.1224
  746POPS   C3A11375  10.143  17.894   6.970 -0.0033  0.0611  0.0646
  746POPS   C4A11376   9.849  17.843   7.310  0.0571 -0.1389  0.0495
  746POPS   C1B11377  10.320  17.312   6.113  0.1489  0.3220 -0.0905
  746POPS   C2B11378  10.250  17.334   6.544  0.0296 -0.0619  0.0889
  746POPS   C3B11379  10.259  17.427   6.904 -0.4124 -0.1691 -0.1281
  746POPS   C4B11380  10.400  17.595   7.257  0.0068 -0.2157 -0.4349
  747POPS   CNO11381  18.033  17.292   5.177  0.1378  0.0708 -0.1144
  747POPS   PO411382  18.165  17.006   5.475  0.1652 -0.2305  0.2754
  747POPS   GL111383  18.283  16.833   5.902 -0.0016 -0.1127 -0.2853
  747POPS   GL211384  18.573  16.705   5.953 -0.0394  0.1240  0.3133
  747POPS   C1A11385  18.136  16.682   6.313 -0.2046 -0.0155  0.2089
  747POPS   D2A11386  17.935  16.584   6.719 -0.0975  0.2581  0.3384
  747POPS   C3A11387  18.184  16.776   7.070  0.0073  0.3056  0.0034
  747POPS   C4A11388  18.592  16.964   7.248  0.2525 -0.3550  0.3040
  747POPS   C1B11389  18.668  16.946   6.286 -0.0837 -0.1374  0.1165
  747POPS   C2B11390  18.467  17.106   6.677 -0.3713 -0.0104  0.1479
  747POPS   C3B11391  18.555  17.506   7.012 -0.1411  0.1997 -0.3369
  747POPS   C4B11392  18.423  17.870   7.014  0.3862 -0.0009  0.3108
  748POPS   CNO11393   5.019  15.070   5.220 -0.2201  0.2875 -0.0836
  748POPS   PO411394   4.770  14.638   5.209  0.1426  0.2359 -0.0659
  748POPS   GL111395   4.765  14.540   5.637 -0.0756 -0.0727 -0.0304
  748POPS   GL211396   4.452  14.418   5.751 -0.1274 -0.0315  0.0008
  748POPS   C1A11397   4.777  14.782   6.060  0.3352 -0.0138  0.0080
  748POPS   D2A11398   4.996  14.866   6.448 -0.1025 -0.1143  0.0944
  748POPS   C3A11399   5.034  14.711   6.831 -0.2876 -0.1167  0.2328
  748POPS   C4A11400   5.379  14.633   6.981  0.1540  0.0489 -0.0928
  748POPS   C1B11401   4.391  14.321   6.131 -0.0721  0.2149 -0.0490
  748POPS   C2B11402   4.195  14.448   6.546 -0.1767  0.0233 -0.2279
  748POPS   C3B11403   4.128  14.484   6.900  0.1163 -0.0349  0.2128
  748POPS   C4B11404   4.279  14.282   7.198 -0.2294  0.2491  0.0414
  749POPS   CNO11405   8.814  11.941   5.086  0.1238 -0.0436 -0.1845
  749POPS   PO411406   8.555  11.962   5.461  0.4903 -0.0059  0.1131
  749POPS   GL111407   8.658  11.956   5.943  0.4074  0.0164 -0.1094
  749POPS   GL211408   8.697  12.281   6.194  0.1628 -0.1354  0.0232
  749POPS   C1A11409   8.364  11.962   6.355  0.0966  0.1045 -0.2014
  749POPS   D2A11410   8.387  12.094   6.754 -0.1507 -0.3628  0.1640
  749POPS   C3A11411   8.865  12.144   6.866  0.0672 -0.1082 -0.0842
  749POPS   C4A11412   9.063  12.173   7.252 -0.0362  0.3759  0.0808
  749POPS   C1B11413   9.058  12.128   6.411  0.5392 -0.0962 -0.2060
  749POPS   C2B11414   9.319  11.918   6.689  0.0363  0.1967 -0.0236
  749POPS   C3B11415   9.190  11.552   6.823  0.0157 -0.3936  0.0034
  749POPS   C4B11416   9.248  11.032   6.639 -0.2215  0.1102  0.1600
  750POPS   CNO11417  18.359  14.062   5.751  0.2824  0.1043  0.2637
  750POPS   PO411418  18.694  14.280   5.521  0.0281  0.1066  0.3607
  750POPS   GL111419  18.683  14.472   5.836  0.3181 -0.2260  0.0351
  750POPS   GL211420  18.911  14.803   5.829 -0.0146  0.1001  0.1601
  750POPS   C1A11421  18.621  14.637   6.260 -0.0458 -0.0215 -0.0221
  750POPS   D2A11422  18.544  14.847   6.652  0.0878 -0.0075 -0.6521
  750POPS   C3A11423  18.626  15.257   6.676 -0.0202  0.2563 -0.1373
  750POPS   C4A11424  18.483  15.678   6.497  0.2641  0.0469 -0.0910
  750POPS   C1B11425  19.057  14.916   6.283 -0.0281 -0.0216 -0.1114
  750POPS   C2B11426  19.065  14.833   6.781  0.0297 -0.3731 -0.1221
  750POPS   C3B11427  18.773  14.923   7.034  0.0983  0.2332 -0.1795
  750POPS   C4B11428  18.448  15.075   7.203  0.1714 -0.1070 -0.1004
  751POPS   CNO11429   0.936   7.773   4.949  0.2495 -0.1267 -0.1040
  751POPS   PO411430   0.794   7.671   5.243  0.0130 -0.1812 -0.0843
  751POPS   GL111431   0.642   7.901   5.645  0.3104  0.3114 -0.0010
  751POPS   GL211432   0.341   8.007   5.564 -0.2113 -0.1742 -0.1054
  751POPS   C1A11433   0.678   7.872   6.017  0.0214  0.3222  0.0582
  751POPS   D2A11434   0.739   8.157   6.418 -0.0837  0.1236 -0.1689
  751POPS   C3A11435   0.664   8.041   6.864 -0.2744 -0.1465  0.1619
  751POPS   C4A11436   0.797   7.775   7.235 -0.1582  0.0114  0.1597
  751POPS   C1B11437   0.094   7.781   5.817  0.0549  0.2183 -0.2782
  751POPS   C2B11438  -0.023   7.344   5.883 -0.2383 -0.0331 -0.2089
  751POPS   C3B11439  -0.151   7.073   6.088  0.0131 -0.2372  0.2317
  751POPS   C4B11440  -0.440   7.069   6.268 -0.0586  0.0581 -0.0915
  752POPS   CNO11441   7.410  14.895   5.130 -0.0262  0.2041  0.1422
  752POPS   PO411442   7.565  14.973   5.590  0.1871 -0.0401  0.0037
  752POPS   GL111443   7.450  15.291   5.812  0.1227  0.3768 -0.5383
  752POPS   GL211444   7.066  15.295   5.784  0.2180  0.1587 -0.0540
  752POPS   C1A11445   7.288  15.586   6.116  0.0665 -0.1120 -0.0945
  752POPS   D2A11446   7.205  15.708   6.469  0.0215 -0.1387 -0.5363
  752POPS   C3A11447   7.454  15.923   6.791 -0.1143  0.0314 -0.0939
  752POPS   C4A11448   7.777  16.146   7.073 -0.2055  0.1314  0.0199
  752POPS   C1B11449   6.772  15.500   6.124  0.3372 -0.0883  0.0251
  752POPS   C2B11450   6.417  15.556   6.553  0.2329  0.3126  0.0522
  752POPS   C3B11451   6.098  15.806   6.490 -0.0417 -0.1738  0.4214
  752POPS   C4B11452   6.085  16.093   6.766 -0.1143 -0.1467 -0.0947
  753POPS   CNO11453   2.329  11.044   5.211  0.0240 -0.0505  0.2188
  753POPS   PO411454   2.630  10.690   5.168 -0.4409  0.0374  0.0979
  753POPS   GL111455   2.700  10.910   5.493 -0.1166 -0.2843  0.0403
  753POPS   GL211456   2.485  10.739   5.778 -0.0443  0.0116  0.2524
  753POPS   C1A11457   2.886  11.199   5.847  0.0080  0.4597  0.0976
  753POPS   D2A11458   3.125  11.285   6.270 -0.1276 -0.1886 -0.2686
  753POPS   C3A11459   3.164  10.970   6.615  0.2757  0.0472  0.2932
  753POPS   C4A11460   2.871  10.741   6.862 -0.2604  0.1883 -0.0191
  753POPS   C1B11461   2.498  10.872   6.129 -0.2108  0.1192 -0.0275
  753POPS   C2B11462   2.635  11.093   6.450 -0.0390  0.0609 -0.2603
  753POPS   C3B11463   2.767  11.238   6.869 -0.1923 -0.2730  0.3200
  753POPS   C4B11464   2.899  11.343   7.351  0.0594  0.0496  0.2229
  754POPS   CNO11465  17.388  16.862   5.727 -0.1079 -0.2224  0.0969
  754POPS   PO411466  17.338  16.489   5.567 -0.4611 -0.0571  0.0393
  754POPS   GL111467  17.614  16.413   5.908 -0.2399  0.2510 -0.0308
  754POPS   GL211468  17.333  16.265   6.055 -0.2151  0.0532 -0.0498
  754POPS   C1A11469  17.882  16.207   6.331 -0.0727 -0.0990  0.0755
  754POPS   D2A11470  18.135  16.095   6.766  0.1610  0.1413  0.0155
  754POPS   C3A11471  18.094  16.291   7.199  0.2684 -0.1947 -0.0261
  754POPS   C4A11472  17.998  16.320   7.619  0.5344  0.2032 -0.4623
  754POPS   C1B11473  17.347  15.936   6.225  0.2384 -0.1518  0.1021
  754POPS   C2B11474  17.072  15.828   6.670  0.0173 -0.0388  0.0429
  754POPS   C3B11475  17.123  15.821   7.068  0.1220 -0.2886 -0.2805
  754POPS   C4B11476  16.951  15.854   7.489 -0.4694 -0.0047  0.1114
  755POPS   CNO11477   2.055  16.405   5.278  0.1275 -0.1504 -0.0268
  755POPS   PO411478   2.420  16.454   5.656 -0.5271 -0.0830 -0.2033
  755POPS   GL111479   2.251  16.732   6.045 -0.2070  0.0222  0.0217
  755POPS   GL211480   2.119  16.362   6.188  0.0337 -0.0876 -0.0078
  755POPS   C1A11481   2.239  16.767   6.466 -0.2293  0.0590 -0.1785
  755POPS   D2A11482   2.068  16.801   6.886 -0.1523 -0.2683  0.1189
  755POPS   C3A11483   1.916  16.743   7.364  0.0271  0.3751 -0.1168
  755POPS   C4A11484   1.777  17.109   7.672  0.0093  0.0938  0.0749
  755POPS   C1B11485   1.861  16.496   6.545  0.0641  0.2136  0.1742
  755POPS   C2B11486   1.707  16.457   6.958 -0.2218  0.0899 -0.0648
  755POPS   C3B11487   1.798  16.248   7.419  0.3799 -0.0153 -0.0129
  755POPS   C4B11488   1.734  16.323   7.801 -0.0578 -0.1579 -0.1692
  756POPS   CNO11489  14.486  14.246   5.318 -0.0903 -0.0358 -0.0004
  756POPS   PO411490  14.430  14.515   5.607 -0.1978 -0.1445 -0.0140
  756POPS   GL111491  14.494  14.459   6.098  0.0911 -0.1092  0.0949
  756POPS   GL211492  14.663  14.521   6.369  0.1851  0.2845  0.1108
  756POPS   C1A11493  14.173  14.405   6.430 -0.0128 -0.2353  0.0362
  756POPS   D2A11494  14.167  14.372   6.830 -0.0505  0.0834 -0.2366
  756POPS   C3A11495  14.157  14.689   7.104 -0.2659  0.0226 -0.1779
  756POPS   C4A11496  14.146  14.773   7.472  0.0239 -0.1019  0.0007
  756POPS   C1B11497  14.721  14.650   6.831 -0.0041 -0.0482  0.2114
  756POPS   C2B11498  14.969  14.948   7.206  0.0037 -0.0294 -0.1850
  756POPS   C3B11499  15.084  15.173   7.488 -0.1300 -0.0114  0.1798
  756POPS   C4B11500  15.073  15.633   7.483  0.0278  0.2169 -0.2311
  757POPS   CNO11501   9.002   2.386   5.452  0.2080 -0.0236  0.1630
  757POPS   PO411502   8.667   2.590   5.549 -0.1274  0.2042 -0.0291
  757POPS   GL111503   8.774   2.548   5.867 -0.1710 -0.0179  0.0837
  757POPS   GL211504   9.144   2.705   5.812 -0.2836 -0.1168  0.2916
  757POPS   C1A11505   9.022   2.225   6.141 -0.0485  0.0849  0.1970
  757POPS   D2A11506   9.097   2.324   6.631 -0.0451  0.1107  0.2471
  757POPS   C3A11507   8.712   2.515   6.863 -0.1412  0.0328 -0.0019
  757POPS   C4A11508   8.379   2.635   7.106 -0.0695 -0.1226 -0.0899
  757POPS   C1B11509   9.211   2.704   6.282  0.4176  0.0491 -0.1561
  757POPS   C2B11510   9.435   2.776   6.632  0.3284  0.1883  0.2739
  757POPS   C3B11511   9.672   2.873   7.033 -0.4585  0.4546  0.1411
  757POPS   C4B11512   9.932   2.667   7.288  0.1912  0.1221  0.1315
  758POPS   CNO11513   0.937   8.520   5.424  0.0271 -0.1102 -0.0909
  758POPS   PO411514   1.356   8.588   5.337  0.2791  0.1089 -0.1749
  758POPS   GL111515   1.411   8.531   5.799 -0.2479 -0.0255 -0.3682
  758POPS   GL211516   1.148   8.464   5.898 -0.0723  0.2746  0.1035
  758POPS   C1A11517   1.654   8.764   6.128  0.0838 -0.1317  0.1912
  758POPS   D2A11518   1.916   8.798   6.482 -0.0668 -0.2123  0.0485
  758POPS   C3A11519   1.782   9.002   6.941 -0.3019  0.2154 -0.0872
  758POPS   C4A11520   1.469   9.197   7.131  0.2446  0.0872 -0.0604
  758POPS   C1B11521   1.119   8.547   6.327  0.4151 -0.0107 -0.0714
  758POPS   C2B11522   0.976   8.722   6.733  0.1633 -0.1221 -0.0911
  758POPS   C3B11523   0.932   8.805   7.135  0.2882  0.1190  0.3934
  758POPS   C4B11524   0.692   8.995   7.424  0.2177 -0.4718 -0.0072
  759POPS   CNO11525  10.650   8.375   5.153 -0.1651  0.4403  0.2311
  759POPS   PO411526  11.001   8.361   5.525 -0.2006 -0.5411 -0.4361
  759POPS   GL111527  10.934   8.252   5.901  0.1310  0.3332  0.0237
  759POPS   GL211528  11.180   8.040   5.880  0.0549 -0.2237 -0.0401
  759POPS   C1A11529  10.994   8.144   6.372  0.0044 -0.1265  0.0497
  759POPS   D2A11530  10.863   8.389   6.789 -0.3121  0.2261  0.2467
  759POPS   C3A11531  10.458   8.639   6.662 -0.0721  0.1728  0.0203
  759POPS   C4A11532  10.072   8.675   6.738 -0.1711  0.0503 -0.0490
  759POPS   C1B11533  11.309   7.725   6.175 -0.1386 -0.3615 -0.0008
  759POPS   C2B11534  11.152   7.695   6.678 -0.0874  0.3127  0.1404
  759POPS   C3B11535  11.400   7.581   7.155  0.2151  0.1472  0.0711
  759POPS   C4B11536  11.570   7.641   7.514  0.3438  0.2488  0.0957
  760POPS   CNO11537   6.816  13.103   5.713  0.0319 -0.3138 -0.1885
  760POPS   PO411538   7.316  13.195   5.641  0.2328  0.3734  0.3166
  760POPS   GL111539   7.313  13.402   5.998  0.3983 -0.2148  0.3981
  760POPS   GL211540   7.637  13.386   6.116 -0.1786 -0.2084  0.2756
  760POPS   C1A11541   7.203  13.265   6.439  0.0046  0.4120  0.0223
  760POPS   D2A11542   7.150  13.338   6.955  0.3618  0.0595 -0.2426
  760POPS   C3A11543   7.575  13.423   7.083  0.0169 -0.0307  0.1941
  760POPS   C4A11544   7.694  13.483   7.482  0.0045  0.0331 -0.4815
  760POPS   C1B11545   7.691  13.581   6.578 -0.2345 -0.0328  0.3012
  760POPS   C2B11546   8.035  13.855   6.706  0.0306  0.0180 -0.1169
  760POPS   C3B11547   8.119  13.668   7.093 -0.1230  0.2752  0.0731
  760POPS   C4B11548   8.357  13.475   7.450  0.0604  0.0623  0.0367
  761POPS   CNO11549   6.412   1.327   4.727 -0.0035  0.0882 -0.3058
  761POPS   PO411550   6.030   1.473   4.988  0.0516 -0.0838 -0.2152
  761POPS   GL111551   6.119   1.269   5.424  0.0164 -0.1710 -0.1200
  761POPS   GL211552   6.114   1.577   5.740 -0.3339 -0.1799  0.0076
  761POPS   C1A11553   6.438   1.217   5.780 -0.0410 -0.0623  0.0450
  761POPS   D2A11554   6.585   1.284   6.246  0.0545  0.2305 -0.1912
  761POPS   C3A11555   6.457   1.566   6.478 -0.0964  0.0097  0.1924
  761POPS   C4A11556   6.261   1.604   6.873  0.3016 -0.0326  0.3092
  761POPS   C1B11557   6.134   1.702   6.156  0.2296  0.2093  0.1803
  761POPS   C2B11558   6.029   1.916   6.407  0.0473 -0.3358 -0.0369
  761POPS   C3B11559   5.817   2.250   6.498  0.2639 -0.0765  0.4448
  761POPS   C4B11560   5.910   2.435   6.891 -0.2415 -0.0233  0.4273
  762POPS   CNO11561  11.424  11.603   5.387  0.2941 -0.0370 -0.2384
  762POPS   PO411562  11.403  11.042   5.406  0.3105  0.2018 -0.3503
  762POPS   GL111563  11.465  11.067   5.856  0.1357 -0.2424 -0.0528
  762POPS   GL211564  11.501  11.431   5.947  0.0979 -0.1700  0.2706
  762POPS   C1A11565  11.515  10.946   6.225 -0.0437  0.0250 -0.3018
  762POPS   D2A11566  11.734  10.813   6.528  0.1932  0.1569  0.0882
  762POPS   C3A11567  12.111  11.053   6.745  0.3155  0.2539 -0.1015
  762POPS   C4A11568  12.401  11.270   6.986  0.0263 -0.0422 -0.1083
  762POPS   C1B11569  11.701  11.743   6.196 -0.0819 -0.0502  0.0737
  762POPS   C2B11570  11.851  11.942   6.589  0.2180  0.0750  0.1249
  762POPS   C3B11571  11.604  11.900   6.964  0.1761 -0.1990 -0.4143
  762POPS   C4B11572  11.356  11.913   7.347 -0.2535  0.0883  0.0324
  763POPS   CNO11573  12.334  13.723   5.245 -0.0923  0.2321 -0.0743
  763POPS   PO411574  12.370  13.384   5.518  0.2938  0.2259 -0.3977
  763POPS   GL111575  12.560  13.386   5.807 -0.2191 -0.3766 -0.0700
  763POPS   GL211576  12.950  13.265   5.789 -0.3719 -0.1230  0.0650
  763POPS   C1A11577  12.519  13.466   6.300 -0.0710  0.1169 -0.3303
  763POPS   D2A11578  12.831  13.707   6.569 -0.0264 -0.1892 -0.4419
  763POPS   C3A11579  12.753  13.780   7.098 -0.1685  0.3855  0.1217
  763POPS   C4A11580  12.884  13.858   7.556 -0.0512 -0.2846  0.1141
  763POPS   C1B11581  13.093  13.374   6.245  0.2859  0.1729  0.3727
  763POPS   C2B11582  13.423  13.251   6.510  0.0442  0.0008 -0.0536
  763POPS   C3B11583  13.611  12.902   6.677 -0.0449 -0.1013  0.2280
  763POPS   C4B11584  13.747  12.700   7.044  0.1179  0.0790  0.1506
  764POPS   CNO11585  14.405  16.196   5.619  0.0618  0.2643  0.2144
  764POPS   PO411586  14.257  16.556   5.426  0.0844 -0.1626 -0.0823
  764POPS   GL111587  14.245  16.750   5.764  0.1527 -0.0585 -0.0955
  764POPS   GL211588  14.356  16.561   6.017  0.0098 -0.4896  0.0678
  764POPS   C1A11589  13.923  17.004   5.967  0.4324 -0.1906  0.1565
  764POPS   D2A11590  13.905  17.319   6.288  0.0539  0.5010  0.1148
  764POPS   C3A11591  14.105  17.295   6.676 -0.1774  0.0221  0.2558
  764POPS   C4A11592  14.362  17.204   6.961 -0.1396 -0.2712 -0.0586
  764POPS   C1B11593  14.437  16.476   6.542  0.3168 -0.0764  0.3837
  764POPS   C2B11594  14.178  16.641   6.894  0.2001 -0.2129 -0.3047
  764POPS   C3B11595  13.902  16.761   7.231 -0.1265  0.2591 -0.1995
  764POPS   C4B11596  14.032  16.579   7.634  0.0095 -0.1834  0.0670
  765POPS   CNO11597   0.502  15.582   4.816 -0.0490 -0.1766 -0.2515
  765POPS   PO411598   0.449  15.689   5.133  0.1034 -0.2425 -0.1747
  765POPS   GL111599   0.402  15.353   5.444 -0.0478  0.2311 -0.0459
  765POPS   GL211600   0.131  15.365   5.712  0.0551  0.0096  0.2447
  765POPS   C1A11601   0.655  15.529   5.918 -0.3766 -0.1004  0.0394
  765POPS   D2A11602   0.757  15.671   6.325  0.3613 -0.2068  0.1013
  765POPS   C3A11603   0.623  15.513   6.691 -0.0141  0.2743  0.1284
  765POPS   C4A11604   0.324  15.298   6.878 -0.2459  0.1864 -0.1035
  765POPS   C1B11605  -0.021  15.268   6.086  0.0884 -0.1166 -0.3486
  765POPS   C2B11606  -0.103  15.191   6.607 -0.5172 -0.3193 -0.1023
  765POPS   C3B11607  -0.227  15.323   7.104  0.0957  0.1542  0.0112
  765POPS   C4B11608  -0.447  15.176   7.436 -0.2168  0.2539  0.1823
  766POPS   CNO11609   6.421   9.519   4.971  0.0014 -0.0011  0.0200
  766POPS   PO411610   6.253   9.608   5.328 -0.3972  0.0714  0.0596
  766POPS   GL111611   6.115   9.294   5.604 -0.3178 -0.2485 -0.4569
  766POPS   GL211612   6.406   9.414   5.737 -0.1344  0.5079 -0.3125
  766POPS   C1A11613   6.074   8.962   5.980  0.2527 -0.2121  0.0565
  766POPS   D2A11614   6.118   8.690   6.278 -0.0829 -0.2429  0.0031
  766POPS   C3A11615   6.024   8.871   6.731  0.0307  0.2247  0.0535
  766POPS   C4A11616   5.963   9.250   6.855  0.1473  0.2281  0.0943
  766POPS   C1B11617   6.726   9.583   6.031 -0.1036  0.1116  0.1267
  766POPS   C2B11618   6.847   9.498   6.408 -0.2689  0.0811 -0.2799
  766POPS   C3B11619   6.852   9.388   6.843 -0.0289  0.1772  0.2264
  766POPS   C4B11620   6.978   9.445   7.217 -0.0110  0.1221  0.0517
  767POPS   CNO11621   0.694   6.816   4.762  0.2050 -0.3487 -0.0012
  767POPS   PO411622   0.748   6.866   5.207  0.0134  0.0555  0.0190
  767POPS   GL111623   0.778   6.903   5.590 -0.0595  0.0501 -0.0354
  767POPS   GL211624   0.614   7.257   5.526  0.1259  0.2378 -0.0384
  767POPS   C1A11625   0.911   7.090   6.096  0.1895  0.1577 -0.0238
  767POPS   D2A11626   0.834   7.447   6.276 -0.1055  0.2510 -0.0336
  767POPS   C3A11627   1.101   7.562   6.664 -0.1178  0.0333  0.0479
  767POPS   C4A11628   1.252   7.832   7.006 -0.2625 -0.4626  0.2036
  767POPS   C1B11629   0.500   7.416   5.821 -0.0091  0.1268 -0.4226
  767POPS   C2B11630   0.350   7.550   6.217 -0.0813  0.0319 -0.1105
  767POPS   C3B11631   0.481   7.585   6.623  0.0018  0.0465 -0.4342
  767POPS   C4B11632   0.731   7.382   6.929  0.0871 -0.0610  0.1134
  768POPS   CNO11633  13.910   2.142   4.718 -0.1231  0.1070  0.2736
  768POPS   PO411634  14.335   2.334   4.701 -0.1764 -0.0571 -0.1260
  768POPS   GL111635  14.262   2.434   5.109 -0.0755 -0.1428 -0.0240
  768POPS   GL211636  14.178   2.080   5.292 -0.1700  0.2516 -0.1658
  768POPS   C1A11637  14.295   2.779   5.365  0.1132  0.1770 -0.0162
  768POPS   D2A11638  14.385   3.036   5.675  0.0507 -0.0313 -0.1176
  768POPS   C3A11639  14.421   2.933   6.167 -0.2003  0.1361 -0.3322
  768POPS   C4A11640  14.274   3.006   6.547  0.0415  0.1105  0.1137
  768POPS   C1B11641  14.291   1.957   5.741  0.0843 -0.2206  0.0027
  768POPS   C2B11642  14.295   2.126   6.146 -0.2227  0.1624 -0.0802
  768POPS   C3B11643  14.459   2.448   6.325 -0.1225 -0.1335 -0.2523
  768POPS   C4B11644  14.691   2.668   6.649  0.1818 -0.1334 -0.0350
  769POPS   CNO11645   4.135   7.635   5.081 -0.0865  0.0526 -0.1171
  769POPS   PO411646   4.391   7.824   5.396  0.1125  0.2297  0.3393
  769POPS   GL111647   4.328   8.172   5.791 -0.0991 -0.1723  0.2638
  769POPS   GL211648   4.595   8.417   5.607  0.0345 -0.2234  0.0613
  769POPS   C1A11649   4.306   8.261   6.229  0.0931 -0.1147 -0.2009
  769POPS   D2A11650   4.262   8.345   6.579 -0.1398 -0.5251  0.0529
  769POPS   C3A11651   3.971   8.263   6.921  0.0676  0.1630 -0.3295
  769POPS   C4A11652   3.833   8.214   7.408 -0.0415  0.1862 -0.1336
  769POPS   C1B11653   4.797   8.304   6.007  0.1533  0.1700 -0.0681
  769POPS   C2B11654   4.754   8.089   6.426 -0.0903 -0.0480 -0.1351
  769POPS   C3B11655   4.744   8.263   6.788 -0.0391  0.2252 -0.1211
  769POPS   C4B11656   4.767   8.497   7.241  0.1449  0.2004 -0.1004
  770POPS   CNO11657  14.956   4.625   5.288 -0.5981 -0.0353 -0.0265
  770POPS   PO411658  15.251   4.581   5.022 -0.0259  0.2917 -0.1203
  770POPS   GL111659  15.523   4.580   5.421  0.1891  0.0612  0.2591
  770POPS   GL211660  15.241   4.489   5.676  0.0366 -0.0079  0.0815
  770POPS   C1A11661  15.409   4.976   5.655  0.5826  0.2522 -0.0755
  770POPS   D2A11662  15.098   5.211   5.663  0.2340 -0.4719  0.1286
  770POPS   C3A11663  15.333   5.520   5.887 -0.1957  0.0692  0.2166
  770POPS   C4A11664  15.507   5.977   5.946  0.2706  0.0213  0.0893
  770POPS   C1B11665  15.383   4.700   6.071  0.1632 -0.1851  0.0371
  770POPS   C2B11666  15.456   4.833   6.600  0.1256 -0.2598 -0.4697
  770POPS   C3B11667  15.283   4.969   7.019  0.1202 -0.1108 -0.3381
  770POPS   C4B11668  15.321   5.321   7.218  0.1087  0.0649 -0.1463
  771POPS   CNO11669   6.808  11.325   5.280 -0.2185 -0.2884  0.5303
  771POPS   PO411670   6.778  11.646   5.531  0.1509  0.1744  0.0416
  771POPS   GL111671   6.613  11.581   5.848  0.0622  0.1135  0.0464
  771POPS   GL211672   6.755  11.161   5.907  0.4388  0.1681 -0.1908
  771POPS   C1A11673   6.385  11.345   6.129  0.0839  0.1245 -0.2273
  771POPS   D2A11674   6.057  11.146   6.218 -0.0312  0.3023  0.1122
  771POPS   C3A11675   6.110  10.998   6.576  0.1341 -0.1017 -0.1419
  771POPS   C4A11676   5.957  10.619   6.776 -0.0224  0.0775  0.0715
  771POPS   C1B11677   6.601  10.968   6.313 -0.1233 -0.1751 -0.0225
  771POPS   C2B11678   6.623  10.866   6.808 -0.4711 -0.2209 -0.2985
  771POPS   C3B11679   6.357  10.723   7.150 -0.1670  0.2253  0.1807
  771POPS   C4B11680   6.023  10.431   7.358  0.1223 -0.4395 -0.1492
  772POPS   CNO11681  16.542   2.524   5.044  0.3840  0.2071 -0.1220
  772POPS   PO411682  16.447   2.856   5.285 -0.0338  0.1354 -0.1710
  772POPS   GL111683  16.477   2.480   5.587  0.1252 -0.2503 -0.1082
  772POPS   GL211684  16.719   2.674   5.730 -0.0429  0.0635  0.2265
  772POPS   C1A11685  16.314   2.392   5.918  0.1949  0.0762 -0.2678
  772POPS   D2A11686  16.325   2.488   6.341  0.0400 -0.0582 -0.6366
  772POPS   C3A11687  16.495   2.432   6.761  0.1702  0.1171  0.1819
  772POPS   C4A11688  16.679   2.159   7.058 -0.1179  0.2768  0.1630
  772POPS   C1B11689  16.658   2.808   6.159 -0.1148 -0.2514  0.3469
  772POPS   C2B11690  16.671   3.159   6.393 -0.2022 -0.0197  0.0625
  772POPS   C3B11691  16.643   3.494   6.564  0.0487  0.1611 -0.2031
  772POPS   C4B11692  16.389   3.610   6.862 -0.1345  0.0087 -0.1228
  773POPS   CNO11693  19.275   4.450   5.615  0.1305  0.2292  0.2977
  773POPS   PO411694  19.160   4.646   5.280 -0.0827 -0.1381  0.2026
  773POPS   GL111695  18.812   4.599   5.681  0.0410  0.3929 -0.3983
  773POPS   GL211696  18.806   4.278   5.436 -0.1041 -0.0453 -0.1954
  773POPS   C1A11697  18.650   4.706   6.036  0.0381  0.3965  0.1157
  773POPS   D2A11698  18.505   4.922   6.436 -0.0707  0.2214  0.0079
  773POPS   C3A11699  18.620   4.728   6.806  0.1393 -0.2680 -0.0782
  773POPS   C4A11700  18.456   4.383   7.023  0.1720 -0.0147  0.0453
  773POPS   C1B11701  18.745   4.120   5.810  0.6228  0.1310 -0.2093
  773POPS   C2B11702  18.756   3.918   6.142 -0.1089  0.1329 -0.0220
  773POPS   C3B11703  18.738   3.799   6.636  0.1969 -0.2618  0.0573
  773POPS   C4B11704  18.891   3.643   6.942 -0.0585 -0.1870 -0.1509
  774POPS   CNO11705   4.582  10.012   4.890 -0.2141  0.0763 -0.1200
  774POPS   PO411706   4.646  10.292   5.297 -0.1817 -0.2810 -0.2649
  774POPS   GL111707   4.481  10.381   5.736  0.0131  0.0202 -0.0586
  774POPS   GL211708   4.192  10.307   5.880 -0.0178  0.2604  0.2680
  774POPS   C1A11709   4.799  10.371   6.126 -0.1377 -0.2287 -0.0473
  774POPS   D2A11710   5.197  10.561   6.198  0.0199  0.2644  0.1737
  774POPS   C3A11711   5.228  10.888   6.576 -0.1976  0.1837  0.1845
  774POPS   C4A11712   4.815  10.947   6.781  0.3056 -0.2025  0.1223
  774POPS   C1B11713   4.382  10.187   6.226  0.4512 -0.1564 -0.1093
  774POPS   C2B11714   4.584  10.634   6.472 -0.4455 -0.0035  0.2083
  774POPS   C3B11715   4.324  10.967   6.636  0.1374  0.1690  0.2785
  774POPS   C4B11716   3.999  11.172   6.824  0.0802  0.1679 -0.0048
  775POPS   CNO11717   5.292   9.447   5.131 -0.2902 -0.0081  0.2491
  775POPS   PO411718   5.545   9.854   5.164 -0.1248 -0.2025  0.0836
  775POPS   GL111719   5.541   9.606   5.571  0.1453  0.3593 -0.0133
  775POPS   GL211720   5.549   9.913   5.667  0.0549 -0.3962  0.1232
  775POPS   C1A11721   5.693   9.333   5.848 -0.0664  0.0586  0.2960
  775POPS   D2A11722   5.665   9.128   6.237 -0.0063  0.1267  0.1016
  775POPS   C3A11723   5.617   8.780   6.234 -0.3721  0.1653  0.1821
  775POPS   C4A11724   5.782   8.404   6.063  0.1543 -0.1070  0.0498
  775POPS   C1B11725   5.592   9.737   6.174 -0.0956 -0.1127  0.0215
  775POPS   C2B11726   5.611   9.533   6.556 -0.0172 -0.0888  0.4365
  775POPS   C3B11727   5.539   9.595   7.003  0.2903  0.1292 -0.3167
  775POPS   C4B11728   5.217   9.566   7.366 -0.2035  0.0719 -0.0569
  776POPS   CNO11729   6.069   6.927   5.060  0.0826  0.1334  0.1263
  776POPS   PO411730   6.042   7.164   5.276  0.3168  0.2968 -0.1080
  776POPS   GL111731   6.165   7.269   5.651  0.2367  0.1743 -0.1761
  776POPS   GL211732   6.107   7.040   5.782 -0.0918 -0.1871 -0.5319
  776POPS   C1A11733   6.024   7.376   6.124  0.1208 -0.0419 -0.3507
  776POPS   D2A11734   6.105   7.493   6.542 -0.1119  0.0376  0.2156
  776POPS   C3A11735   6.388   7.481   6.942  0.1489  0.0558  0.1312
  776POPS   C4A11736   6.730   7.429   7.201  0.0039  0.1118 -0.1581
  776POPS   C1B11737   6.208   6.889   6.124  0.1328  0.0537  0.0971
  776POPS   C2B11738   6.135   6.979   6.462  0.2545 -0.0662 -0.2166
  776POPS   C3B11739   6.177   7.038   6.815  0.5292  0.1895 -0.1199
  776POPS   C4B11740   6.300   6.872   7.204 -0.4061  0.0519 -0.1142
  777POPS   CNO11741  12.644  11.787   4.941  0.1470 -0.0421 -0.3035
  777POPS   PO411742  12.686  11.945   5.313 -0.1062  0.2480 -0.3056
  777POPS   GL111743  12.862  11.907   5.754  0.2273  0.1527  0.1340
  777POPS   GL211744  13.038  12.140   5.859 -0.1662 -0.0081  0.0645
  777POPS   C1A11745  12.897  11.699   6.188 -0.0641  0.1266 -0.1468
  777POPS   D2A11746  13.332  11.838   6.425  0.1072  0.1010 -0.2745
  777POPS   C3A11747  13.399  11.977   6.811 -0.1528  0.2343 -0.0112
  777POPS   C4A11748  13.507  12.113   7.284  0.1239  0.0410 -0.0643
  777POPS   C1B11749  13.294  12.363   6.213  0.3338 -0.1545 -0.0893
  777POPS   C2B11750  13.528  12.429   6.636  0.0944 -0.1274  0.0159
  777POPS   C3B11751  13.842  12.228   6.936  0.3095 -0.0575  0.2742
  777POPS   C4B11752  13.950  12.211   7.446 -0.1056  0.1861 -0.0956
  778POPS   CNO11753   9.574  16.457   5.448  0.2844  0.0544 -0.1041
  778POPS   PO411754  10.052  16.473   5.562 -0.2631 -0.0532 -0.0651
  778POPS   GL111755  10.234  16.560   5.894 -0.0269  0.0968 -0.2037
  778POPS   GL211756  10.109  16.930   5.910  0.1502  0.1663 -0.1269
  778POPS   C1A11757   9.987  16.501   6.287  0.1351  0.0126  0.0512
  778POPS   D2A11758   9.979  16.621   6.688 -0.0308 -0.0462  0.1747
  778POPS   C3A11759  10.383  16.898   6.900 -0.2113 -0.2158  0.2047
  778POPS   C4A11760  10.643  16.590   7.082 -0.0496 -0.1770  0.3015
  778POPS   C1B11761   9.856  16.963   6.315 -0.4364 -0.2408  0.1787
  778POPS   C2B11762   9.751  17.092   6.766 -0.4649  0.0127  0.2939
  778POPS   C3B11763  10.023  17.070   7.134  0.4294  0.2119 -0.0083
  778POPS   C4B11764  10.251  16.696   7.309 -0.2727  0.3130 -0.0083
  779POPS   CNO11765   7.206   4.713   4.915  0.0429 -0.2627 -0.0874
  779POPS   PO411766   7.578   4.749   4.742 -0.3229 -0.1250 -0.0996
  779POPS   GL111767   7.597   4.955   5.202  0.3010 -0.1975 -0.0927
  779POPS   GL211768   7.405   5.154   5.168 -0.1503 -0.3580  0.0031
  779POPS   C1A11769   7.843   5.137   5.599  0.1763 -0.1063 -0.1530
  779POPS   D2A11770   8.142   5.189   5.913  0.0334 -0.1500  0.0515
  779POPS   C3A11771   8.488   5.470   5.978  0.1215 -0.0641  0.3802
  779POPS   C4A11772   8.837   5.519   6.371  0.1058  0.0993 -0.1863
  779POPS   C1B11773   7.359   5.275   5.532  0.1040 -0.0272 -0.1312
  779POPS   C2B11774   7.387   4.962   5.783  0.1803  0.2390 -0.0383
  779POPS   C3B11775   7.719   4.866   6.045 -0.0187 -0.0294 -0.0521
  779POPS   C4B11776   7.885   4.541   6.382  0.1926  0.2299  0.0738
  780POPS   CNO11777   2.495  14.967   5.595  0.1118  0.1248  0.0757
  780POPS   PO411778   2.226  15.342   5.527 -0.1474 -0.2683 -0.0624
  780POPS   GL111779   2.094  15.557   5.844  0.0983  0.1287 -0.3502
  780POPS   GL211780   1.794  15.525   5.877  0.1842  0.0684 -0.0229
  780POPS   C1A11781   2.166  15.609   6.238  0.1567 -0.0864 -0.1222
  780POPS   D2A11782   2.359  15.941   6.433 -0.1291  0.1989 -0.1205
  780POPS   C3A11783   2.876  15.968   6.357 -0.0535 -0.2026 -0.2628
  780POPS   C4A11784   3.366  16.192   6.171 -0.0293 -0.0651 -0.1887
  780POPS   C1B11785   1.696  15.358   6.288 -0.2235  0.0980 -0.2540
  780POPS   C2B11786   1.756  15.379   6.802  0.0543  0.0854  0.2602
  780POPS   C3B11787   1.811  14.979   7.185  0.0612  0.1267 -0.1079
  780POPS   C4B11788   1.993  14.574   7.122  0.2578  0.0023  0.1585
  781POPS   CNO11789  17.213  17.682   4.792  0.1153  0.0203  0.1489
  781POPS   PO411790  17.090  17.370   5.142 -0.1290 -0.0873  0.2566
  781POPS   GL111791  16.964  17.276   5.571  0.2877  0.0607 -0.2290
  781POPS   GL211792  16.819  17.574   5.707  0.2586  0.2917 -0.0659
  781POPS   C1A11793  17.039  17.152   5.964 -0.1800 -0.1983  0.1045
  781POPS   D2A11794  16.985  17.334   6.381 -0.2843  0.0860 -0.1550
  781POPS   C3A11795  16.652  17.250   6.713 -0.1448  0.1033  0.2151
  781POPS   C4A11796  16.222  17.308   6.561  0.2851  0.1101  0.3759
  781POPS   C1B11797  16.564  17.462   6.064  0.0229 -0.4126 -0.0425
  781POPS   C2B11798  16.576  17.047   6.198  0.2703  0.0211 -0.3128
  781POPS   C3B11799  16.446  16.833   6.467  0.1660 -0.0059 -0.0573
  781POPS   C4B11800  16.642  16.797   6.908  0.2425 -0.1460  0.0157
  782POPS   CNO11801  12.368  16.321   5.766  0.0796  0.0001  0.1561
  782POPS   PO411802  12.701  16.577   5.607 -0.1160  0.2086 -0.0912
  782POPS   GL111803  12.862  16.669   6.036  0.3764  0.4822  0.2495
  782POPS   GL211804  12.752  16.956   6.167  0.0652 -0.1850 -0.0212
  782POPS   C1A11805  13.083  16.690   6.385 -0.0380  0.0237  0.2979
  782POPS   D2A11806  12.974  16.681   6.828  0.1128  0.0093  0.1880
  782POPS   C3A11807  13.206  16.734   7.176 -0.0162  0.0002 -0.1378
  782POPS   C4A11808  13.488  16.656   7.496  0.1166 -0.0435 -0.1087
  782POPS   C1B11809  12.733  17.035   6.623  0.1457  0.0715 -0.3955
  782POPS   C2B11810  12.852  17.087   7.090  0.0071  0.0729  0.0924
  782POPS   C3B11811  12.892  16.960   7.497 -0.0132 -0.2152  0.0908
  782POPS   C4B11812  12.594  16.885   7.868  0.2457 -0.1304  0.2350
  783POPS   CNO11813  16.253   9.487   4.817  0.0909 -0.1053 -0.0155
  783POPS   PO411814  16.026   9.461   5.074  0.2863 -0.0919  0.0312
  783POPS   GL111815  15.691   9.496   5.296  0.6973 -0.3345 -0.0626
  783POPS   GL211816  15.704   9.334   5.483  0.2275 -0.1284  0.1185
  783POPS   C1A11817  15.328   9.658   5.615 -0.0646  0.0541 -0.1708
  783POPS   D2A11818  15.349   9.663   6.203  0.0111  0.1255  0.1903
  783POPS   C3A11819  15.155   9.361   6.516 -0.0501 -0.0690  0.1147
  783POPS   C4A11820  14.810   9.261   6.567  0.2142  0.2374  0.2410
  783POPS   C1B11821  15.547   9.279   5.965  0.2649  0.5818  0.0583
  783POPS   C2B11822  15.771   9.385   6.321  0.2298 -0.0677  0.1969
  783POPS   C3B11823  16.067   9.251   6.561 -0.3142 -0.1031 -0.0689
  783POPS   C4B11824  16.504   9.223   6.635  0.1405 -0.0953  0.0432
  784POPS   CNO11825   5.274  16.038   5.130 -0.2354  0.0541 -0.1341
  784POPS   PO411826   5.589  16.306   5.184  0.0627 -0.1122  0.2006
  784POPS   GL111827   5.830  16.304   5.583  0.0146 -0.2664  0.0666
  784POPS   GL211828   5.926  16.031   5.751 -0.4920 -0.1430 -0.0372
  784POPS   C1A11829   5.659  16.445   5.969 -0.0543 -0.0457 -0.2510
  784POPS   D2A11830   5.349  16.300   6.221 -0.3697  0.3558  0.1174
  784POPS   C3A11831   5.392  16.015   6.471  0.0745  0.2381 -0.3270
  784POPS   C4A11832   5.104  15.788   6.723 -0.1768 -0.2279 -0.1222
  784POPS   C1B11833   5.567  15.933   5.985 -0.3152 -0.0428 -0.0908
  784POPS   C2B11834   5.009  15.960   6.116  0.0084  0.3076  0.2663
  784POPS   C3B11835   4.717  15.804   6.335  0.2255  0.3442 -0.0779
  784POPS   C4B11836   4.451  15.604   6.616 -0.0869  0.0188  0.3697
  785POPS   CNO11837  16.217   0.438   4.720 -0.2562 -0.1317 -0.0236
  785POPS   PO411838  16.134   0.477   5.160  0.2751 -0.2416  0.0278
  785POPS   GL111839  16.245   0.539   5.598  0.2751 -0.0523 -0.0963
  785POPS   GL211840  16.000   0.775   5.599 -0.1206  0.3184 -0.1139
  785POPS   C1A11841  16.656   0.453   5.824  0.1280 -0.4253  0.1707
  785POPS   D2A11842  17.058   0.281   5.740  0.0128  0.0720  0.1310
  785POPS   C3A11843  17.445   0.429   5.880 -0.0416  0.0409 -0.0289
  785POPS   C4A11844  17.682   0.491   6.194 -0.1697 -0.0747  0.2366
  785POPS   C1B11845  15.985   1.026   6.040 -0.2665 -0.1718  0.0382
  785POPS   C2B11846  15.739   1.012   6.342 -0.1886 -0.3723 -0.2305
  785POPS   C3B11847  15.801   1.194   6.779 -0.2463 -0.3597 -0.1489
  785POPS   C4B11848  15.770   0.995   7.176  0.1369  0.0056 -0.0530
  786POPS   CNO11849  14.573  12.816   5.674  0.4171 -0.1825 -0.3401
  786POPS   PO411850  14.971  12.840   5.449 -0.1658  0.2340 -0.1401
  786POPS   GL111851  15.072  12.386   5.743 -0.0154 -0.0833 -0.1390
  786POPS   GL211852  14.756  12.192   5.681  0.0795 -0.1663 -0.1323
  786POPS   C1A11853  15.171  12.268   6.158  0.2087  0.1020 -0.0434
  786POPS   D2A11854  15.582  12.318   6.366 -0.3951 -0.1679  0.0582
  786POPS   C3A11855  15.867  12.101   6.688  0.0456  0.0145 -0.2190
  786POPS   C4A11856  15.747  11.871   6.980 -0.1026  0.0716  0.2287
  786POPS   C1B11857  15.070  11.889   5.874  0.3021  0.6798  0.2077
  786POPS   C2B11858  15.150  11.770   6.317 -0.2521  0.0300 -0.5459
  786POPS   C3B11859  15.256  11.758   6.809 -0.3257 -0.1345  0.3702
  786POPS   C4B11860  15.387  11.428   7.066 -0.2336 -0.0712  0.0578
  787POPS   CNO11861  11.078   1.456   5.403 -0.0674 -0.0499 -0.0368
  787POPS   PO411862  11.411   1.539   5.443 -0.4199  0.2605  0.1581
  787POPS   GL111863  11.340   1.898   5.752  0.1095  0.4101 -0.1231
  787POPS   GL211864  10.956   1.797   5.882 -0.1484  0.0789  0.0595
  787POPS   C1A11865  11.316   2.116   6.046  0.0861  0.2103 -0.3585
  787POPS   D2A11866  11.334   2.296   6.351 -0.1310  0.0225  0.2201
  787POPS   C3A11867  11.295   2.216   6.734 -0.1155  0.0094  0.1259
  787POPS   C4A11868  11.163   2.256   7.078 -0.0595 -0.0777  0.2993
  787POPS   C1B11869  10.530   1.646   6.038 -0.1566  0.0556  0.0754
  787POPS   C2B11870  10.510   1.578   6.466 -0.0291 -0.1442 -0.0512
  787POPS   C3B11871  10.447   1.762   6.807 -0.1044  0.2994  0.0738
  787POPS   C4B11872  10.317   1.804   7.321  0.2087  0.3646  0.1200
  788POPS   CNO11873   3.921  16.153   5.421  0.1367  0.0863  0.0602
  788POPS   PO411874   3.514  16.047   5.459 -0.2258  0.1106 -0.3258
  788POPS   GL111875   3.486  15.833   5.855  0.2858  0.0304 -0.0217
  788POPS   GL211876   3.394  15.475   5.835 -0.1207 -0.1964  0.1644
  788POPS   C1A11877   3.644  15.764   6.343  0.1974  0.1205  0.2178
  788POPS   D2A11878   3.392  16.013   6.613 -0.1855  0.2465  0.0186
  788POPS   C3A11879   3.430  15.669   7.010 -0.1540 -0.0691 -0.1306
  788POPS   C4A11880   3.303  15.255   7.296 -0.3776  0.0525  0.4369
  788POPS   C1B11881   3.246  15.412   6.282  0.2270  0.0605  0.1380
  788POPS   C2B11882   3.088  15.635   6.663 -0.0287 -0.0547 -0.2037
  788POPS   C3B11883   2.873  15.674   7.060  0.0443  0.0181  0.0574
  788POPS   C4B11884   2.612  15.465   7.325 -0.2130 -0.5669  0.0625
  789POPS   CNO11885  14.742  13.753   5.176 -0.1965  0.1461  0.1926
  789POPS   PO411886  14.849  13.725   5.536 -0.0796  0.0377  0.3993
  789POPS   GL111887  14.788  13.629   5.969  0.1285  0.1275  0.0964
  789POPS   GL211888  14.769  13.981   6.079 -0.3960  0.0440  0.1391
  789POPS   C1A11889  14.925  13.231   6.242 -0.1374 -0.0482 -0.1575
  789POPS   D2A11890  15.157  13.176   6.585  0.0853 -0.5163 -0.0706
  789POPS   C3A11891  15.295  13.628   6.759 -0.1881  0.0085  0.1214
  789POPS   C4A11892  15.586  13.943   6.831 -0.1350  0.0096  0.0555
  789POPS   C1B11893  14.490  14.052   6.442 -0.1109  0.0044  0.3140
  789POPS   C2B11894  14.300  13.908   6.847 -0.4774  0.1673 -0.3189
  789POPS   C3B11895  13.990  13.822   7.178 -0.2666  0.2737  0.1314
  789POPS   C4B11896  13.785  14.046   7.491  0.2389 -0.1592 -0.0273
  790POPS   CNO11897   6.004   0.273   5.706  0.2051 -0.0785  0.0820
  790POPS   PO411898   5.678   0.276   5.368  0.0715  0.1383  0.4672
  790POPS   GL111899   5.425   0.180   5.714 -0.2474  0.2248  0.0682
  790POPS   GL211900   5.159   0.300   5.781  0.0719  0.1959  0.2993
  790POPS   C1A11901   5.516  -0.017   6.149 -0.3130  0.0329 -0.0281
  790POPS   D2A11902   5.413  -0.071   6.594  0.1989 -0.3148  0.0357
  790POPS   C3A11903   5.412  -0.617   6.656 -0.0819 -0.0790 -0.0236
  790POPS   C4A11904   5.556  -0.845   6.479  0.3111  0.0036  0.0488
  790POPS   C1B11905   5.221   0.313   6.220 -0.0168 -0.3028 -0.0819
  790POPS   C2B11906   5.342   0.640   6.546  0.1122 -0.0365 -0.1181
  790POPS   C3B11907   5.337   0.898   6.931 -0.0564  0.2962  0.1502
  790POPS   C4B11908   4.979   0.821   7.207 -0.1736  0.2359 -0.0302
  791YOPS   CNO11909   1.836   2.933   5.438  0.0712  0.1534  0.0188
  791YOPS   PO411910   1.662   2.844   5.815 -0.2707 -0.0832  0.2808
  791YOPS   GL111911   1.680   2.773   6.146  0.3898 -0.1023 -0.1764
  791YOPS   GL211912   1.341   2.982   6.275  0.0008 -0.0804  0.0342
  791YOPS   C1A11913   1.844   2.437   6.271  0.1299 -0.2535  0.0208
  791YOPS   D2A11914   1.904   2.061   6.312  0.2330  0.0458 -0.2153
  791YOPS   C3A11915   1.705   1.861   6.629  0.0717 -0.2344  0.4851
  791YOPS   C4A11916   1.355   1.749   6.776  0.2842 -0.1862  0.1398
  791YOPS   C1B11917   1.355   2.745   6.542  0.0724 -0.0204 -0.1291
  791YOPS   C2B11918   1.455   2.831   7.009  0.0981 -0.0987  0.3021
  791YOPS   D3B11919   1.659   2.869   7.362  0.1875 -0.0198 -0.2764
  791YOPS   C4B11920   1.409   2.863   7.705 -0.0961 -0.0675  0.1166
  792YOPS   CNO11921   3.915  17.981   5.154  0.0283  0.0311 -0.2772
  792YOPS   PO411922   4.027  17.540   5.257 -0.0584  0.2098 -0.0580
  792YOPS   GL111923   3.953  17.658   5.697 -0.0482 -0.1254 -0.3439
  792YOPS   GL211924   4.150  17.437   5.806 -0.2428 -0.1399 -0.3669
  792YOPS   C1A11925   4.033  17.975   6.033  0.0910  0.0311 -0.1097
  792YOPS   D2A11926   4.322  18.132   6.274 -0.1368 -0.0429  0.1590
  792YOPS   C3A11927   4.482  18.467   6.503  0.1210 -0.0012  0.0499
  792YOPS   C4A11928   4.364  18.803   6.565  0.1327 -0.0420  0.2190
  792YOPS   C1B11929   4.253  17.120   6.096 -0.2364  0.4493  0.1816
  792YOPS   C2B11930   4.626  17.087   6.313  0.0131 -0.1435 -0.2452
  792YOPS   D3B11931   5.044  17.093   6.442 -0.3053  0.1773  0.1917
  792YOPS   C4B11932   5.262  17.356   6.856  0.2743 -0.0593  0.1538
  793YOPS   CNO11933  14.925  18.461   5.004  0.2004  0.2129 -0.1151
  793YOPS   PO411934  15.354  18.281   5.057  0.5758  0.2576 -0.1663
  793YOPS   GL111935  15.555  18.462   5.376  0.0202  0.0894  0.1473
  793YOPS   GL211936  15.475  18.755   5.603 -0.1003  0.2847 -0.0326
  793YOPS   C1A11937  15.558  18.304   5.774  0.1584 -0.1546  0.5137
  793YOPS   D2A11938  15.385  18.409   6.216  0.0826 -0.0382 -0.2463
  793YOPS   C3A11939  14.979  18.449   6.445 -0.1476 -0.2804 -0.3000
  793YOPS   C4A11940  15.062  18.245   6.898  0.3304 -0.2920 -0.0262
  793YOPS   C1B11941  15.249  18.798   5.958  0.1716 -0.0327  0.0705
  793YOPS   C2B11942  15.448  19.026   6.382  0.1579 -0.0543  0.0937
  793YOPS   D3B11943  15.489  19.144   6.852  0.2691 -0.2185 -0.0109
  793YOPS   C4B11944  15.520  19.628   6.856  0.1691 -0.2470  0.3521
  794YOPS   CNO11945   9.986  14.231   5.459 -0.1320 -0.1462  0.0869
  794YOPS   PO411946  10.005  13.822   5.594  0.0260  0.0515 -0.1340
  794YOPS   GL111947  10.019  13.526   5.849 -0.0785  0.0274 -0.2685
  794YOPS   GL211948   9.766  13.512   5.994  0.2309  0.2574  0.1878
  794YOPS   C1A11949  10.296  13.595   6.191  0.1979  0.1298  0.2149
  794YOPS   D2A11950  10.586  13.832   6.390 -0.0542  0.1205 -0.0743
  794YOPS   C3A11951  10.555  14.302   6.518 -0.0281 -0.0637 -0.2173
  794YOPS   C4A11952  10.896  14.464   6.603 -0.3665  0.0528 -0.1642
  794YOPS   C1B11953   9.585  13.185   6.398 -0.1332 -0.1329 -0.1350
  794YOPS   C2B11954   9.558  12.818   6.634  0.3929 -0.1720  0.4482
  794YOPS   D3B11955   9.526  12.747   7.001  0.3306  0.0008 -0.1296
  794YOPS   C4B11956   9.562  12.289   7.149 -0.1514  0.0176  0.0863
  795YOPS   CNO11957   1.565  16.288   5.820 -0.1549  0.2615 -0.2773
  795YOPS   PO411958   1.907  16.537   5.776 -0.1996  0.0821 -0.0344
  795YOPS   GL111959   1.676  16.808   5.950 -0.0718 -0.4228  0.1109
  795YOPS   GL211960   1.406  16.847   5.954 -0.1632  0.2053 -0.1842
  795YOPS   C1A11961   1.684  16.990   6.398 -0.0154  0.2275 -0.0418
  795YOPS   D2A11962   1.574  17.031   6.817 -0.0022  0.0428  0.0585
  795YOPS   C3A11963   1.595  16.980   7.209 -0.0158 -0.0432  0.0431
  795YOPS   C4A11964   1.440  16.785   7.551  0.0059 -0.0598 -0.0888
  795YOPS   C1B11965   1.345  16.633   6.272 -0.0021  0.1173 -0.1746
  795YOPS   C2B11966   1.265  16.705   6.617  0.1218 -0.1692  0.0339
  795YOPS   D3B11967   1.091  16.933   6.939  0.2970  0.0634  0.2935
  795YOPS   C4B11968   1.248  17.432   6.937 -0.1810 -0.1691  0.1402
  796YOPS   CNO11969   1.382   0.207   5.609 -0.0954  0.2297  0.0523
  796YOPS   PO411970   1.014   0.109   5.706  0.3736 -0.0731 -0.0314
  796YOPS   GL111971   1.187   0.385   6.017 -0.0773  0.0718  0.0606
  796YOPS   GL211972   1.470   0.534   5.964 -0.1245  0.5428  0.0939
  796YOPS   C1A11973   1.300   0.246   6.417 -0.3598 -0.0327  0.0108
  796YOPS   D2A11974   1.634   0.188   6.706 -0.3608  0.3578 -0.0161
  796YOPS   C3A11975   1.678   0.182   7.171 -0.3071 -0.1443  0.1895
  796YOPS   C4A11976   2.068   0.440   7.225  0.1296 -0.0137  0.0180
  796YOPS   C1B11977   1.678   0.302   6.118  0.3630 -0.0603 -0.0805
  796YOPS   C2B11978   1.780   0.002   6.263 -0.0479  0.0752 -0.1721
  796YOPS   D3B11979   1.920  -0.382   6.175 -0.1517 -0.2079  0.2241
  796YOPS   C4B11980   2.297  -0.567   6.310 -0.4466  0.0655  0.1108
  797YOPS   CNO11981   8.713   7.759   5.193  0.3364  0.1131  0.2875
  797YOPS   PO411982   8.470   7.324   5.244 -0.2567 -0.0898 -0.0885
  797YOPS   GL111983   8.624   7.495   5.615 -0.1736  0.0785  0.0813
  797YOPS   GL211984   8.352   7.772   5.605  0.2964  0.2855  0.1527
  797YOPS   C1A11985   8.656   7.579   6.073  0.0712  0.0164  0.0730
  797YOPS   D2A11986   8.441   7.849   6.306 -0.0937 -0.1863  0.0252
  797YOPS   C3A11987   8.153   8.164   6.307 -0.0365  0.1242 -0.0552
  797YOPS   C4A11988   7.702   8.187   6.594 -0.0941 -0.2243  0.0760
  797YOPS   C1B11989   8.300   7.911   5.870 -0.2708  0.1508  0.0771
  797YOPS   C2B11990   8.194   8.329   5.836 -0.2276  0.0247 -0.2096
  797YOPS   D3B11991   8.272   8.787   6.123  0.1965  0.0738 -0.2594
  797YOPS   C4B11992   7.980   9.019   6.379 -0.0451  0.0805  0.2099
  798YOPS   CNO11993   6.309   2.290   4.827 -0.2518  0.0204  0.1694
  798YOPS   PO411994   6.369   2.244   5.302 -0.1234 -0.1763  0.0046
  798YOPS   GL111995   6.415   2.469   5.644 -0.2208 -0.3511 -0.1445
  798YOPS   GL211996   6.161   2.645   5.631  0.0600 -0.0648  0.1385
  798YOPS   C1A11997   6.410   2.716   6.027 -0.2196  0.3225 -0.0892
  798YOPS   D2A11998   6.069   2.629   6.361 -0.1313 -0.2397 -0.1756
  798YOPS   C3A11999   5.669   2.895   6.453  0.1079  0.1474  0.1262
  798YOPS   C4A12000   5.394   2.968   6.058 -0.1581  0.0316  0.0234
  798YOPS   C1B12001   5.847   2.554   5.938 -0.0030 -0.0686  0.0383
  798YOPS   C2B12002   5.488   2.486   6.158  0.1214 -0.0818 -0.0009
  798YOPS   D3B12003   5.323   2.635   6.602 -0.0097 -0.2392 -0.1566
  798YOPS   C4B12004   5.381   2.550   7.132 -0.1265 -0.4381  0.0538
  799YOPS   CNO12005   5.460   3.889   4.971 -0.0360  0.2841 -0.0604
  799YOPS   PO412006   5.002   3.717   5.045  0.0303 -0.0939  0.1073
  799YOPS   GL112007   5.192   3.932   5.432 -0.2143  0.0177  0.1933
  799YOPS   GL212008   5.068   4.342   5.417 -0.0297  0.1199  0.0512
  799YOPS   C1A12009   5.171   4.067   5.816 -0.1171  0.1472 -0.0099
  799YOPS   D2A12010   5.091   4.186   6.240 -0.1185  0.3902 -0.1409
  799YOPS   C3A12011   5.084   4.045   6.631  0.1543 -0.2804  0.0653
  799YOPS   C4A12012   5.317   3.896   6.875  0.0347  0.0718  0.4577
  799YOPS   C1B12013   4.979   4.576   5.801  0.0583  0.0208  0.2432
  799YOPS   C2B12014   5.137   4.776   6.201  0.1252  0.0757 -0.1859
  799YOPS   D3B12015   5.042   4.648   6.580  0.2474  0.1948 -0.2995
  799YOPS   C4B12016   5.238   4.415   6.963  0.2446 -0.4624  0.1394
  800YOPS   CNO12017  11.163   4.248   5.159  0.2006 -0.4097 -0.5910
  800YOPS   PO412018  11.549   4.514   5.086 -0.1370  0.0516  0.1822
  800YOPS   GL112019  11.724   4.534   5.585 -0.1881  0.2039 -0.0414
  800YOPS   GL212020  11.432   4.318   5.660  0.0046 -0.3493  0.0474
  800YOPS   C1A12021  11.808   4.865   5.953 -0.0825 -0.0715 -0.3446
  800YOPS   D2A12022  11.583   5.084   6.273 -0.3066  0.0957  0.0761
  800YOPS   C3A12023  11.589   5.574   6.437  0.0204  0.0220 -0.1924
  800YOPS   C4A12024  11.261   5.639   6.803  0.1080 -0.0060  0.2286
  800YOPS   C1B12025  11.661   3.975   5.879 -0.1425 -0.0397 -0.0694
  800YOPS   C2B12026  11.979   4.316   6.022  0.4349 -0.0175  0.0868
  800YOPS   D3B12027  12.350   4.385   6.154 -0.1358 -0.2784 -0.0255
  800YOPS   C4B12028  12.621   4.405   6.478  0.1855 -0.0783  0.0753
  801YOPS   CNO12029   2.184  13.754   5.055 -0.2331  0.1706 -0.0721
  801YOPS   PO412030   2.553  14.086   5.129  0.1695  0.2539  0.2274
  801YOPS   GL112031   2.769  14.049   5.657 -0.1726  0.1230  0.1950
  801YOPS   GL212032   2.566  13.970   5.857 -0.1143  0.1798  0.2153
  801YOPS   C1A12033   2.988  14.059   6.076 -0.3034 -0.0556 -0.0271
  801YOPS   D2A12034   3.008  13.860   6.510 -0.1304 -0.1919 -0.0517
  801YOPS   C3A12035   2.971  13.526   6.797 -0.1567  0.0921  0.2735
  801YOPS   C4A12036   2.950  13.413   7.174 -0.2739 -0.1157  0.5570
  801YOPS   C1B12037   2.156  13.988   5.976  0.0120  0.1375 -0.7873
  801YOPS   C2B12038   2.030  14.258   6.319 -0.1062 -0.4085 -0.1251
  801YOPS   D3B12039   2.085  14.463   6.651 -0.2342 -0.0316  0.2266
  801YOPS   C4B12040   2.186  14.094   6.975 -0.0608  0.0780 -0.3080
  802YOPS   CNO12041  10.866  13.489   5.404  0.0783  0.1536 -0.0971
  802YOPS   PO412042  10.509  13.541   5.482 -0.0559  0.0002 -0.1055
  802YOPS   GL112043  10.651  13.381   5.961  0.1681  0.0129 -0.2304
  802YOPS   GL212044  10.475  13.197   5.910 -0.0233  0.3370 -0.1132
  802YOPS   C1A12045  10.866  13.387   6.200  0.0879  0.1103 -0.4719
  802YOPS   D2A12046  10.721  13.398   6.556  0.0763 -0.1284 -0.0704
  802YOPS   C3A12047  10.440  13.140   6.809 -0.3291  0.1404 -0.0695
  802YOPS   C4A12048  10.191  12.840   6.737  0.0140 -0.0933 -0.4284
  802YOPS   C1B12049  10.355  13.055   6.296  0.1352 -0.0991  0.0083
  802YOPS   C2B12050  10.044  13.235   6.522 -0.1096  0.1463 -0.0011
  802YOPS   D3B12051   9.832  13.249   6.875  0.1499  0.0765 -0.2806
  802YOPS   C4B12052   9.488  13.450   6.848 -0.1071 -0.0579  0.0294
  803YOPS   CNO12053  12.217  14.415   5.052  0.3461  0.1112  0.0783
  803YOPS   PO412054  12.096  14.158   5.415  0.0256 -0.1526 -0.1806
  803YOPS   GL112055  11.971  13.981   5.868 -0.1582 -0.0210  0.1698
  803YOPS   GL212056  11.746  13.950   5.973  0.0390  0.0585  0.1337
  803YOPS   C1A12057  11.964  14.286   6.272 -0.0187 -0.0117 -0.2775
  803YOPS   D2A12058  11.978  14.255   6.736  0.1037 -0.2145 -0.0387
  803YOPS   C3A12059  11.996  14.591   7.020  0.2305 -0.1514  0.0906
  803YOPS   C4A12060  12.409  14.640   7.226  0.2384  0.2993  0.1485
  803YOPS   C1B12061  11.618  13.953   6.272 -0.0736 -0.0551  0.1158
  803YOPS   C2B12062  11.465  13.998   6.634 -0.1797 -0.0814 -0.2368
  803YOPS   D3B12063  11.312  14.253   6.927 -0.1885 -0.0209 -0.0257
  803YOPS   C4B12064  11.212  14.311   7.294 -0.2743 -0.1421  0.0953
  804YOPS   CNO12065   6.463  10.717   5.276  0.1150  0.1714 -0.3246
  804YOPS   PO412066   6.314  10.412   5.546 -0.2112  0.4921  0.0314
  804YOPS   GL112067   6.189  10.380   5.924  0.1540  0.5226  0.0827
  804YOPS   GL212068   5.910  10.222   5.992 -0.0385  0.4067  0.3370
  804YOPS   C1A12069   6.312  10.500   6.255  0.2698 -0.1226 -0.2137
  804YOPS   D2A12070   6.488  10.384   6.680 -0.0470  0.3546  0.3827
  804YOPS   C3A12071   6.917  10.161   6.666 -0.1840 -0.0134 -0.0014
  804YOPS   C4A12072   6.874   9.918   6.957  0.2334 -0.1113 -0.1776
  804YOPS   C1B12073   5.994  10.142   6.454  0.2614 -0.2748  0.5103
  804YOPS   C2B12074   6.033   9.782   6.657  0.0842  0.1510 -0.5003
  804YOPS   D3B12075   6.063   9.697   7.106 -0.3868 -0.0863 -0.3819
  804YOPS   C4B12076   6.072   9.959   7.501  0.1272  0.0418  0.1353
  805YOPS   CNO12077  10.063   1.711   4.847 -0.0126 -0.3437 -0.0866
  805YOPS   PO412078  10.254   1.542   5.200 -0.3102  0.1072 -0.3253
  805YOPS   GL112079  10.406   1.249   5.547  0.0571 -0.3077 -0.2027
  805YOPS   GL212080  10.681   1.365   5.705  0.0713  0.1789 -0.1823
  805YOPS   C1A12081  10.271   1.176   5.928  0.0502  0.0876  0.2618
  805YOPS   D2A12082  10.101   1.141   6.373 -0.3457 -0.2064 -0.0688
  805YOPS   C3A12083   9.654   0.974   6.391 -0.2124 -0.2299 -0.1008
  805YOPS   C4A12084   9.318   1.070   6.660  0.1262  0.0735 -0.1537
  805YOPS   C1B12085  10.843   1.290   6.148 -0.1477  0.4334 -0.0578
  805YOPS   C2B12086  10.787   1.157   6.642  0.0188  0.0398  0.4315
  805YOPS   D3B12087  10.763   1.050   7.048 -0.0125  0.1254 -0.1972
  805YOPS   C4B12088  10.647   1.400   7.239 -0.3339  0.2679 -0.0982
  806YOPS   CNO12089  13.419   4.531   4.753  0.2251 -0.2095 -0.1911
  806YOPS   PO412090  13.158   4.793   4.911  0.0371  0.2890  0.2203
  806YOPS   GL112091  13.206   4.657   5.284  0.1345  0.1816 -0.0032
  806YOPS   GL212092  13.482   4.512   5.475  0.0905  0.0153 -0.1517
  806YOPS   C1A12093  12.955   4.495   5.689  0.1598  0.1682  0.0791
  806YOPS   D2A12094  12.823   4.512   5.976  0.1230 -0.1077 -0.1358
  806YOPS   C3A12095  12.867   4.822   6.283 -0.0064  0.2550 -0.5266
  806YOPS   C4A12096  12.899   4.810   6.793  0.2605  0.0275 -0.2936
  806YOPS   C1B12097  13.771   4.556   5.856 -0.0906  0.1546 -0.2219
  806YOPS   C2B12098  13.965   4.692   6.257 -0.0944 -0.0745 -0.1916
  806YOPS   D3B12099  14.135   4.820   6.731 -0.1217  0.0406  0.0024
  806YOPS   C4B12100  13.804   4.980   6.914  0.0874  0.2643  0.0017
  807YOPS   CNO12101  10.102  14.682   5.282 -0.3784 -0.0569  0.3257
  807YOPS   PO412102  10.491  14.964   5.371 -0.1159 -0.3002  0.1001
  807YOPS   GL112103  10.694  15.298   5.517  0.1298 -0.6184 -0.2331
  807YOPS   GL212104  10.757  15.584   5.422  0.1880  0.0769  0.1488
  807YOPS   C1A12105  11.152  15.421   5.599 -0.1604  0.1262 -0.1146
  807YOPS   D2A12106  11.597  15.633   5.834  0.0935 -0.1574  0.1192
  807YOPS   C3A12107  11.898  15.599   6.179  0.4340 -0.1446  0.2018
  807YOPS   C4A12108  11.797  15.614   6.589 -0.3351  0.0521 -0.1780
  807YOPS   C1B12109  10.701  15.668   5.909  0.3391 -0.4767  0.1499
  807YOPS   C2B12110  10.445  15.481   6.332  0.0963 -0.1241  0.1854
  807YOPS   D3B12111  10.378  15.197   6.658  0.2610 -0.1774  0.0401
  807YOPS   C4B12112  10.620  15.245   7.017  0.1161  0.1603 -0.0289
  808YOPS   CNO12113   3.799   4.816   5.076 -0.2762 -0.1019 -0.2792
  808YOPS   PO412114   3.542   4.831   5.290 -0.0422  0.0228  0.1800
  808YOPS   GL112115   3.731   4.741   5.641 -0.1896 -0.0415 -0.2826
  808YOPS   GL212116   4.074   4.640   5.548 -0.2391 -0.1382 -0.0724
  808YOPS   C1A12117   4.036   4.677   6.051 -0.2847  0.4830  0.2323
  808YOPS   D2A12118   4.202   4.443   6.296  0.2410 -0.4050 -0.0161
  808YOPS   C3A12119   4.139   4.378   6.730  0.2899  0.2052  0.2193
  808YOPS   C4A12120   4.214   4.483   7.111  0.3141 -0.0503 -0.2625
  808YOPS   C1B12121   4.469   4.745   5.882 -0.1075  0.4750 -0.0598
  808YOPS   C2B12122   4.607   4.744   6.295  0.2167 -0.2191  0.4310
  808YOPS   D3B12123   4.525   4.749   6.748  0.2676 -0.1291 -0.1871
  808YOPS   C4B12124   4.709   4.385   7.016  0.0075  0.3622 -0.0330
  809YOPS   CNO12125  17.335   2.913   4.936 -0.5335 -0.2554  0.3114
  809YOPS   PO412126  17.496   2.730   5.362  0.0578 -0.2017 -0.0595
  809YOPS   GL112127  17.575   2.558   5.788 -0.1093 -0.0394  0.2057
  809YOPS   GL212128  17.464   2.303   5.865 -0.2952  0.1427 -0.0076
  809YOPS   C1A12129  17.665   2.694   6.261  0.0770  0.0594 -0.0335
  809YOPS   D2A12130  17.625   2.949   6.645 -0.0553 -0.3472 -0.2481
  809YOPS   C3A12131  17.412   3.014   6.970 -0.0450  0.0798  0.1047
  809YOPS   C4A12132  17.177   3.336   7.033 -0.2819 -0.0348 -0.1763
  809YOPS   C1B12133  17.441   2.288   6.248 -0.1829 -0.1692  0.1500
  809YOPS   C2B12134  17.821   2.206   6.525  0.2535  0.0987  0.1300
  809YOPS   D3B12135  17.762   2.362   6.953  0.0730  0.2366  0.0802
  809YOPS   C4B12136  17.503   2.548   7.130  0.1009  0.1916 -0.0958
  810YOPS   CNO12137  17.583  10.881   5.153  0.2962  0.0641 -0.2700
  810YOPS   PO412138  17.219  11.040   5.451 -0.0360 -0.1513 -0.0510
  810YOPS   GL112139  17.304  11.230   5.832  0.1580 -0.1997 -0.0318
  810YOPS   GL212140  17.567  11.367   5.936  0.0484 -0.1069 -0.3715
  810YOPS   C1A12141  17.137  11.408   6.157 -0.3231  0.1557  0.1320
  810YOPS   D2A12142  17.226  11.551   6.469  0.0373 -0.2664 -0.1431
  810YOPS   C3A12143  17.474  11.798   6.592 -0.3248 -0.0269  0.0608
  810YOPS   C4A12144  17.608  11.983   7.050  0.2274 -0.1237 -0.0411
  810YOPS   C1B12145  17.681  11.399   6.414  0.0469  0.0334  0.3866
  810YOPS   C2B12146  17.920  11.200   6.661 -0.0580  0.4599 -0.2749
  810YOPS   D3B12147  18.164  11.175   7.020 -0.1037 -0.0103 -0.2741
  810YOPS   C4B12148  18.434  11.450   7.158 -0.2750 -0.1814 -0.1882
  811YOPS   CNO12149  15.224   9.120   5.209 -0.1060 -0.0761 -0.1518
  811YOPS   PO412150  15.182   8.649   5.303  0.0886  0.3111 -0.1023
  811YOPS   GL112151  14.940   8.949   5.596 -0.2064  0.2851  0.1775
  811YOPS   GL212152  14.905   9.229   5.736 -0.3647 -0.2898  0.1467
  811YOPS   C1A12153  15.110   9.008   6.089 -0.0028  0.1039  0.2367
  811YOPS   D2A12154  15.476   8.892   6.352 -0.2060 -0.0413  0.1739
  811YOPS   C3A12155  15.801   8.868   6.683  0.3034  0.2009 -0.2976
  811YOPS   C4A12156  16.067   9.147   7.042 -0.1863 -0.0506  0.1281
  811YOPS   C1B12157  14.872   9.477   6.100  0.0987  0.0410  0.0872
  811YOPS   C2B12158  14.804   9.760   6.453  0.1488  0.2144 -0.2575
  811YOPS   D3B12159  14.688  10.165   6.639  0.1796  0.0864  0.0208
  811YOPS   C4B12160  14.616  10.463   6.410  0.1582  0.1893 -0.0531
  812YOPS   CNO12161  12.147   4.068   5.573 -0.0644  0.5568  0.2502
  812YOPS   PO412162  12.096   3.754   5.363  0.0477 -0.0911 -0.0369
  812YOPS   GL112163  12.359   3.587   5.594 -0.3520  0.2240 -0.0750
  812YOPS   GL212164  12.663   3.479   5.526 -0.0520  0.0858 -0.0021
  812YOPS   C1A12165  12.512   3.786   5.930 -0.3147 -0.1373  0.0286
  812YOPS   D2A12166  12.900   4.068   6.109  0.1102 -0.0420 -0.2233
  812YOPS   C3A12167  13.088   4.348   6.467  0.4916  0.1122  0.2577
  812YOPS   C4A12168  12.961   4.298   6.925 -0.2267 -0.1413 -0.1248
  812YOPS   C1B12169  13.020   3.662   5.809 -0.2087  0.2582  0.1019
  812YOPS   C2B12170  13.316   3.505   6.072  0.0173 -0.0247  0.1034
  812YOPS   D3B12171  13.498   3.345   6.395 -0.2857  0.0913 -0.3030
  812YOPS   C4B12172  13.972   3.344   6.421 -0.1186  0.0606 -0.3751
  813YOPS   CNO12173  10.448  12.316   4.890  0.0045 -0.1323  0.1595
  813YOPS   PO412174  10.730  12.683   5.023 -0.3115 -0.1958  0.0041
  813YOPS   GL112175  10.552  12.545   5.332  0.1198  0.1267 -0.1009
  813YOPS   GL212176  10.337  12.676   5.593  0.3426 -0.3564 -0.0592
  813YOPS   C1A12177  10.760  12.317   5.693  0.1251  0.2624 -0.3748
  813YOPS   D2A12178  11.019  12.327   6.085 -0.3092 -0.0774  0.1293
  813YOPS   C3A12179  11.172  12.326   6.581 -0.1049 -0.0034 -0.2622
  813YOPS   C4A12180  10.937  12.280   7.011 -0.1094  0.0608 -0.2319
  813YOPS   C1B12181  10.312  12.646   6.036 -0.0686 -0.0012 -0.4214
  813YOPS   C2B12182  10.327  12.460   6.423 -0.0852  0.0423  0.1541
  813YOPS   D3B12183  10.484  12.227   6.813  0.1685 -0.0481  0.1986
  813YOPS   C4B12184  10.617  11.824   6.788  0.0857 -0.2528 -0.0161
  814YOPS   CNO12185  13.615  12.944   5.676 -0.0788 -0.0292  0.0563
  814YOPS   PO412186  13.200  12.719   5.556  0.1736 -0.0668 -0.0602
  814YOPS   GL112187  13.013  12.706   5.924 -0.0921  0.1972  0.0980
  814YOPS   GL212188  13.280  12.865   6.151 -0.2180  0.1070  0.1804
  814YOPS   C1A12189  12.781  12.926   6.307  0.3269 -0.5001  0.3520
  814YOPS   D2A12190  12.255  13.075   6.483  0.2523 -0.3916  0.2216
  814YOPS   C3A12191  11.821  13.065   6.689  0.0408 -0.0630 -0.1309
  814YOPS   C4A12192  11.674  13.246   7.036 -0.0103  0.1163 -0.5641
  814YOPS   C1B12193  13.101  12.766   6.637 -0.0707 -0.4482  0.0232
  814YOPS   C2B12194  12.762  12.767   6.821 -0.4342 -0.2564  0.2717
  814YOPS   D3B12195  12.575  13.022   7.110 -0.0656  0.0353  0.1027
  814YOPS   C4B12196  12.819  13.276   7.287  0.2702  0.1474 -0.0024
  815YOPS   CNO12197   7.092   0.054   4.914 -0.1545  0.0696 -0.0953
  815YOPS   PO412198   7.156   0.338   5.269 -0.0499 -0.0131 -0.2425
  815YOPS   GL112199   6.875   0.557   5.498 -0.1389 -0.1243  0.1325
  815YOPS   GL212200   7.021   0.547   5.814 -0.1387 -0.2773  0.0279
  815YOPS   C1A12201   6.577   0.648   5.866 -0.1204  0.0744  0.0774
  815YOPS   D2A12202   6.428   0.847   6.318  0.3202  0.3120 -0.2867
  815YOPS   C3A12203   6.307   1.138   6.720 -0.0630 -0.2245  0.3355
  815YOPS   C4A12204   6.499   1.192   7.143  0.1150  0.0530  0.0588
  815YOPS   C1B12205   7.267   0.477   6.080  0.0479 -0.0219  0.0952
  815YOPS   C2B12206   7.643   0.476   6.018  0.0914  0.1176  0.2169
  815YOPS   D3B12207   7.935   0.918   6.054  0.1200  0.2151 -0.0780
  815YOPS   C4B12208   8.347   0.990   6.213  0.3191  0.3112 -0.2528
  816YOPS   CNO12209   0.660   9.034   5.464  0.0426 -0.1901  0.2502
  816YOPS   PO412210   0.205   9.078   5.417 -0.0134  0.1919  0.0035
  816YOPS   GL112211   0.299   9.384   5.722  0.0771 -0.1082 -0.2821
  816YOPS   GL212212   0.224   9.603   5.828 -0.0382 -0.1859 -0.1591
  816YOPS   C1A12213   0.617   9.358   6.048  0.2887  0.2370  0.1937
  816YOPS   D2A12214   0.708   9.500   6.406  0.1099  0.0390 -0.0912
  816YOPS   C3A12215   1.009   9.268   6.689 -0.2802  0.0548 -0.0457
  816YOPS   C4A12216   0.859   9.355   7.116 -0.0430  0.1177  0.1088
  816YOPS   C1B12217  -0.018   9.405   6.194 -0.2617  0.0941  0.0738
  816YOPS   C2B12218   0.022   9.478   6.671  0.0953 -0.1395 -0.0120
  816YOPS   D3B12219  -0.060   9.896   6.890 -0.2883  0.1187 -0.0134
  816YOPS   C4B12220   0.132  10.211   6.874 -0.0553  0.2105  0.0379
  817YOPS   CNO12221  14.130  18.116   5.198 -0.4157 -0.2140  0.1612
  817YOPS   PO412222  14.237  18.020   5.579  0.0598  0.2239  0.2557
  817YOPS   GL112223  14.326  17.649   5.891  0.2117  0.2020  0.3341
  817YOPS   GL212224  14.161  17.417   5.832 -0.0122  0.1858  0.1536
  817YOPS   C1A12225  14.344  17.635   6.360 -0.2218  0.0747 -0.0791
  817YOPS   D2A12226  14.449  17.716   6.720  0.2051  0.1646 -0.1443
  817YOPS   C3A12227  14.561  18.006   6.792 -0.2836  0.1540 -0.0123
  817YOPS   C4A12228  14.654  18.095   7.172 -0.0233  0.0995 -0.1340
  817YOPS   C1B12229  13.740  17.725   6.057 -0.3518 -0.1565  0.0235
  817YOPS   C2B12230  13.542  17.742   6.448  0.1737 -0.1831  0.1010
  817YOPS   D3B12231  13.674  17.575   6.710 -0.3317  0.0868 -0.0128
  817YOPS   C4B12232  13.987  17.641   7.017 -0.0922 -0.2478 -0.0379
  818YOPS   CNO12233  12.105  17.255   5.463 -0.0385  0.0790 -0.0759
  818YOPS   PO412234  12.504  17.480   5.563 -0.1216  0.1104  0.1852
  818YOPS   GL112235  12.502  17.497   5.993 -0.3218  0.0886 -0.2530
  818YOPS   GL212236  12.238  17.328   5.987 -0.0319 -0.2017  0.1293
  818YOPS   C1A12237  12.810  17.474   6.298 -0.0018 -0.1226  0.1001
  818YOPS   D2A12238  13.091  17.603   6.596 -0.0318 -0.1626  0.3265
  818YOPS   C3A12239  13.299  17.835   6.959 -0.1830 -0.1005 -0.1233
  818YOPS   C4A12240  13.564  17.708   7.267  0.0791 -0.0319 -0.2080
  818YOPS   C1B12241  12.338  17.223   6.385  0.0006  0.2482  0.2312
  818YOPS   C2B12242  12.103  16.987   6.732 -0.2461 -0.1011  0.0151
  818YOPS   D3B12243  11.895  16.981   6.988  0.2124 -0.1201  0.0930
  818YOPS   C4B12244  11.604  16.824   6.981 -0.0101 -0.0659 -0.0995
  819YOPS   CNO12245  19.091  12.762   5.693  0.0654  0.3202  0.3371
  819YOPS   PO412246  18.936  13.180   5.720 -0.3538  0.0463  0.4898
  819YOPS   GL112247  18.783  13.223   6.211  0.0834 -0.0613  0.0670
  819YOPS   GL212248  18.656  13.527   6.227  0.1838 -0.1326 -0.0833
  819YOPS   C1A12249  18.656  13.158   6.552  0.1036 -0.0239  0.2672
  819YOPS   D2A12250  18.839  13.254   7.048  0.2266 -0.3224 -0.0135
  819YOPS   C3A12251  19.064  12.996   7.347  0.3468 -0.1503 -0.1818
  819YOPS   C4A12252  18.930  12.854   7.681 -0.0524 -0.0452 -0.0518
  819YOPS   C1B12253  18.471  13.621   6.666  0.1473 -0.0609  0.0972
  819YOPS   C2B12254  18.437  14.029   6.796  0.1331  0.2489  0.2007
  819YOPS   D3B12255  18.664  14.336   6.936  0.0711 -0.1040  0.1060
  819YOPS   C4B12256  18.802  14.191   7.345 -0.0634  0.0813 -0.1710
  820YOPS   CNO12257   7.847   0.850   5.556 -0.0113 -0.5946 -0.2493
  820YOPS   PO412258   7.641   0.516   5.230  0.1371  0.1000 -0.1397
  820YOPS   GL112259   7.347   0.863   5.472 -0.0334  0.1858  0.1576
  820YOPS   GL212260   7.171   1.092   5.306  0.0024 -0.1487  0.4738
  820YOPS   C1A12261   7.450   0.971   5.795 -0.1380  0.1024  0.1196
  820YOPS   D2A12262   7.485   0.903   6.213  0.0528  0.0198  0.0728
  820YOPS   C3A12263   7.431   0.672   6.511 -0.3207 -0.1271  0.0262
  820YOPS   C4A12264   7.523   0.460   6.786 -0.0892  0.0237  0.3200
  820YOPS   C1B12265   6.934   1.084   5.652  0.2014 -0.2124 -0.0390
  820YOPS   C2B12266   6.799   1.544   5.784  0.0510  0.1094  0.0012
  820YOPS   D3B12267   6.490   1.860   5.852 -0.0744  0.4789 -0.0605
  820YOPS   C4B12268   6.285   2.230   6.125  0.3232  0.1139 -0.2216
  821POPE   NH312269   0.210  10.485   4.909  0.0496  0.0354 -0.0488
  821POPE   PO412270   0.243  10.032   4.984  0.0607  0.2036 -0.0726
  821POPE   GL112271   0.340  10.197   5.410  0.2209  0.1138  0.0329
  821POPE   GL212272   0.262  10.503   5.561  0.1385  0.1210  0.1538
  821POPE   C1A12273   0.013  10.087   5.728  0.1101  0.1978 -0.1250
  821POPE   D2A12274  -0.112   9.928   6.048 -0.1001 -0.3249 -0.0329
  821POPE   C3A12275   0.026   9.933   6.394  0.0024 -0.2453  0.0711
  821POPE   C4A12276   0.425   9.933   6.541 -0.0166  0.2445  0.0997
  821POPE   C1B12277  -0.000  10.618   5.953  0.1321 -0.1964  0.0545
  821POPE   C2B12278  -0.086  10.426   6.364 -0.1467  0.0046 -0.0320
  821POPE   C3B12279  -0.373  10.198   6.648  0.0505 -0.1599 -0.1618
  821POPE   C4B12280  -0.856  10.030   6.696  0.1265 -0.3260  0.0796
  822POPE   NH312281  17.336   7.527   5.282 -0.3114  0.2098  0.1022
  822POPE   PO412282  17.586   7.869   5.116 -0.0758  0.1392  0.2758
  822POPE   GL112283  17.631   7.923   5.531 -0.3816  0.3404  0.3568
  822POPE   GL212284  17.900   8.033   5.542  0.0161  0.0652  0.1126
  822POPE   C1A12285  17.472   7.751   5.886  0.0515 -0.0409 -0.0743
  822POPE   D2A12286  17.532   7.789   6.167 -0.2923 -0.2532 -0.3326
  822POPE   C3A12287  17.603   7.653   6.586 -0.0096 -0.1840  0.3406
  822POPE   C4A12288  17.823   7.425   6.879 -0.1196 -0.0682 -0.2095
  822POPE   C1B12289  17.948   8.008   5.972 -0.0935  0.0162  0.1045
  822POPE   C2B12290  17.904   8.091   6.411 -0.3005  0.1038  0.1798
  822POPE   C3B12291  18.024   7.875   6.791 -0.1767  0.0056  0.0022
  822POPE   C4B12292  18.249   8.134   7.248  0.1245 -0.0468 -0.4037
  823POPE   NH312293   5.876  19.234   5.234 -0.1603 -0.0791  0.1660
  823POPE   PO412294   6.327  19.073   5.196  0.3337  0.0639 -0.0395
  823POPE   GL112295   6.297  19.228   5.584 -0.0664  0.2214 -0.3164
  823POPE   GL212296   6.482  19.400   5.732  0.2642  0.1024 -0.1982
  823POPE   C1A12297   6.074  19.121   5.976 -0.4801  0.2992 -0.0030
  823POPE   D2A12298   5.875  18.989   6.291 -0.0381 -0.0392 -0.1697
  823POPE   C3A12299   6.034  18.802   6.652  0.1615 -0.1954 -0.1347
  823POPE   C4A12300   5.993  18.885   7.082 -0.3044  0.0230  0.1289
  823POPE   C1B12301   6.534  19.164   6.063  0.0677  0.0006 -0.1756
  823POPE   C2B12302   6.825  19.209   6.454 -0.0316  0.1228 -0.0134
  823POPE   C3B12303   7.158  19.144   6.790 -0.2603  0.0056  0.1647
  823POPE   C4B12304   7.439  18.851   7.012 -0.0078  0.0011 -0.1455
  824POPE   NH312305  14.414  11.779   5.010 -0.0449  0.1222  0.2888
  824POPE   PO412306  14.328  11.911   5.484 -0.1358 -0.1442  0.0834
  824POPE   GL112307  14.172  11.881   5.879  0.1935  0.2988  0.0624
  824POPE   GL212308  14.135  12.206   6.034  0.1597 -0.1774 -0.2061
  824POPE   C1A12309  14.582  11.973   6.192 -0.2057 -0.1168  0.0003
  824POPE   D2A12310  14.736  12.200   6.531 -0.2180  0.2556  0.2417
  824POPE   C3A12311  15.155  12.289   6.637  0.1223 -0.0537  0.1130
  824POPE   C4A12312  15.367  12.281   7.054 -0.1121 -0.3167  0.0300
  824POPE   C1B12313  14.418  12.436   5.993  0.0725  0.2092 -0.0446
  824POPE   C2B12314  14.723  12.606   6.228 -0.1596 -0.1894 -0.2038
  824POPE   C3B12315  14.978  12.700   6.558  0.0327 -0.1578  0.2044
  824POPE   C4B12316  14.868  12.673   6.960 -0.0363 -0.2724  0.1549
  825POPE   NH312317  18.496   0.689   5.464 -0.0903  0.0480  0.3129
  825POPE   PO412318  18.291   1.107   5.313 -0.1835 -0.0205  0.3875
  825POPE   GL112319  18.430   1.074   5.782 -0.2850  0.0981 -0.3513
  825POPE   GL212320  18.623   1.263   5.951 -0.0066 -0.1257  0.2746
  825POPE   C1A12321  18.116   1.079   6.109  0.0462  0.2353  0.1906
  825POPE   D2A12322  18.086   1.124   6.601 -0.1959  0.1691 -0.0163
  825POPE   C3A12323  18.228   0.839   6.886 -0.2160  0.1149  0.1262
  825POPE   C4A12324  18.642   0.689   7.036  0.1829  0.0645  0.0405
  825POPE   C1B12325  18.476   1.444   6.296 -0.2422 -0.1755 -0.1908
  825POPE   C2B12326  18.280   1.561   6.760 -0.0401  0.2309 -0.0136
  825POPE   C3B12327  18.153   1.299   7.072 -0.2835 -0.0536  0.0800
  825POPE   C4B12328  18.304   1.006   7.343  0.1208 -0.0770 -0.2130
  826POPE   NH312329  12.732   5.059   4.870 -0.1393  0.0053 -0.0592
  826POPE   PO412330  12.344   4.882   4.830  0.0052  0.1493 -0.2095
  826POPE   GL112331  12.478   4.656   5.127  0.0956 -0.0284 -0.0539
  826POPE   GL212332  12.732   4.595   5.219 -0.1833 -0.4027  0.1222
  826POPE   C1A12333  12.310   4.613   5.616 -0.1220  0.2515  0.1614
  826POPE   D2A12334  12.272   4.972   5.835 -0.4075 -0.1764  0.0107
  826POPE   C3A12335  12.319   4.892   6.219 -0.1006 -0.3001 -0.1616
  826POPE   C4A12336  12.438   4.936   6.678  0.6603 -0.0672 -0.0681
  826POPE   C1B12337  12.746   4.969   5.583  0.1043  0.0319 -0.0826
  826POPE   C2B12338  13.073   5.217   5.786 -0.1091 -0.0844  0.0100
  826POPE   C3B12339  13.391   5.221   6.075 -0.5413  0.0105 -0.2752
  826POPE   C4B12340  13.683   5.092   6.439 -0.2886 -0.4709  0.4101
  827POPE   NH312341   3.726  18.766   5.696  0.0304  0.2459 -0.1938
  827POPE   PO412342   3.677  19.213   5.544  0.1680  0.1434 -0.1506
  827POPE   GL112343   3.918  19.260   5.882 -0.1214  0.1040 -0.2018
  827POPE   GL212344   3.900  18.954   6.093  0.0633  0.1089 -0.0295
  827POPE   C1A12345   3.819  19.513   6.241  0.3963  0.2359  0.0463
  827POPE   D2A12346   3.877  19.558   6.695  0.2887 -0.2106  0.0969
  827POPE   C3A12347   3.575  19.294   6.910  0.1085 -0.1294 -0.0708
  827POPE   C4A12348   3.505  18.859   6.889  0.1556  0.0640  0.2672
  827POPE   C1B12349   3.849  19.015   6.537  0.1851  0.0596 -0.2519
  827POPE   C2B12350   4.064  19.083   6.870 -0.1439  0.1498  0.5479
  827POPE   C3B12351   4.288  18.910   7.186 -0.0263 -0.1620 -0.2226
  827POPE   C4B12352   4.576  18.556   6.976 -0.2026 -0.0295 -0.0553
  828POPE   NH312353   1.153  11.666   5.438 -0.3662 -0.1278  0.1689
  828POPE   PO412354   0.991  11.357   5.627 -0.0991 -0.0673 -0.3601
  828POPE   GL112355   1.248  11.248   5.942  0.3275  0.0930 -0.1625
  828POPE   GL212356   1.481  10.965   5.895 -0.0987  0.0362 -0.0485
  828POPE   C1A12357   1.278  11.179   6.320 -0.1338 -0.4783 -0.0515
  828POPE   D2A12358   1.218  11.341   6.736 -0.1823 -0.1613 -0.1962
  828POPE   C3A12359   1.033  11.133   7.059  0.4035  0.0071 -0.0342
  828POPE   C4A12360   1.126  10.802   7.324 -0.1038  0.1713 -0.0381
  828POPE   C1B12361   1.485  10.697   6.283 -0.1595 -0.2771  0.0934
  828POPE   C2B12362   1.532  10.604   6.756  0.3573 -0.2367  0.1893
  828POPE   C3B12363   1.605  10.572   7.200 -0.0719 -0.1268  0.0200
  828POPE   C4B12364   1.440  10.416   7.566  0.1533 -0.0413  0.0055
  829POPE   NH312365   4.668  17.367   5.319  0.0771 -0.0891 -0.0555
  829POPE   PO412366   4.255  17.179   5.383 -0.1346  0.1203  0.0414
  829POPE   GL112367   4.514  16.984   5.709  0.1780 -0.0335 -0.1703
  829POPE   GL212368   4.733  17.195   5.802  0.1958 -0.0044 -0.3219
  829POPE   C1A12369   4.631  16.725   6.051  0.0569  0.0647 -0.2118
  829POPE   D2A12370   4.992  16.602   6.270  0.0393  0.2076  0.1532
  829POPE   C3A12371   4.946  16.222   6.562  0.2165  0.0373  0.0736
  829POPE   C4A12372   4.969  16.381   7.024 -0.0729  0.2762 -0.3556
  829POPE   C1B12373   4.971  17.417   6.071 -0.1091 -0.3722 -0.1081
  829POPE   C2B12374   5.080  17.616   6.411  0.1135  0.0549  0.2382
  829POPE   C3B12375   5.112  17.789   6.796  0.3386 -0.0752  0.0334
  829POPE   C4B12376   4.890  17.656   7.254 -0.0218  0.2241  0.1122
  830POPE   NH312377  10.733   1.262   5.096 -0.1940  0.2980  0.3768
  830POPE   PO412378  10.847   0.914   5.438  0.1534  0.0741  0.0730
  830POPE   GL112379  10.985   0.806   5.758  0.1163  0.4886 -0.0285
  830POPE   GL212380  10.736   0.880   5.968 -0.1446 -0.3402 -0.0447
  830POPE   C1A12381  11.388   0.866   6.081 -0.0825 -0.0558 -0.1530
  830POPE   D2A12382  11.356   1.020   6.474  0.1289 -0.3087  0.0752
  830POPE   C3A12383  11.705   1.093   6.729  0.2437  0.0316 -0.1151
  830POPE   C4A12384  12.079   1.113   7.063 -0.4404 -0.4162 -0.1307
  830POPE   C1B12385  11.014   0.702   6.301 -0.0250 -0.0872  0.0544
  830POPE   C2B12386  10.992   0.600   6.701 -0.0252 -0.1317 -0.0907
  830POPE   C3B12387  10.657   0.543   7.172 -0.4635  0.1286 -0.1838
  830POPE   C4B12388  10.322   0.471   7.483  0.0259 -0.2471 -0.0721
  831POPE   NH312389  14.025  14.099   5.553 -0.1017 -0.0363  0.2280
  831POPE   PO412390  13.613  14.284   5.464 -0.2318 -0.1656  0.1062
  831POPE   GL112391  13.398  14.559   5.818 -0.1325 -0.2824 -0.1527
  831POPE   GL212392  13.295  14.301   5.969 -0.0708 -0.0028 -0.2793
  831POPE   C1A12393  13.378  14.861   6.133 -0.4217  0.1107  0.1819
  831POPE   D2A12394  13.439  15.183   6.497 -0.1056 -0.2689  0.1223
  831POPE   C3A12395  13.817  15.297   6.561 -0.1956 -0.0486  0.5022
  831POPE   C4A12396  14.048  15.613   6.366  0.2927  0.1905  0.0713
  831POPE   C1B12397  13.366  13.905   6.266  0.0723 -0.0417 -0.0942
  831POPE   C2B12398  13.407  13.735   6.590 -0.3307  0.0897 -0.0747
  831POPE   C3B12399  13.137  13.571   6.906 -0.3942  0.2103 -0.0342
  831POPE   C4B12400  12.853  13.273   6.779  0.3210  0.0334  0.3133
  832POPE   NH312401  10.026   9.675   5.548 -0.3893 -0.2783  0.1952
  832POPE   PO412402   9.819   9.240   5.574 -0.2341  0.1434 -0.0192
  832POPE   GL112403   9.636   9.271   5.977  0.1550  0.2831  0.0211
  832POPE   GL212404   9.367   9.452   5.922 -0.2119 -0.2333  0.0527
  832POPE   C1A12405   9.573   8.928   6.321 -0.0206  0.0525  0.1332
  832POPE   D2A12406   9.421   8.550   6.646  0.0605  0.0765 -0.1012
  832POPE   C3A12407   9.796   8.271   6.888  0.0286  0.1276  0.4560
  832POPE   C4A12408  10.127   8.415   7.188 -0.2660 -0.0035 -0.1168
  832POPE   C1B12409   9.213   9.407   6.398 -0.1605 -0.1348 -0.2678
  832POPE   C2B12410   9.158   9.069   6.708  0.0016  0.0364  0.0131
  832POPE   C3B12411   9.142   9.250   7.171 -0.3748 -0.3348 -0.5562
  832POPE   C4B12412   9.562   9.186   7.350  0.0156 -0.1711 -0.0897
  833POPE   NH312413  11.592  18.668   5.357 -0.1804  0.0013 -0.0301
  833POPE   PO412414  12.051  18.514   5.526 -0.2894  0.0155 -0.0009
  833POPE   GL112415  12.260  18.290   5.935 -0.0847  0.2238 -0.0428
  833POPE   GL212416  12.516  18.349   6.034  0.0096  0.2410  0.1346
  833POPE   C1A12417  12.275  17.958   6.227 -0.3517  0.0299 -0.4341
  833POPE   D2A12418  12.360  17.709   6.639 -0.2073  0.3045 -0.1920
  833POPE   C3A12419  12.768  17.828   6.909  0.0184 -0.2510 -0.3844
  833POPE   C4A12420  13.001  17.528   7.283 -0.0234  0.1305  0.0681
  833POPE   C1B12421  12.279  18.418   6.508 -0.1683  0.0550 -0.2834
  833POPE   C2B12422  12.391  18.138   6.807 -0.1871  0.2140  0.1577
  833POPE   C3B12423  12.207  17.864   7.103 -0.0290  0.1865 -0.0617
  833POPE   C4B12424  12.554  17.902   7.375  0.0686 -0.1057 -0.0359
  834POPE   NH312425   6.557  13.558   5.016 -0.3102 -0.4029  0.1501
  834POPE   PO412426   6.515  13.365   5.403  0.1368 -0.2533  0.1078
  834POPE   GL112427   6.301  13.492   5.813 -0.1461 -0.0575  0.0839
  834POPE   GL212428   6.519  13.375   5.981 -0.1481 -0.1534 -0.3736
  834POPE   C1A12429   5.985  13.625   6.090 -0.1262 -0.2014 -0.0850
  834POPE   D2A12430   5.762  13.987   6.219 -0.0237  0.4295 -0.0895
  834POPE   C3A12431   5.277  13.908   6.329 -0.2434 -0.2225  0.1164
  834POPE   C4A12432   4.859  13.927   6.177 -0.3808  0.1128 -0.0664
  834POPE   C1B12433   6.218  13.205   6.267  0.1723  0.0528  0.1319
  834POPE   C2B12434   6.142  13.378   6.594  0.1049  0.0957  0.1082
  834POPE   C3B12435   6.302  13.461   6.905 -0.0434 -0.3959 -0.2511
  834POPE   C4B12436   6.525  13.220   7.140 -0.0607 -0.3070  0.4433
  835POPE   NH312437  14.379  14.827   5.236  0.3609 -0.1669 -0.0589
  835POPE   PO412438  13.956  14.968   5.583 -0.2062  0.1421 -0.4495
  835POPE   GL112439  14.133  14.813   5.918 -0.1202 -0.1676  0.1577
  835POPE   GL212440  13.908  14.624   5.969  0.1643  0.0307 -0.1100
  835POPE   C1A12441  14.309  15.010   6.244 -0.0437  0.2451  0.1426
  835POPE   D2A12442  14.257  14.925   6.682  0.0089 -0.0136 -0.0164
  835POPE   C3A12443  14.395  15.131   6.950 -0.1596  0.2036 -0.0231
  835POPE   C4A12444  14.658  15.377   7.204  0.0065  0.1634 -0.3625
  835POPE   C1B12445  13.803  14.808   6.415 -0.1138 -0.0992  0.0259
  835POPE   C2B12446  13.780  14.677   6.811 -0.0319 -0.0340  0.0360
  835POPE   C3B12447  13.660  14.591   7.333 -0.4026 -0.0388 -0.3456
  835POPE   C4B12448  13.688  14.879   7.583 -0.0479 -0.0450  0.2654
  836POPE   NH312449   3.338   9.473   5.391 -0.0363  0.1304  0.1842
  836POPE   PO412450   2.858   9.651   5.410  0.2439  0.3129  0.0603
  836POPE   GL112451   2.837   9.898   5.762 -0.0577 -0.2029 -0.2010
  836POPE   GL212452   2.582   9.795   5.896  0.1862  0.2211 -0.1222
  836POPE   C1A12453   2.936  10.010   6.263 -0.2958 -0.0909  0.0724
  836POPE   D2A12454   3.136   9.847   6.698  0.0324 -0.1224 -0.0830
  836POPE   C3A12455   3.288   9.978   7.070  0.1795 -0.2240 -0.0526
  836POPE   C4A12456   3.618  10.162   7.367 -0.2666 -0.0356  0.1119
  836POPE   C1B12457   2.645   9.602   6.230  0.0761 -0.3165  0.0623
  836POPE   C2B12458   2.714   9.581   6.554 -0.0222 -0.0085 -0.0973
  836POPE   C3B12459   2.741   9.338   6.766 -0.1898  0.2257  0.1991
  836POPE   C4B12460   2.932   9.039   7.035 -0.0626 -0.1871 -0.3889
  837POPE   NH312461  10.436   0.293   5.459 -0.2347 -0.1651 -0.0529
  837POPE   PO412462  10.838   0.342   5.367 -0.0019 -0.2453  0.3156
  837POPE   GL112463  11.073   0.174   5.706  0.1284  0.3628  0.0221
  837POPE   GL212464  11.270   0.410   5.622 -0.0953 -0.1098 -0.2565
  837POPE   C1A12465  11.040   0.239   6.128 -0.1086 -0.1169  0.0557
  837POPE   D2A12466  11.270   0.148   6.482  0.0898  0.1486  0.1821
  837POPE   C3A12467  11.068  -0.200   6.638 -0.2613 -0.1408  0.1898
  837POPE   C4A12468  11.036  -0.640   6.622  0.0776 -0.2247 -0.2604
  837POPE   C1B12469  11.564   0.481   5.822 -0.1669  0.0594 -0.0669
  837POPE   C2B12470  11.627   0.351   6.230 -0.1496  0.1466 -0.3503
  837POPE   C3B12471  11.512   0.587   6.574 -0.0816 -0.0067 -0.1214
  837POPE   C4B12472  11.429   0.389   7.052 -0.0827 -0.2344  0.2133
  838POPE   NH312473   1.075   7.301   5.237  0.2390 -0.1802  0.1759
  838POPE   PO412474   1.462   7.643   5.246 -0.1146 -0.0036  0.1717
  838POPE   GL112475   1.732   7.819   5.609  0.1922  0.0193  0.0756
  838POPE   GL212476   1.372   7.982   5.811 -0.1667 -0.0344 -0.1063
  838POPE   C1A12477   1.755   7.852   6.125  0.1666 -0.2157 -0.2411
  838POPE   D2A12478   1.510   7.909   6.621  0.0879  0.1582  0.0890
  838POPE   C3A12479   1.650   8.131   7.044 -0.2618  0.0823  0.4508
  838POPE   C4A12480   1.904   8.407   7.294 -0.3783 -0.1608 -0.1674
  838POPE   C1B12481   1.157   7.941   6.213 -0.2517  0.0744  0.0369
  838POPE   C2B12482   1.215   8.216   6.665 -0.0760 -0.2280 -0.0327
  838POPE   C3B12483   1.065   8.323   7.116 -0.0862 -0.3707 -0.1120
  838POPE   C4B12484   0.765   8.306   7.374  0.2132  0.0952  0.0851
  839POPE   NH312485   6.307   9.014   5.188  0.0725 -0.1307 -0.0775
  839POPE   PO412486   6.704   8.895   4.948  0.1325 -0.2169  0.0104
  839POPE   GL112487   6.642   8.710   5.429 -0.0704 -0.2293  0.1403
  839POPE   GL212488   6.421   8.820   5.658 -0.0060 -0.1195  0.2552
  839POPE   C1A12489   6.795   8.353   5.707  0.0323  0.3258  0.2192
  839POPE   D2A12490   7.099   8.292   5.912 -0.3236  0.0424  0.2458
  839POPE   C3A12491   7.489   8.273   6.113  0.1795  0.2638  0.1467
  839POPE   C4A12492   7.849   8.582   6.255  0.0538  0.4063 -0.0089
  839POPE   C1B12493   6.363   8.469   5.942  0.1653  0.1180  0.0270
  839POPE   C2B12494   6.457   8.213   6.289  0.1565  0.1095 -0.1895
  839POPE   C3B12495   6.682   8.215   6.826 -0.2247  0.2328  0.2257
  839POPE   C4B12496   6.952   8.254   7.190 -0.1050  0.1233  0.1870
  840POPE   NH312497  12.825   0.772   5.764  0.0429  0.3517  0.0131
  840POPE   PO412498  12.519   0.462   5.547  0.6054 -0.2994 -0.3014
  840POPE   GL112499  12.528   0.272   5.993 -0.0879  0.1208 -0.1055
  840POPE   GL212500  12.348  -0.090   6.061  0.2350 -0.0082 -0.3185
  840POPE   C1A12501  12.660   0.189   6.385 -0.3372  0.0949 -0.0101
  840POPE   D2A12502  12.546   0.012   6.732 -0.2121 -0.0058 -0.3184
  840POPE   C3A12503  12.061  -0.018   6.769  0.1496  0.0895 -0.1465
  840POPE   C4A12504  11.677   0.128   6.704  0.2500 -0.3405  0.2388
  840POPE   C1B12505  12.247  -0.274   6.362  0.0701 -0.2136 -0.1118
  840POPE   C2B12506  12.149  -0.518   6.775  0.3198 -0.1666 -0.0341
  840POPE   C3B12507  12.208  -0.822   7.053  0.0063 -0.0536  0.1709
  840POPE   C4B12508  11.859  -0.780   7.251 -0.1769 -0.0427  0.1253
  841POPE   NH312509  10.120  13.076   5.574  0.1461 -0.3397  0.0837
  841POPE   PO412510   9.731  12.920   5.450  0.0118 -0.0468 -0.2165
  841POPE   GL112511   9.890  12.588   5.796 -0.0246  0.0329  0.1117
  841POPE   GL212512   9.981  12.301   5.763 -0.1792 -0.0391  0.1686
  841POPE   C1A12513   9.865  12.631   6.285 -0.2714 -0.1717 -0.1389
  841POPE   D2A12514   9.884  12.448   6.721 -0.0351  0.3896 -0.1351
  841POPE   C3A12515  10.133  12.412   7.074 -0.1182 -0.1235 -0.2673
  841POPE   C4A12516  10.033  12.549   7.553 -0.0749  0.1283 -0.1790
  841POPE   C1B12517  10.114  12.207   6.111  0.2505 -0.0899  0.2970
  841POPE   C2B12518  10.580  12.126   6.200 -0.0526 -0.2127 -0.1734
  841POPE   C3B12519  11.098  11.867   6.274  0.0788 -0.1090 -0.1014
  841POPE   C4B12520  11.311  11.413   6.381  0.1011  0.1449 -0.1274
  842POPE   NH312521   6.212  14.402   5.388  0.2781  0.0621  0.6365
  842POPE   PO412522   5.753  14.549   5.359 -0.0003 -0.1264 -0.2828
  842POPE   GL112523   5.675  14.891   5.713 -0.1580  0.0951  0.1150
  842POPE   GL212524   5.466  15.132   5.636 -0.2187  0.0632  0.2389
  842POPE   C1A12525   5.549  14.909   6.246  0.3020  0.0226 -0.1704
  842POPE   D2A12526   5.433  14.572   6.481  0.2044 -0.1912 -0.1784
  842POPE   C3A12527   5.608  14.161   6.696  0.0792 -0.1934 -0.0459
  842POPE   C4A12528   5.500  13.636   6.769  0.1836  0.1035  0.1003
  842POPE   C1B12529   5.145  15.292   6.008  0.0942  0.3322 -0.2745
  842POPE   C2B12530   5.000  15.429   6.367 -0.0682 -0.0347  0.3068
  842POPE   C3B12531   4.818  15.271   6.774  0.0320 -0.1792  0.0622
  842POPE   C4B12532   4.738  15.205   7.197 -0.0648  0.0421  0.1310
  843POPE   NH312533  15.592  14.953   5.791 -0.3212  0.0187 -0.2742
  843POPE   PO412534  15.440  14.450   5.929  0.1982  0.3057 -0.3691
  843POPE   GL112535  15.703  14.437   6.307  0.0153 -0.1344 -0.2588
  843POPE   GL212536  15.845  14.147   6.455 -0.1986  0.0909 -0.1958
  843POPE   C1A12537  15.494  14.523   6.723 -0.2162 -0.0410  0.1748
  843POPE   D2A12538  15.201  14.559   6.988  0.0421  0.0929  0.2049
  843POPE   C3A12539  15.090  14.394   7.387  0.0399  0.1621 -0.0272
  843POPE   C4A12540  14.782  14.133   7.535 -0.1546  0.3277 -0.2709
  843POPE   C1B12541  16.132  13.989   6.777 -0.1086 -0.0971 -0.0540
  843POPE   C2B12542  16.485  14.068   7.029 -0.0444 -0.0517  0.2777
  843POPE   C3B12543  16.573  13.986   7.378  0.2030 -0.0623 -0.0626
  843POPE   C4B12544  16.848  14.304   7.655 -0.0479  0.1820  0.0798
  844POPE   NH312545   4.912  11.414   4.572 -0.0593  0.3563 -0.2989
  844POPE   PO412546   4.820  11.298   4.963  0.1088  0.0648 -0.2279
  844POPE   GL112547   4.733  11.154   5.402 -0.2167  0.1765  0.2033
  844POPE   GL212548   4.745  10.785   5.397 -0.4900  0.0589  0.3688
  844POPE   C1A12549   4.714  11.379   5.749 -0.2984  0.3278  0.1810
  844POPE   D2A12550   5.063  11.610   6.048  0.3609  0.0077  0.0630
  844POPE   C3A12551   5.188  11.553   6.468  0.0694  0.1737  0.1051
  844POPE   C4A12552   5.185  11.291   6.823 -0.0293 -0.0803 -0.3813
  844POPE   C1B12553   4.748  10.826   5.822 -0.0281 -0.1049  0.4368
  844POPE   C2B12554   4.450  11.076   6.102 -0.0153  0.0227 -0.0275
  844POPE   C3B12555   4.171  11.315   6.187  0.0285 -0.0470 -0.1521
  844POPE   C4B12556   4.162  11.736   6.322 -0.0628  0.0494  0.5503
  845POPE   NH312557  18.762  16.927   5.493  0.0593 -0.1329  0.1793
  845POPE   PO412558  18.678  17.230   5.715 -0.0336 -0.1861 -0.1302
  845POPE   GL112559  18.781  17.389   6.119 -0.0825  0.1310  0.3606
  845POPE   GL212560  19.098  17.391   6.273 -0.1875 -0.0180 -0.0797
  845POPE   C1A12561  18.509  17.571   6.361 -0.3539  0.0227  0.0798
  845POPE   D2A12562  18.192  17.606   6.665 -0.1412  0.0011 -0.1250
  845POPE   C3A12563  18.109  17.269   7.084  0.0421  0.1994 -0.1141
  845POPE   C4A12564  17.885  17.264   7.409  0.0483  0.3837  0.1601
  845POPE   C1B12565  18.900  17.384   6.635 -0.1326  0.0072 -0.1274
  845POPE   C2B12566  18.958  17.242   7.095 -0.2025 -0.2902 -0.1301
  845POPE   C3B12567  19.056  16.960   7.501 -0.0822  0.0475 -0.0994
  845POPE   C4B12568  19.349  16.787   7.610 -0.0844  0.0400 -0.2934
  846POPE   NH312569  18.787  17.747   5.671  0.0779  0.1459  0.1072
  846POPE   PO412570  18.538  18.044   5.858 -0.0866 -0.1299  0.6645
  846POPE   GL112571  18.656  18.349   6.099 -0.1762  0.0683 -0.1447
  846POPE   GL212572  19.016  18.327   6.037  0.0377  0.0066  0.1932
  846POPE   C1A12573  18.772  18.460   6.427 -0.1792  0.0434  0.1047
  846POPE   D2A12574  18.838  18.643   6.791 -0.2347  0.1409 -0.4185
  846POPE   C3A12575  18.732  18.407   7.205  0.3896 -0.0781 -0.0631
  846POPE   C4A12576  18.686  18.123   7.433 -0.0217  0.1548 -0.1646
  846POPE   C1B12577  19.338  18.138   6.090  0.0346  0.3942 -0.1231
  846POPE   C2B12578  19.618  18.029   6.483  0.1704  0.0629 -0.0982
  846POPE   C3B12579  19.781  18.448   6.770 -0.1068  0.0424 -0.1436
  846POPE   C4B12580  19.932  18.834   6.864  0.1699  0.0714  0.0737
  847POPE   NH312581   3.482  10.414   5.435 -0.2006 -0.0535  0.3143
  847POPE   PO412582   3.901  10.450   5.469  0.1641  0.0699 -0.2131
  847POPE   GL112583   3.745  10.037   5.790  0.1738  0.0968  0.0427
  847POPE   GL212584   3.747   9.722   5.565 -0.0255 -0.0177 -0.2479
  847POPE   C1A12585   3.868  10.149   6.306 -0.0049 -0.0498  0.1028
  847POPE   D2A12586   4.329  10.228   6.703  0.0651 -0.0086  0.0608
  847POPE   C3A12587   4.557  10.033   7.076  0.1034  0.0639  0.1870
  847POPE   C4A12588   4.811  10.136   7.395  0.1462  0.1023  0.5974
  847POPE   C1B12589   3.664   9.567   5.931  0.0057 -0.1079  0.0701
  847POPE   C2B12590   3.663   9.610   6.317 -0.1103  0.1833 -0.1583
  847POPE   C3B12591   3.645   9.833   6.775  0.2200 -0.0943 -0.0973
  847POPE   C4B12592   3.774  10.187   6.951  0.3992  0.0386 -0.0912
  848POPE   NH312593   3.453   2.178   5.387  0.0049 -0.1272  0.1045
  848POPE   PO412594   3.817   2.051   5.411  0.1103 -0.1692  0.1632
  848POPE   GL112595   3.683   1.971   5.787 -0.2256 -0.2307  0.2393
  848POPE   GL212596   3.325   1.982   5.837 -0.0734 -0.1658  0.0401
  848POPE   C1A12597   3.611   1.612   6.092 -0.3911 -0.0746  0.0102
  848POPE   D2A12598   3.555   1.304   6.371 -0.3576 -0.0191  0.0040
  848POPE   C3A12599   3.267   1.395   6.637  0.0473  0.1535 -0.2269
  848POPE   C4A12600   3.086   1.593   6.978 -0.1502  0.0686  0.0672
  848POPE   C1B12601   3.322   2.475   6.039 -0.1750 -0.0725 -0.0222
  848POPE   C2B12602   3.278   2.611   6.420  0.1915  0.2377 -0.0231
  848POPE   C3B12603   2.971   3.011   6.676  0.3030 -0.0528 -0.1272
  848POPE   C4B12604   2.681   3.243   6.984  0.0303  0.1876 -0.2384
  849POPE   NH312605   0.139   8.683   5.055 -0.2250  0.4231  0.1906
  849POPE   PO412606  -0.274   8.500   5.111  0.3428 -0.1128 -0.1433
  849POPE   GL112607  -0.298   8.637   5.577  0.0961  0.1508  0.0928
  849POPE   GL212608  -0.130   8.934   5.794 -0.2163  0.0367  0.2543
  849POPE   C1A12609  -0.383   8.568   5.981 -0.0058  0.2945  0.0693
  849POPE   D2A12610  -0.580   8.606   6.412 -0.1486  0.2254 -0.3644
  849POPE   C3A12611  -0.761   8.402   6.816 -0.0175  0.3548 -0.2401
  849POPE   C4A12612  -0.724   8.473   7.253 -0.0896 -0.0626  0.1032
  849POPE   C1B12613   0.212   8.865   6.000  0.1459  0.4489  0.3716
  849POPE   C2B12614   0.452   8.529   6.265  0.0988 -0.0340 -0.2919
  849POPE   C3B12615   0.311   8.436   6.730 -0.1797  0.1885 -0.1545
  849POPE   C4B12616   0.305   8.449   7.152 -0.0300  0.0559  0.2479
  850POPE   NH312617   5.816  12.508   5.304  0.3542 -0.5122 -0.3348
  850POPE   PO412618   5.607  12.978   5.384 -0.0885  0.0511  0.1571
  850POPE   GL112619   5.502  12.650   5.675 -0.1476 -0.1864 -0.0077
  850POPE   GL212620   5.372  12.431   5.522 -0.0804 -0.0581  0.0662
  850POPE   C1A12621   5.378  12.653   6.088 -0.0774 -0.5798 -0.0283
  850POPE   D2A12622   5.517  12.745   6.515 -0.2577 -0.1028  0.0391
  850POPE   C3A12623   5.645  13.173   6.558  0.0732  0.1412 -0.1344
  850POPE   C4A12624   5.492  13.457   6.292 -0.0289 -0.2344  0.2036
  850POPE   C1B12625   4.992  12.591   5.744  0.0489  0.0663 -0.0114
  850POPE   C2B12626   4.859  12.804   6.089  0.4667 -0.0331  0.1936
  850POPE   C3B12627   5.016  12.668   6.456  0.2989  0.1038  0.1197
  850POPE   C4B12628   5.180  12.498   6.838 -0.2522 -0.1329 -0.0225
  851YOPE   NH312629   7.454  13.724   5.651  0.2376  0.1103  0.0843
  851YOPE   PO412630   7.251  14.016   5.611  0.3712  0.2876  0.0307
  851YOPE   GL112631   7.081  14.236   5.993  0.1671  0.1499  0.0687
  851YOPE   GL212632   6.988  14.480   6.030 -0.0330 -0.1131 -0.2726
  851YOPE   C1A12633   6.975  14.213   6.452 -0.1572  0.2108 -0.1041
  851YOPE   D2A12634   6.686  14.176   6.823 -0.0400 -0.0605 -0.1674
  851YOPE   C3A12635   6.279  14.353   7.039  0.1532  0.1175 -0.3052
  851YOPE   C4A12636   6.205  14.350   7.504  0.1892  0.1879 -0.1962
  851YOPE   C1B12637   6.965  14.940   6.090  0.1652  0.1136  0.1232
  851YOPE   C2B12638   7.109  15.223   6.410 -0.0519 -0.0659 -0.0084
  851YOPE   D3B12639   7.033  15.455   6.821 -0.0943  0.1674 -0.5632
  851YOPE   C4B12640   6.725  15.596   7.011  0.0579  0.0769  0.0192
  852YOPE   NH312641  11.859  18.028   5.522  0.0536  0.0123 -0.1039
  852YOPE   PO412642  11.841  17.650   5.593  0.0153  0.2372 -0.1224
  852YOPE   GL112643  11.627  17.759   5.865 -0.3313  0.2084  0.0520
  852YOPE   GL212644  11.833  17.980   6.034  0.2598 -0.3229  0.3308
  852YOPE   C1A12645  11.414  17.562   6.172 -0.0439  0.1723 -0.2041
  852YOPE   D2A12646  11.463  17.212   6.342  0.3218  0.3390  0.0156
  852YOPE   C3A12647  11.212  16.975   6.570 -0.1721  0.2432 -0.0779
  852YOPE   C4A12648  10.891  16.726   6.618  0.1335  0.2916 -0.2226
  852YOPE   C1B12649  11.871  18.073   6.509  0.1146 -0.2634  0.0223
  852YOPE   C2B12650  11.860  18.228   6.903  0.2439  0.0595  0.0447
  852YOPE   D3B12651  11.637  18.112   7.193 -0.5279  0.1592 -0.4814
  852YOPE   C4B12652  11.325  17.855   7.491 -0.1537  0.0810  0.0476
  853YOPE   NH312653   0.752  14.332   5.315 -0.2406  0.1195  0.0148
  853YOPE   PO412654   0.921  13.951   5.310  0.1424  0.0713  0.1462
  853YOPE   GL112655   0.894  13.838   5.693 -0.0160 -0.2248  0.2539
  853YOPE   GL212656   0.933  13.558   5.785 -0.0971  0.0570 -0.1504
  853YOPE   C1A12657   0.984  14.056   6.135 -0.2234  0.0085 -0.2736
  853YOPE   D2A12658   1.156  14.154   6.542 -0.1825 -0.0346 -0.3688
  853YOPE   C3A12659   1.052  14.620   6.764  0.1056  0.0073 -0.0847
  853YOPE   C4A12660   0.773  14.971   6.866 -0.1826 -0.0903  0.1504
  853YOPE   C1B12661   0.923  13.537   6.200 -0.4018  0.1639 -0.3540
  853YOPE   C2B12662   1.106  13.240   6.488  0.0338 -0.2705  0.3601
  853YOPE   D3B12663   1.502  12.913   6.614  0.1473 -0.2319  0.1753
  853YOPE   C4B12664   1.810  12.898   6.866 -0.1959  0.0492 -0.2281
  854YOPE   NH312665  12.609   2.188   5.340  0.0394 -0.1535 -0.3524
  854YOPE   PO412666  12.344   2.465   5.093  0.0239 -0.1666  0.0245
  854YOPE   GL112667  12.580   2.678   5.493  0.0958 -0.2601  0.0422
  854YOPE   GL212668  12.486   3.019   5.368 -0.0802 -0.0669 -0.0155
  854YOPE   C1A12669  12.567   2.647   5.989 -0.0778  0.0630  0.2364
  854YOPE   D2A12670  12.519   2.903   6.347 -0.0277 -0.1386 -0.0938
  854YOPE   C3A12671  12.473   2.826   6.862  0.0321  0.1161  0.0068
  854YOPE   C4A12672  12.257   2.724   7.271  0.4284 -0.1616 -0.0485
  854YOPE   C1B12673  12.386   3.122   5.740 -0.0286  0.1217 -0.3624
  854YOPE   C2B12674  12.317   3.288   6.089 -0.7442  0.0058 -0.0156
  854YOPE   D3B12675  12.437   3.424   6.498  0.0675 -0.1305 -0.0680
  854YOPE   C4B12676  12.306   3.614   6.819 -0.3971 -0.1489  0.0516
  855YOPE   NH312677   1.276  17.735   5.349  0.2098  0.2260 -0.0494
  855YOPE   PO412678   1.116  17.274   5.380 -0.0655  0.0928  0.0072
  855YOPE   GL112679   1.163  17.357   5.890 -0.3082 -0.1558  0.3346
  855YOPE   GL212680   1.538  17.344   6.131 -0.1705  0.2375  0.0995
  855YOPE   C1A12681   1.176  17.171   6.371  0.1967  0.0855 -0.1147
  855YOPE   D2A12682   0.796  17.048   6.526 -0.1424 -0.0616  0.2989
  855YOPE   C3A12683   0.395  17.356   6.572  0.0963  0.1670 -0.2030
  855YOPE   C4A12684   0.014  17.598   6.609  0.0739 -0.0847 -0.0560
  855YOPE   C1B12685   1.599  17.492   6.583 -0.3707 -0.0909 -0.5341
  855YOPE   C2B12686   1.733  17.724   6.885  0.0433  0.1193 -0.2362
  855YOPE   D3B12687   1.915  17.929   7.254  0.4393  0.1759  0.0596
  855YOPE   C4B12688   1.801  18.142   7.655 -0.2161 -0.0352 -0.0114
  856YOPE   NH312689  17.442  17.705   5.325 -0.2269  0.2512  0.3942
  856YOPE   PO412690  17.866  17.699   5.408  0.0888  0.0013 -0.0738
  856YOPE   GL112691  18.143  17.777   5.787  0.2931 -0.0218 -0.0860
  856YOPE   GL212692  18.312  17.554   5.912 -0.2144 -0.3664  0.0156
  856YOPE   C1A12693  18.066  17.910   6.217  0.2096 -0.1210  0.2579
  856YOPE   D2A12694  18.415  18.091   6.462 -0.1457  0.2655 -0.0530
  856YOPE   C3A12695  18.384  18.342   6.835 -0.3143 -0.1100 -0.1725
  856YOPE   C4A12696  18.362  18.759   6.832 -0.0272 -0.1044  0.0032
  856YOPE   C1B12697  18.130  17.318   6.209 -0.2859  0.0526  0.1492
  856YOPE   C2B12698  17.900  17.159   6.560  0.0618  0.0778 -0.0174
  856YOPE   D3B12699  17.743  17.020   6.901 -0.0645  0.2047 -0.1205
  856YOPE   C4B12700  17.723  16.616   7.307  0.0953  0.4793 -0.0938
  857YOPE   NH312701  15.678  12.534   5.800  0.1007 -0.2000 -0.2457
  857YOPE   PO412702  15.413  12.581   5.494 -0.1043 -0.3961 -0.3558
  857YOPE   GL112703  15.377  12.927   5.841 -0.4575  0.1816 -0.2765
  857YOPE   GL212704  15.117  12.862   5.992  0.1262 -0.2310  0.2416
  857YOPE   C1A12705  15.408  13.290   6.095 -0.3994  0.1829 -0.1190
  857YOPE   D2A12706  15.365  13.679   6.280  0.2876  0.1287  0.0443
  857YOPE   C3A12707  14.952  13.731   6.448 -0.1054 -0.1041  0.1478
  857YOPE   C4A12708  14.631  13.543   6.672  0.2391  0.0613 -0.2233
  857YOPE   C1B12709  15.486  12.893   6.352  0.1661 -0.0319  0.0795
  857YOPE   C2B12710  15.620  12.660   6.694 -0.3440  0.3083  0.0092
  857YOPE   D3B12711  15.847  12.759   7.024 -0.1330  0.0845 -0.0436
  857YOPE   C4B12712  16.219  12.826   7.408  0.1225  0.1930  0.0241
  858YOPE   NH312713  11.737   8.072   5.281 -0.0761 -0.1780 -0.3548
  858YOPE   PO412714  11.993   7.664   5.108  0.1788  0.0365  0.1632
  858YOPE   GL112715  11.745   7.518   5.440 -0.0968  0.6233  0.2090
  858YOPE   GL212716  11.594   7.198   5.616 -0.0775  0.1887  0.2823
  858YOPE   C1A12717  11.673   7.743   5.846  0.0551  0.0488  0.3264
  858YOPE   D2A12718  11.754   8.009   6.120 -0.0364  0.2361 -0.1653
  858YOPE   C3A12719  11.509   8.317   6.149  0.1198 -0.0771 -0.6005
  858YOPE   C4A12720  11.380   8.463   6.571  0.1080 -0.1440  0.0215
  858YOPE   C1B12721  11.760   7.291   6.005 -0.1419 -0.2168  0.0669
  858YOPE   C2B12722  11.677   7.449   6.382  0.2859 -0.0712  0.2165
  858YOPE   D3B12723  11.613   7.061   6.707 -0.1145  0.2294 -0.2424
  858YOPE   C4B12724  11.517   6.594   6.723  0.0118 -0.3764 -0.2153
  859YOPE   NH312725   2.604   6.975   5.331 -0.0866  0.0633  0.1331
  859YOPE   PO412726   2.922   7.052   5.630 -0.5781  0.0176  0.2000
  859YOPE   GL112727   2.581   6.764   5.831 -0.0200  0.3057 -0.1135
  859YOPE   GL212728   2.211   6.778   5.698  0.3955 -0.1920  0.2100
  859YOPE   C1A12729   2.402   6.712   6.251  0.1365 -0.0134  0.1301
  859YOPE   D2A12730   2.533   6.765   6.655 -0.3313 -0.1634  0.1410
  859YOPE   C3A12731   2.689   6.359   6.944 -0.2572 -0.3150 -0.2026
  859YOPE   C4A12732   2.653   6.195   7.373 -0.3053  0.1046  0.1836
  859YOPE   C1B12733   1.943   6.656   6.067 -0.2216  0.4908  0.2799
  859YOPE   C2B12734   1.786   6.781   6.438 -0.0581 -0.1213  0.1547
  859YOPE   D3B12735   1.475   7.050   6.602 -0.1151  0.6404 -0.0177
  859YOPE   C4B12736   1.032   7.007   6.688  0.3528 -0.0311 -0.0936
  860YOPE   NH312737  16.634   7.896   4.964 -0.2207  0.1842 -0.1543
  860YOPE   PO412738  16.811   7.372   5.043  0.1641 -0.0521 -0.0172
  860YOPE   GL112739  16.721   7.530   5.393 -0.1393  0.1031 -0.1238
  860YOPE   GL212740  16.669   7.872   5.441 -0.1710 -0.2183  0.0390
  860YOPE   C1A12741  16.839   7.501   5.760  0.0068  0.3813  0.0651
  860YOPE   D2A12742  16.803   7.313   6.220 -0.2916  0.1722 -0.2877
  860YOPE   C3A12743  17.046   7.034   6.393 -0.1662  0.0433  0.0340
  860YOPE   C4A12744  17.390   6.736   6.304  0.0534 -0.3654  0.0273
  860YOPE   C1B12745  16.426   7.818   5.687  0.1336  0.2274 -0.0940
  860YOPE   C2B12746  16.336   7.435   5.889  0.0185 -0.3505 -0.0865
  860YOPE   D3B12747  16.416   7.097   6.068  0.3431  0.4263 -0.0542
  860YOPE   C4B12748  16.721   6.738   5.985  0.4342  0.0552 -0.3840
  861YOPE   NH312749  13.982   9.488   5.414 -0.2178  0.0253  0.0260
  861YOPE   PO412750  13.837   9.098   5.207  0.1663 -0.0593 -0.2158
  861YOPE   GL112751  13.865   8.963   5.493  0.0521  0.1390  0.0551
  861YOPE   GL212752  14.047   8.678   5.493 -0.3350  0.0147  0.0945
  861YOPE   C1A12753  14.063   9.008   5.908  0.1143  0.2647 -0.4617
  861YOPE   D2A12754  13.922   9.224   6.172 -0.0096 -0.0469  0.3672
  861YOPE   C3A12755  14.039   9.103   6.606  0.0344  0.2278  0.0464
  861YOPE   C4A12756  14.167   9.213   6.943  0.0665  0.3318 -0.3374
  861YOPE   C1B12757  14.266   8.348   5.515  0.2068 -0.1857 -0.2877
  861YOPE   C2B12758  14.675   8.258   5.679  0.0055  0.0042 -0.0577
  861YOPE   D3B12759  15.050   8.139   5.878  0.1135 -0.2350 -0.0655
  861YOPE   C4B12760  15.544   8.141   6.009  0.1362 -0.3762 -0.2785
  862YOPE   NH312761  15.474  11.535   5.344  0.0347  0.3631  0.1027
  862YOPE   PO412762  15.778  11.850   5.279  0.0360 -0.1233 -0.1547
  862YOPE   GL112763  15.918  11.539   5.514 -0.0532  0.0675 -0.1617
  862YOPE   GL212764  15.664  11.706   5.773 -0.2840  0.0251 -0.1147
  862YOPE   C1A12765  15.818  11.193   5.692  0.0322  0.0625  0.3455
  862YOPE   D2A12766  15.750  10.961   6.025 -0.1635 -0.1422  0.2378
  862YOPE   C3A12767  16.168  10.836   6.117  0.0441 -0.0817 -0.2908
  862YOPE   C4A12768  16.485  10.585   5.946  0.5090  0.1664  0.2178
  862YOPE   C1B12769  15.463  11.426   6.026  0.0431  0.1313 -0.1178
  862YOPE   C2B12770  15.417  11.288   6.505 -0.1330 -0.1040 -0.2961
  862YOPE   D3B12771  15.320  10.960   6.799 -0.0095  0.0567 -0.3588
  862YOPE   C4B12772  15.386  10.552   6.870  0.1173  0.0509  0.1820
  863YOPE   NH312773   6.606   6.765   4.500 -0.2839 -0.3108 -0.0925
  863YOPE   PO412774   6.639   6.881   4.878 -0.4492  0.1159  0.1250
  863YOPE   GL112775   6.761   6.851   5.307 -0.0471 -0.1152  0.1472
  863YOPE   GL212776   6.438   6.725   5.343 -0.1131 -0.0972  0.1282
  863YOPE   C1A12777   6.791   7.006   5.739  0.0557 -0.3972  0.3503
  863YOPE   D2A12778   6.579   7.265   6.030 -0.0359 -0.3799 -0.1574
  863YOPE   C3A12779   6.664   7.349   6.524  0.2270 -0.0405 -0.1311
  863YOPE   C4A12780   6.994   7.476   6.767  0.1168 -0.0878 -0.0070
  863YOPE   C1B12781   6.436   6.630   5.762 -0.0583  0.0857  0.0116
  863YOPE   C2B12782   6.233   6.293   5.890  0.2243  0.1286 -0.1024
  863YOPE   D3B12783   6.219   6.039   6.226 -0.3334  0.1867 -0.3929
  863YOPE   C4B12784   6.503   5.749   6.197 -0.0143 -0.0317 -0.2383
  864YOPE   NH312785   1.812   4.260   5.358  0.1787  0.1928  0.0481
  864YOPE   PO412786   1.312   4.363   5.365  0.0603  0.2750  0.0312
  864YOPE   GL112787   1.560   4.414   5.805  0.2612  0.1011  0.3637
  864YOPE   GL212788   1.559   4.666   6.002 -0.1097  0.3522 -0.0684
  864YOPE   C1A12789   1.423   4.228   6.223 -0.1306 -0.1082 -0.2772
  864YOPE   D2A12790   1.477   4.305   6.678 -0.0928 -0.1367 -0.4017
  864YOPE   C3A12791   1.384   4.599   6.888  0.1498  0.1999 -0.5107
  864YOPE   C4A12792   1.633   4.874   6.863 -0.2126  0.1651 -0.0407
  864YOPE   C1B12793   1.699   4.662   6.412  0.1726 -0.1000 -0.3907
  864YOPE   C2B12794   2.013   4.697   6.614 -0.2476  0.3603 -0.1367
  864YOPE   D3B12795   2.124   5.116   6.654  0.1086  0.1311 -0.0528
  864YOPE   C4B12796   2.260   5.484   6.491  0.1448  0.2102  0.0801
  865YOPE   NH312797  12.527   4.126   5.138  0.1942  0.4685  0.1399
  865YOPE   PO412798  12.851   3.767   5.120  0.1223  0.3317  0.2766
  865YOPE   GL112799  13.136   3.624   5.280  0.2032  0.2065 -0.0542
  865YOPE   GL212800  13.579   3.629   5.155 -0.0578  0.1322  0.0698
  865YOPE   C1A12801  13.272   3.260   5.495 -0.1219 -0.2458  0.1331
  865YOPE   D2A12802  13.530   3.118   5.804 -0.3998  0.1652  0.2059
  865YOPE   C3A12803  13.490   2.744   6.036 -0.4652  0.0180 -0.3897
  865YOPE   C4A12804  13.467   2.279   5.980 -0.1608  0.1354 -0.0898
  865YOPE   C1B12805  13.571   3.617   5.656 -0.2570  0.2926 -0.2108
  865YOPE   C2B12806  13.582   3.885   5.983  0.0190 -0.0267 -0.1235
  865YOPE   D3B12807  13.914   3.983   6.313  0.0270  0.0692 -0.0776
  865YOPE   C4B12808  14.087   4.309   6.654 -0.2444 -0.0257  0.2593
  866YOPE   NH312809   7.046  12.831   5.346  0.1786 -0.0262 -0.0339
  866YOPE   PO412810   6.718  12.747   5.344 -0.0721  0.3069  0.1782
  866YOPE   GL112811   6.429  12.795   5.709 -0.0114 -0.1169 -0.0133
  866YOPE   GL212812   5.996  12.752   5.785 -0.0254  0.2933  0.1393
  866YOPE   C1A12813   6.317  12.673   6.125 -0.2408  0.0668  0.4153
  866YOPE   D2A12814   6.191  12.268   6.384 -0.3298 -0.0686 -0.1780
  866YOPE   C3A12815   6.096  12.415   6.788 -0.1824  0.1037 -0.0482
  866YOPE   C4A12816   5.695  12.498   6.899  0.2602  0.2178  0.2204
  866YOPE   C1B12817   5.863  12.975   6.049  0.1780 -0.2248 -0.0834
  866YOPE   C2B12818   6.042  12.788   6.498 -0.0265 -0.1341  0.0037
  866YOPE   D3B12819   5.985  12.969   6.946  0.3834 -0.1802  0.2762
  866YOPE   C4B12820   6.129  13.221   7.404  0.1598 -0.1694  0.0665
  867YOPE   NH312821  13.413   9.896   4.933 -0.1361 -0.1167  0.1038
  867YOPE   PO412822  13.669   9.856   5.231  0.1300  0.1319  0.2064
  867YOPE   GL112823  13.627   9.788   5.663 -0.1322 -0.0845 -0.1933
  867YOPE   GL212824  13.682  10.135   5.714 -0.3739 -0.1053 -0.0087
  867YOPE   C1A12825  13.563   9.521   6.010  0.0734 -0.1204  0.0057
  867YOPE   D2A12826  13.357   9.520   6.442  0.0033 -0.4010  0.3742
  867YOPE   C3A12827  13.584   9.204   6.705 -0.2548  0.2114 -0.0113
  867YOPE   C4A12828  13.631   9.081   7.088 -0.0274 -0.5216  0.0405
  867YOPE   C1B12829  13.794  10.125   6.097 -0.2245  0.0384 -0.0452
  867YOPE   C2B12830  13.631  10.049   6.486  0.3886 -0.1121  0.2032
  867YOPE   D3B12831  13.420   9.940   6.854  0.2614  0.0658 -0.0906
  867YOPE   C4B12832  13.298   9.695   7.146 -0.0094  0.0567 -0.3142
  868YOPE   NH312833   3.010  15.841   5.490  0.0573 -0.0741  0.1093
  868YOPE   PO412834   2.745  16.151   5.215 -0.0114 -0.0544 -0.1581
  868YOPE   GL112835   2.939  16.321   5.717  0.0650 -0.0139 -0.1139
  868YOPE   GL212836   3.228  16.503   5.760  0.1167  0.1761  0.0462
  868YOPE   C1A12837   2.850  16.374   6.118 -0.3599  0.1109  0.5461
  868YOPE   D2A12838   2.578  16.431   6.433  0.1399 -0.0615  0.2603
  868YOPE   C3A12839   2.719  16.840   6.650 -0.2810  0.1834  0.1371
  868YOPE   C4A12840   2.927  17.291   6.757  0.2518  0.0960 -0.1459
  868YOPE   C1B12841   3.435  16.696   6.200  0.0687  0.0400 -0.4315
  868YOPE   C2B12842   3.540  16.633   6.600 -0.0841 -0.1783  0.1409
  868YOPE   D3B12843   3.637  16.530   6.974 -0.0470  0.0284  0.0087
  868YOPE   C4B12844   3.757  16.120   7.182 -0.0660 -0.0917 -0.0118
  869YOPE   NH312845  19.146   1.421   5.569  0.0446 -0.3780  0.1555
  869YOPE   PO412846  18.797   1.853   5.662  0.1341  0.1153  0.3862
  869YOPE   GL112847  18.441   1.979   5.897 -0.4008 -0.1290 -0.0248
  869YOPE   GL212848  18.456   2.155   6.059 -0.3090 -0.3388  0.0278
  869YOPE   C1A12849  18.076   1.786   6.234  0.1308  0.2578  0.4583
  869YOPE   D2A12850  17.845   1.547   6.382  0.1704  0.0311 -0.0851
  869YOPE   C3A12851  17.732   1.534   6.889 -0.4526  0.0337  0.0810
  869YOPE   C4A12852  17.625   1.482   7.294 -0.1793 -0.2832 -0.0487
  869YOPE   C1B12853  18.363   2.131   6.499  0.4243 -0.2837  0.3645
  869YOPE   C2B12854  18.014   1.967   6.902  0.1569  0.0157 -0.3815
  869YOPE   D3B12855  18.057   1.739   7.287 -0.0737  0.0190  0.0952
  869YOPE   C4B12856  18.323   1.859   7.580  0.0376 -0.0451 -0.2031
  870YOPE   NH312857   8.830   5.641   4.625  0.1577 -0.0578 -0.0092
  870YOPE   PO412858   8.625   5.924   4.795 -0.0018 -0.1401  0.0944
  870YOPE   GL112859   8.349   6.153   5.134  0.1846  0.0237 -0.0383
  870YOPE   GL212860   8.546   6.422   5.176  0.4609 -0.0337 -0.0659
  870YOPE   C1A12861   8.067   6.072   5.531  0.2423  0.0624 -0.0936
  870YOPE   D2A12862   7.822   6.106   5.853 -0.1219 -0.3167  0.1405
  870YOPE   C3A12863   7.387   6.287   5.893  0.1236 -0.0490  0.2705
  870YOPE   C4A12864   7.618   6.420   6.217  0.0166 -0.3266 -0.1256
  870YOPE   C1B12865   8.735   6.336   5.661  0.0664  0.0827  0.2793
  870YOPE   C2B12866   8.770   6.411   6.032 -0.0538 -0.0018  0.2617
  870YOPE   D3B12867   8.890   6.857   6.128  0.0996  0.2117 -0.1268
  870YOPE   C4B12868   8.947   7.254   5.925  0.3585  0.0685  0.0582
  871YOPE   NH312869  18.717   4.687   5.087 -0.1695 -0.1703 -0.0029
  871YOPE   PO412870  18.355   4.284   5.138  0.3189 -0.0373  0.1560
  871YOPE   GL112871  18.265   4.325   5.641 -0.0904 -0.1270  0.3298
  871YOPE   GL212872  17.910   4.370   5.705  0.0905 -0.1684 -0.3253
  871YOPE   C1A12873  18.347   4.310   6.024  0.1204  0.2157  0.0702
  871YOPE   D2A12874  18.359   4.381   6.443 -0.3195  0.0295  0.4519
  871YOPE   C3A12875  17.996   4.411   6.589  0.1277  0.1674  0.3142
  871YOPE   C4A12876  17.582   4.465   6.531  0.5159 -0.0007  0.3746
  871YOPE   C1B12877  17.632   4.602   6.003  0.1812  0.1402 -0.0537
  871YOPE   C2B12878  17.563   4.940   5.982 -0.0430  0.0657 -0.0773
  871YOPE   D3B12879  17.686   5.236   6.233  0.2442  0.1056 -0.0043
  871YOPE   C4B12880  17.882   5.589   6.305  0.3163  0.1631  0.1408
  872YOPE   NH312881   6.886  12.593   5.765  0.0554 -0.1954 -0.0249
  872YOPE   PO412882   7.313  12.495   5.638  0.2011  0.1397 -0.3185
  872YOPE   GL112883   7.272  12.707   6.066  0.2029 -0.1190  0.1390
  872YOPE   GL212884   7.087  12.940   6.087 -0.1485  0.0984  0.1372
  872YOPE   C1A12885   7.317  12.608   6.425 -0.1522  0.3376  0.0909
  872YOPE   D2A12886   7.611  12.557   6.737  0.2176  0.0295 -0.3328
  872YOPE   C3A12887   7.772  12.234   6.832 -0.2606 -0.3717  0.1197
  872YOPE   C4A12888   7.521  12.055   7.109  0.4635  0.1758 -0.2142
  872YOPE   C1B12889   6.731  13.035   6.338  0.1099  0.1731 -0.0642
  872YOPE   C2B12890   6.730  13.353   6.591 -0.1045  0.3052 -0.3980
  872YOPE   D3B12891   6.732  13.661   6.814  0.1050  0.3594 -0.2624
  872YOPE   C4B12892   6.529  13.849   7.136 -0.0261  0.2217  0.3925
  873YOPE   NH312893   5.331   3.366   4.859 -0.3203  0.4273 -0.2197
  873YOPE   PO412894   5.132   3.240   5.244  0.0944 -0.1831 -0.1700
  873YOPE   GL112895   5.123   2.997   5.453 -0.4693 -0.4449 -0.2391
  873YOPE   GL212896   4.934   2.672   5.485  0.3231 -0.0355  0.2393
  873YOPE   C1A12897   5.478   2.642   5.630  0.0350  0.0608 -0.0714
  873YOPE   D2A12898   5.346   2.267   5.766  0.0680 -0.0617  0.1806
  873YOPE   C3A12899   4.812   2.255   5.777 -0.1378  0.1938  0.1241
  873YOPE   C4A12900   4.564   2.554   5.985  0.0612  0.0453  0.2959
  873YOPE   C1B12901   5.060   2.644   5.885  0.0008 -0.0637  0.1405
  873YOPE   C2B12902   4.890   2.477   6.310  0.2475 -0.1529 -0.0663
  873YOPE   D3B12903   4.664   2.585   6.682  0.0207 -0.1797 -0.3024
  873YOPE   C4B12904   4.347   2.902   6.764  0.1642  0.1613 -0.2696
  874YOPE   NH312905  16.066   1.118   5.250  0.0956  0.0131  0.1312
  874YOPE   PO412906  15.540   1.267   5.172 -0.1951 -0.1922  0.3167
  874YOPE   GL112907  15.278   1.476   5.472 -0.0263 -0.0515 -0.2215
  874YOPE   GL212908  15.029   1.348   5.666 -0.0659 -0.1003  0.1353
  874YOPE   C1A12909  15.182   1.783   5.882 -0.0197  0.1785 -0.0161
  874YOPE   D2A12910  15.146   1.600   6.310  0.0710  0.1473  0.1580
  874YOPE   C3A12911  14.953   1.758   6.527  0.1898 -0.0491  0.1988
  874YOPE   C4A12912  14.621   2.012   6.668 -0.3845 -0.2118 -0.1813
  874YOPE   C1B12913  14.851   1.211   6.071  0.0645  0.2690 -0.0258
  874YOPE   C2B12914  14.780   1.199   6.482 -0.0087 -0.0846  0.0215
  874YOPE   D3B12915  14.856   1.407   6.854  0.3055  0.0000  0.2058
  874YOPE   C4B12916  14.921   1.855   7.063  0.0852  0.0051 -0.2139
  875YOPE   NH312917   2.906  18.534   5.373  0.0819  0.1218  0.0323
  875YOPE   PO412918   3.343  18.512   5.421 -0.0448 -0.0703  0.0774
  875YOPE   GL112919   3.476  18.302   5.730  0.3362 -0.0002 -0.2838
  875YOPE   GL212920   3.630  18.029   5.730 -0.1852  0.0851 -0.2065
  875YOPE   C1A12921   3.333  18.310   6.219 -0.1884 -0.0511 -0.1189
  875YOPE   D2A12922   3.380  18.176   6.710  0.1267 -0.0488  0.3597
  875YOPE   C3A12923   3.685  18.049   6.894 -0.6238  0.0114 -0.0648
  875YOPE   C4A12924   3.949  17.856   7.224 -0.1647 -0.0600 -0.0433
  875YOPE   C1B12925   3.514  17.839   6.072 -0.0119 -0.1151 -0.2089
  875YOPE   C2B12926   3.743  17.909   6.444  0.0576  0.0296  0.0867
  875YOPE   D3B12927   4.148  17.880   6.685 -0.0448 -0.1640  0.1666
  875YOPE   C4B12928   4.418  18.122   6.874 -0.3887  0.2922 -0.1873
  876YOPE   NH312929  19.174  14.456   5.449 -0.2193 -0.0337 -0.1908
  876YOPE   PO412930  19.132  14.123   5.676  0.0161 -0.0459 -0.0888
  876YOPE   GL112931  19.086  13.783   6.025 -0.0420 -0.1942 -0.1143
  876YOPE   GL212932  19.207  13.478   6.046 -0.2771 -0.0588  0.1575
  876YOPE   C1A12933  19.393  13.852   6.414 -0.2956 -0.1156 -0.3365
  876YOPE   D2A12934  19.500  13.796   6.845  0.2913 -0.1803 -0.0215
  876YOPE   C3A12935  19.487  14.118   7.184 -0.0243 -0.0312 -0.1858
  876YOPE   C4A12936  19.277  14.180   7.589  0.0165  0.0934 -0.1659
  876YOPE   C1B12937  19.215  13.299   6.417  0.2104  0.2163  0.1389
  876YOPE   C2B12938  19.230  13.087   6.788  0.1006  0.4762  0.1898
  876YOPE   D3B12939  19.529  12.739   6.967  0.1146  0.0358  0.0652
  876YOPE   C4B12940  19.598  12.257   6.948  0.0614 -0.0134 -0.1604
  877YOPE   NH312941  17.810  10.467   5.347 -0.3375  0.0537 -0.2759
  877YOPE   PO412942  17.546  10.108   5.290 -0.0255  0.2019  0.1309
  877YOPE   GL112943  17.317   9.802   5.724 -0.0238 -0.0314 -0.0518
  877YOPE   GL212944  17.096  10.004   5.936  0.1673  0.1373  0.1811
  877YOPE   C1A12945  17.278   9.606   6.105 -0.2779  0.4166 -0.2652
  877YOPE   D2A12946  16.995   9.481   6.511 -0.2383  0.0498  0.3844
  877YOPE   C3A12947  16.805   9.500   6.989  0.2574 -0.2504 -0.2558
  877YOPE   C4A12948  16.967   9.802   7.192  0.3074 -0.0410 -0.5650
  877YOPE   C1B12949  16.780  10.224   6.218 -0.0399  0.3017 -0.0130
  877YOPE   C2B12950  16.677  10.508   6.601 -0.0738  0.0716  0.1791
  877YOPE   D3B12951  16.462  10.726   6.898  0.2309 -0.1804  0.4186
  877YOPE   C4B12952  16.318  10.762   7.312  0.1582  0.0399  0.2311
  878YOPE   NH312953   2.826  16.694   5.432 -0.0923  0.2700 -0.0440
  878YOPE   PO412954   3.240  16.860   5.402  0.2115 -0.2212  0.4268
  878YOPE   GL112955   3.166  17.051   5.817  0.0022  0.1344 -0.3150
  878YOPE   GL212956   3.545  17.151   6.032  0.0028 -0.2194 -0.0882
  878YOPE   C1A12957   2.968  16.894   6.247 -0.2759  0.4087  0.2103
  878YOPE   D2A12958   3.207  16.957   6.575 -0.0646  0.0798 -0.1925
  878YOPE   C3A12959   3.120  16.805   6.976  0.1441  0.2630  0.1584
  878YOPE   C4A12960   3.007  16.576   7.313  0.0438 -0.0427 -0.2770
  878YOPE   C1B12961   3.754  17.088   6.381  0.0577 -0.0372 -0.0900
  878YOPE   C2B12962   3.657  17.095   6.814  0.1934 -0.1519  0.1732
  878YOPE   D3B12963   3.431  17.194   7.166  0.2688  0.0683 -0.0810
  878YOPE   C4B12964   3.497  17.038   7.568 -0.0916  0.2651  0.1471
  879YOPE   NH312965   6.197   7.675   4.919 -0.3494 -0.0278 -0.2027
  879YOPE   PO412966   6.495   8.025   5.018  0.0574 -0.0231 -0.2168
  879YOPE   GL112967   6.201   7.738   5.452  0.3219  0.1657 -0.0329
  879YOPE   GL212968   5.944   7.654   5.369 -0.1262  0.2660 -0.1250
  879YOPE   C1A12969   6.326   7.721   5.856  0.1355  0.1119 -0.1532
  879YOPE   D2A12970   6.300   7.746   6.189 -0.3190  0.0663 -0.6476
  879YOPE   C3A12971   6.459   7.838   6.600  0.0920  0.1461  0.1967
  879YOPE   C4A12972   6.212   8.037   6.924  0.1023 -0.0349 -0.1250
  879YOPE   C1B12973   5.838   7.711   5.753  0.2944 -0.2039 -0.1627
  879YOPE   C2B12974   5.823   7.889   6.095 -0.1534 -0.1277 -0.2072
  879YOPE   D3B12975   6.007   8.046   6.483 -0.0657 -0.1799 -0.0049
  879YOPE   C4B12976   6.331   8.504   6.687  0.1654 -0.0820  0.0259
  880YOPE   NH312977  10.993  11.300   5.248 -0.0083  0.2993 -0.1919
  880YOPE   PO412978  11.027  11.428   5.684 -0.0416  0.2246  0.0223
  880YOPE   GL112979  11.024  11.235   6.088 -0.0859 -0.1836  0.0122
  880YOPE   GL212980  10.684  11.094   5.973  0.1275  0.0333 -0.0116
  880YOPE   C1A12981  11.006  10.921   6.410 -0.0894 -0.0676 -0.2842
  880YOPE   D2A12982  11.335  10.738   6.737 -0.2135  0.0152 -0.1706
  880YOPE   C3A12983  11.682  10.944   6.997  0.0629  0.2110  0.3754
  880YOPE   C4A12984  12.025  10.995   7.258  0.1896 -0.2702 -0.0062
  880YOPE   C1B12985  10.526  10.909   6.386 -0.2609  0.0167 -0.1338
  880YOPE   C2B12986  10.637  10.754   6.693  0.1865  0.3435  0.1254
  880YOPE   D3B12987  10.529  10.712   7.028  0.0227  0.0573  0.0152
  880YOPE   C4B12988  10.493  10.782   7.497  0.0340  0.2753 -0.3394
  881YOPE   NH312989   9.726   3.699   5.299 -0.1609  0.1790 -0.1166
  881YOPE   PO412990   9.575   3.315   5.374 -0.2460  0.1211 -0.3427
  881YOPE   GL112991   9.696   3.395   5.808 -0.2907 -0.0660 -0.0299
  881YOPE   GL212992   9.541   3.061   5.877  0.1408  0.0363  0.1640
  881YOPE   C1A12993   9.684   3.649   6.217  0.2124  0.1623 -0.1939
  881YOPE   D2A12994   9.805   3.593   6.687 -0.1296 -0.3116 -0.1675
  881YOPE   C3A12995  10.176   3.647   6.919 -0.1676  0.2722  0.1525
  881YOPE   C4A12996  10.356   3.924   7.228  0.1673  0.2710 -0.3362
  881YOPE   C1B12997   9.680   2.943   6.247 -0.2081  0.0914 -0.1234
  881YOPE   C2B12998  10.001   2.657   6.420 -0.0090  0.2595 -0.2904
  881YOPE   D3B12999  10.127   2.643   6.826 -0.0712 -0.3214 -0.2003
  881YOPE   C4B13000  10.518   2.548   7.175 -0.2081 -0.0706  0.1587
  882YOPE   NH313001   0.536  14.879   5.858  0.0820 -0.0342 -0.3056
  882YOPE   PO413002   0.119  14.826   5.634 -0.1230 -0.0632  0.0989
  882YOPE   GL113003   0.086  14.556   5.887 -0.1837  0.2258 -0.0946
  882YOPE   GL213004  -0.233  14.485   6.143 -0.2844 -0.2202  0.0856
  882YOPE   C1A13005   0.203  14.300   6.263 -0.3909  0.1077  0.1695
  882YOPE   D2A13006   0.228  14.262   6.760 -0.0916  0.3273 -0.0832
  882YOPE   C3A13007   0.632  14.221   7.005 -0.2579 -0.3962 -0.0181
  882YOPE   C4A13008   1.122  14.135   7.104 -0.1422 -0.1064  0.0112
  882YOPE   C1B13009  -0.224  14.408   6.551  0.3548  0.0228  0.0367
  882YOPE   C2B13010  -0.261  14.357   6.972 -0.3571 -0.1414 -0.0329
  882YOPE   D3B13011  -0.304  14.579   7.363  0.0823  0.0874 -0.1990
  882YOPE   C4B13012  -0.460  14.775   7.802  0.1898 -0.2331 -0.0028
  883YOPE   NH313013  16.570  13.437   5.693 -0.2218  0.0995 -0.2541
  883YOPE   PO413014  16.966  13.605   5.556  0.1508  0.1272  0.1450
  883YOPE   GL113015  17.067  13.602   5.885 -0.1861  0.0558  0.0939
  883YOPE   GL213016  16.836  13.745   6.074 -0.1213  0.1372  0.0579
  883YOPE   C1A13017  17.297  13.262   6.147  0.0999 -0.0919  0.0641
  883YOPE   D2A13018  17.295  13.127   6.564 -0.0887 -0.0905  0.3304
  883YOPE   C3A13019  17.205  12.941   6.928  0.1474 -0.0628 -0.4354
  883YOPE   C4A13020  17.141  12.848   7.447 -0.0812  0.3433 -0.1662
  883YOPE   C1B13021  16.895  13.543   6.406 -0.0723  0.1807  0.0685
  883YOPE   C2B13022  16.837  13.423   6.785 -0.0246 -0.1324  0.0593
  883YOPE   D3B13023  16.824  13.521   7.217  0.0418 -0.2271  0.0966
  883YOPE   C4B13024  16.861  13.276   7.547 -0.3660 -0.0481 -0.1231
  884YOPE   NH313025   8.917   5.171   5.259  0.2455  0.2013 -0.0864
  884YOPE   PO413026   9.085   5.304   4.903  0.1459  0.1656  0.0078
  884YOPE   GL113027   9.458   5.047   5.071 -0.0414  0.0433 -0.1183
  884YOPE   GL213028   9.394   5.096   5.348 -0.0522 -0.0032 -0.0348
  884YOPE   C1A13029   9.848   4.841   5.338  0.3247  0.1879 -0.1829
  884YOPE   D2A13030  10.283   4.853   5.405 -0.3509  0.0390 -0.0673
  884YOPE   C3A13031  10.529   4.527   5.655  0.0225  0.1268 -0.2865
  884YOPE   C4A13032  10.921   4.513   5.862  0.0904 -0.1353 -0.0730
  884YOPE   C1B13033   9.475   5.371   5.606  0.1605  0.1966  0.0890
  884YOPE   C2B13034   9.296   5.445   6.080 -0.1712  0.0555  0.0448
  884YOPE   D3B13035   9.364   5.193   6.501  0.1585  0.0710 -0.2842
  884YOPE   C4B13036   9.548   5.440   6.963 -0.1774 -0.0626 -0.4834
  885YOPE   NH313037  17.083  10.181   5.419  0.2868 -0.1824 -0.0131
  885YOPE   PO413038  17.270  10.483   5.221 -0.1709 -0.2145  0.2063
  885YOPE   GL113039  17.306  10.576   5.608  0.1791 -0.1875  0.1611
  885YOPE   GL213040  17.484  10.327   5.712  0.1798  0.0854 -0.2202
  885YOPE   C1A13041  17.061  10.697   5.946 -0.1575  0.0860  0.4295
  885YOPE   D2A13042  17.133  10.545   6.339 -0.1785 -0.3593 -0.0622
  885YOPE   C3A13043  17.157  10.642   6.716  0.0403  0.2681 -0.0445
  885YOPE   C4A13044  16.952  10.317   7.001 -0.1426  0.0231  0.1059
  885YOPE   C1B13045  17.556  10.632   6.066  0.1141 -0.1096 -0.0506
  885YOPE   C2B13046  17.403  10.984   6.226  0.0064  0.1632 -0.1230
  885YOPE   D3B13047  17.374  11.092   6.691 -0.0267  0.0726  0.0025
  885YOPE   C4B13048  17.520  11.439   6.916 -0.3113 -0.2251  0.0314
  886YOPE   NH313049  18.703   0.025   5.399  0.0717  0.2436  0.2734
  886YOPE   PO413050  18.298   0.264   5.276 -0.1807  0.0846  0.0023
  886YOPE   GL113051  18.100   0.538   5.694 -0.1155  0.0047 -0.3835
  886YOPE   GL213052  17.924   0.219   5.754  0.1358  0.3032 -0.3078
  886YOPE   C1A13053  18.147   0.565   6.110 -0.0051  0.0166 -0.0785
  886YOPE   D2A13054  18.064   0.690   6.446 -0.1591  0.0583  0.3141
  886YOPE   C3A13055  18.513   0.837   6.531  0.0277 -0.1448  0.0819
  886YOPE   C4A13056  18.664   1.126   6.892 -0.2021 -0.3543 -0.1557
  886YOPE   C1B13057  17.921   0.106   6.119 -0.3089 -0.6245  0.4415
  886YOPE   C2B13058  17.814   0.137   6.508 -0.1187  0.1057 -0.1421
  886YOPE   D3B13059  17.601  -0.091   6.791 -0.4566  0.1441  0.2371
  886YOPE   C4B13060  17.328  -0.397   6.814 -0.1341 -0.0802  0.2318
  887YOPE   NH313061   7.111  16.909   5.397  0.3016 -0.3178  0.1601
  887YOPE   PO413062   6.964  17.249   5.211 -0.0826  0.2979  0.5377
  887YOPE   GL113063   7.291  17.388   5.519  0.1690 -0.0775 -0.2026
  887YOPE   GL213064   7.543  17.339   5.672  0.2553 -0.0476  0.1624
  887YOPE   C1A13065   7.293  17.777   5.763  0.0331  0.0788  0.2222
  887YOPE   D2A13066   7.184  18.183   5.787 -0.1603  0.0150 -0.2857
  887YOPE   C3A13067   7.102  18.174   6.198  0.1230 -0.2751  0.2033
  887YOPE   C4A13068   7.402  18.012   6.473 -0.0489  0.2220 -0.0141
  887YOPE   C1B13069   7.367  17.430   6.155  0.2141  0.1390 -0.2866
  887YOPE   C2B13070   7.243  17.582   6.623 -0.1764  0.0668  0.2054
  887YOPE   D3B13071   7.050  17.388   6.968  0.0084  0.1845  0.0396
  887YOPE   C4B13072   6.804  17.181   7.328  0.2167 -0.2917  0.3249
  888YOPE   NH313073   8.813  18.351   5.364  0.0551  0.1405 -0.0439
  888YOPE   PO413074   9.040  17.925   5.621  0.0425  0.4550 -0.0635
  888YOPE   GL113075   9.074  17.861   5.943  0.0080  0.1469 -0.2940
  888YOPE   GL213076   8.904  17.602   5.928 -0.1477  0.2133  0.0172
  888YOPE   C1A13077   9.101  17.863   6.322  0.0847  0.0058  0.2339
  888YOPE   D2A13078   9.024  17.834   6.682  0.3175 -0.0564 -0.1062
  888YOPE   C3A13079   8.853  17.579   6.911  0.1749  0.0071  0.0044
  888YOPE   C4A13080   9.076  17.344   7.287 -0.3033 -0.3920 -0.4584
  888YOPE   C1B13081   8.824  17.467   6.364 -0.0237 -0.1372  0.0714
  888YOPE   C2B13082   8.566  17.149   6.532 -0.0065 -0.4639  0.2002
  888YOPE   D3B13083   8.422  16.786   6.682 -0.1648  0.3467 -0.3871
  888YOPE   C4B13084   8.166  16.458   6.946 -0.0045 -0.2520  0.1460
  889YOPE   NH313085  17.882  13.450   5.425 -0.0240 -0.0773  0.1397
  889YOPE   PO413086  18.127  13.582   5.590 -0.3709  0.0999  0.1058
  889YOPE   GL113087  18.170  13.484   5.992  0.0546  0.2278 -0.2449
  889YOPE   GL213088  18.254  13.785   6.138 -0.0373  0.0550 -0.1682
  889YOPE   C1A13089  18.132  13.363   6.381 -0.0826  0.0038  0.2838
  889YOPE   D2A13090  17.947  13.381   6.786 -0.0819 -0.1107 -0.4299
  889YOPE   C3A13091  17.726  13.095   6.961 -0.5063  0.1054  0.0165
  889YOPE   C4A13092  17.666  12.889   7.345 -0.1413 -0.1128  0.0956
  889YOPE   C1B13093  17.996  13.912   6.406  0.2542 -0.2247  0.2580
  889YOPE   C2B13094  17.632  14.184   6.466  0.0998 -0.2945 -0.4984
  889YOPE   D3B13095  17.471  14.134   6.818  0.3113 -0.1268  0.1924
  889YOPE   C4B13096  17.183  14.309   7.059 -0.0877  0.1918 -0.0983
  890YOPE   NH313097   4.075  16.685   5.319  0.0823 -0.2092 -0.2114
  890YOPE   PO413098   4.554  16.583   5.410 -0.1953 -0.2488 -0.3108
  890YOPE   GL113099   4.427  16.424   5.728 -0.0535  0.1455 -0.1496
  890YOPE   GL213100   4.223  16.065   5.829  0.0162  0.0727  0.1664
  890YOPE   C1A13101   4.590  16.197   6.129 -0.1008 -0.2708  0.0194
  890YOPE   D2A13102   4.456  16.182   6.544  0.0354  0.1182 -0.1448
  890YOPE   C3A13103   4.641  15.959   6.864 -0.0486 -0.0475  0.0132
  890YOPE   C4A13104   4.797  15.836   7.192  0.0037 -0.1021  0.2036
  890YOPE   C1B13105   4.101  15.912   6.289  0.0092 -0.0305  0.3357
  890YOPE   C2B13106   3.966  15.980   6.716 -0.1542  0.4282  0.2719
  890YOPE   D3B13107   4.169  15.901   7.035  0.1201 -0.0299  0.0079
  890YOPE   C4B13108   4.351  15.544   7.078 -0.1696 -0.0205 -0.0907
  891YOPE   NH313109  11.943   4.889   5.137 -0.1690  0.0990 -0.1042
  891YOPE   PO413110  11.979   5.352   5.079  0.0204  0.3611 -0.1498
  891YOPE   GL113111  12.058   5.382   5.508  0.0437  0.1152 -0.1020
  891YOPE   GL213112  12.328   5.566   5.716 -0.2214 -0.2068 -0.1990
  891YOPE   C1A13113  12.054   5.344   6.063 -0.1326  0.2154  0.1731
  891YOPE   D2A13114  12.108   5.254   6.479 -0.1142  0.3538  0.0541
  891YOPE   C3A13115  11.796   5.220   6.767 -0.2047  0.2979  0.0542
  891YOPE   C4A13116  11.613   4.921   6.951  0.3277 -0.2407 -0.0886
  891YOPE   C1B13117  12.624   5.306   6.066  0.0692  0.0372  0.1042
  891YOPE   C2B13118  12.782   5.283   6.479  0.1797 -0.1051  0.1259
  891YOPE   D3B13119  12.809   5.414   6.872 -0.1546  0.1258  0.2351
  891YOPE   C4B13120  12.825   5.115   7.237 -0.1446  0.2477  0.0858
  892YOPE   NH313121  19.332   0.453   5.537 -0.0147  0.2239 -0.0411
  892YOPE   PO413122  18.906   0.457   5.440 -0.0518  0.0005  0.0250
  892YOPE   GL113123  18.922   0.551   5.893  0.2015 -0.1294  0.0087
  892YOPE   GL213124  19.142   0.425   6.139 -0.1000  0.2343 -0.4060
  892YOPE   C1A13125  18.768   0.817   6.107  0.1127  0.0732 -0.0211
  892YOPE   D2A13126  18.959   1.170   6.402  0.2035 -0.3050  0.0083
  892YOPE   C3A13127  19.454   1.126   6.391 -0.1475  0.2679  0.3661
  892YOPE   C4A13128  19.767   1.327   6.382  0.0025  0.2050 -0.1116
  892YOPE   C1B13129  18.845   0.536   6.561 -0.2024 -0.1023 -0.0308
  892YOPE   C2B13130  18.830   0.190   6.882  0.1797  0.1511 -0.2053
  892YOPE   D3B13131  18.849  -0.245   6.976 -0.0299  0.1776  0.0212
  892YOPE   C4B13132  19.016  -0.528   7.219 -0.0935  0.2730 -0.3040
  893YOPE   NH313133  13.146   1.492   5.566  0.1681  0.2317  0.0464
  893YOPE   PO413134  12.707   1.567   5.470 -0.0027 -0.2600 -0.3595
  893YOPE   GL113135  12.718   1.557   5.833 -0.2501 -0.0727 -0.0928
  893YOPE   GL213136  12.808   1.229   5.892  0.0368 -0.1123 -0.4431
  893YOPE   C1A13137  12.885   1.561   6.304 -0.3225  0.4059  0.1920
  893YOPE   D2A13138  12.828   1.328   6.751  0.2792  0.2200 -0.0329
  893YOPE   C3A13139  12.490   1.522   7.017  0.0623 -0.0458 -0.0570
  893YOPE   C4A13140  12.345   1.741   7.276  0.1711 -0.0563 -0.0629
  893YOPE   C1B13141  12.477   1.256   6.159  0.0973  0.1155  0.0320
  893YOPE   C2B13142  12.260   1.281   6.557 -0.3662 -0.4763  0.0983
  893YOPE   D3B13143  11.958   1.562   6.688  0.2179  0.0755 -0.2987
  893YOPE   C4B13144  11.940   1.593   7.058  0.0238 -0.0748  0.2329
  894YOPE   NH313145  11.589  13.978   5.459 -0.2797 -0.1467 -0.1107
  894YOPE   PO413146  11.213  13.950   5.374  0.0208  0.1414  0.0945
  894YOPE   GL113147  11.254  13.968   5.860 -0.1634 -0.1211  0.0767
  894YOPE   GL213148  10.962  14.271   5.950  0.2331  0.1015 -0.0824
  894YOPE   C1A13149  11.099  13.967   6.308  0.4817 -0.0365  0.2341
  894YOPE   D2A13150  10.935  13.948   6.772  0.0191  0.0839  0.1164
  894YOPE   C3A13151  10.670  13.656   6.935 -0.0972  0.1122  0.3686
  894YOPE   C4A13152  10.288  13.342   7.228 -0.2979 -0.4453 -0.2016
  894YOPE   C1B13153  10.677  14.554   6.035 -0.3172  0.1834  0.1375
  894YOPE   C2B13154  10.415  14.786   6.328  0.3834 -0.0085  0.0582
  894YOPE   D3B13155  10.447  14.755   6.880  0.1509  0.1442  0.1556
  894YOPE   C4B13156  10.499  14.813   7.252 -0.0045 -0.2913  0.1545
  895YOPE   NH313157   9.236  16.826   5.653 -0.3240  0.3170  0.1284
  895YOPE   PO413158   9.637  16.987   5.640  0.0704  0.2058  0.1349
  895YOPE   GL113159   9.793  17.323   5.865 -0.0523 -0.0456 -0.2433
  895YOPE   GL213160   9.454  17.500   5.996 -0.1230 -0.0956  0.2273
  895YOPE   C1A13161   9.852  17.443   6.237 -0.2134  0.1171  0.1491
  895YOPE   D2A13162   9.803  17.587   6.626 -0.1860  0.0569 -0.0989
  895YOPE   C3A13163   9.452  17.744   6.911  0.2056  0.3403 -0.2365
  895YOPE   C4A13164   9.311  17.867   7.365  0.1405  0.2148  0.0939
  895YOPE   C1B13165   9.329  17.426   6.434 -0.0122  0.1701 -0.0949
  895YOPE   C2B13166   9.299  17.244   6.846 -0.1996  0.0004 -0.1601
  895YOPE   D3B13167   9.447  16.833   7.131 -0.0689 -0.0852  0.2030
  895YOPE   C4B13168   9.768  16.684   7.440 -0.3893  0.3272 -0.2375
  896YOPE   NH313169   8.229   2.647   5.303  0.0574  0.0944  0.2297
  896YOPE   PO413170   7.762   2.386   5.247 -0.2713 -0.2063 -0.1343
  896YOPE   GL113171   7.675   2.333   5.611  0.0067  0.2880 -0.3535
  896YOPE   GL213172   7.322   2.456   5.736 -0.1677 -0.0771 -0.1421
  896YOPE   C1A13173   7.730   2.056   5.870 -0.0866 -0.0984  0.4261
  896YOPE   D2A13174   7.530   1.848   6.160 -0.0824  0.3966  0.3495
  896YOPE   C3A13175   7.604   1.707   6.617  0.0108  0.1322  0.3543
  896YOPE   C4A13176   7.858   1.947   6.926 -0.2985  0.1154 -0.1924
  896YOPE   C1B13177   7.301   2.304   6.146  0.2623 -0.0393  0.0184
  896YOPE   C2B13178   7.310   2.251   6.521  0.1554  0.3535  0.0048
  896YOPE   D3B13179   7.184   2.432   6.808 -0.3233  0.1113 -0.1283
  896YOPE   C4B13180   7.108   2.763   7.122 -0.0324  0.1920 -0.2139
  897YOPE   NH313181  14.538   6.303   4.849  0.0823 -0.2475 -0.1055
  897YOPE   PO413182  14.689   5.876   5.055 -0.0935 -0.1406  0.0659
  897YOPE   GL113183  14.611   5.765   5.467  0.0594  0.3359  0.3620
  897YOPE   GL213184  14.248   5.754   5.582  0.1671  0.0090  0.1547
  897YOPE   C1A13185  14.767   5.775   5.877  0.1292 -0.0390  0.1976
  897YOPE   D2A13186  15.044   5.868   6.212 -0.2452  0.4068 -0.0333
  897YOPE   C3A13187  14.913   5.612   6.453  0.0507 -0.4552  0.2084
  897YOPE   C4A13188  15.192   5.235   6.523  0.1949 -0.2645  0.0235
  897YOPE   C1B13189  14.482   6.129   5.746 -0.1086 -0.0113 -0.0100
  897YOPE   C2B13190  14.801   6.213   5.674 -0.0138 -0.1973 -0.2289
  897YOPE   D3B13191  15.225   6.335   5.856  0.1063 -0.2583 -0.2007
  897YOPE   C4B13192  15.068   6.609   6.213 -0.1131  0.1827 -0.6430
  898YOPE   NH313193   3.022   4.902   5.244 -0.0811 -0.3001 -0.1367
  898YOPE   PO413194   3.032   5.293   5.128 -0.1359  0.2583 -0.1262
  898YOPE   GL113195   3.277   5.440   5.452 -0.3365 -0.0772 -0.0159
  898YOPE   GL213196   3.435   5.158   5.551  0.0546  0.0388 -0.2415
  898YOPE   C1A13197   3.170   5.452   5.858 -0.0575  0.4040 -0.2155
  898YOPE   D2A13198   3.421   5.608   6.086  0.2586 -0.1892 -0.1562
  898YOPE   C3A13199   3.601   5.462   6.465  0.0041 -0.1784 -0.1620
  898YOPE   C4A13200   3.656   5.184   6.872 -0.2978 -0.0101 -0.0309
  898YOPE   C1B13201   3.634   5.195   5.954 -0.0702 -0.1096  0.1963
  898YOPE   C2B13202   3.714   4.971   6.420  0.1121 -0.1196 -0.2328
  898YOPE   D3B13203   3.874   4.745   6.775  0.3252 -0.1907  0.1160
  898YOPE   C4B13204   3.947   4.934   7.176 -0.1747 -0.1567  0.0296
  899YOPE   NH313205  12.593   9.050   5.195  0.0545  0.2486  0.2515
  899YOPE   PO413206  12.901   8.767   5.084 -0.0703 -0.0901  0.3908
  899YOPE   GL113207  12.908   8.728   5.502  0.2457 -0.0868 -0.2426
  899YOPE   GL213208  12.980   8.973   5.520  0.0859 -0.2314  0.1148
  899YOPE   C1A13209  12.939   8.565   5.895 -0.0153  0.1803 -0.2276
  899YOPE   D2A13210  12.827   8.474   6.346 -0.0420 -0.1221 -0.1856
  899YOPE   C3A13211  12.695   8.797   6.625  0.0652 -0.0442  0.0652
  899YOPE   C4A13212  12.409   8.909   6.929 -0.0427 -0.0656 -0.2081
  899YOPE   C1B13213  13.378   8.986   5.853 -0.1362 -0.0880 -0.0846
  899YOPE   C2B13214  13.590   8.868   6.307  0.2970  0.0598 -0.0098
  899YOPE   D3B13215  13.730   8.722   6.731 -0.3491 -0.1459  0.1324
  899YOPE   C4B13216  13.656   8.496   7.042 -0.1416  0.0345 -0.1849
  900YOPE   NH313217   4.843   7.712   5.199  0.1938  0.0931 -0.1312
  900YOPE   PO413218   4.867   8.177   5.282  0.2063  0.1057 -0.0168
  900YOPE   GL113219   5.032   7.923   5.645  0.1206 -0.1230  0.2156
  900YOPE   GL213220   4.733   7.780   5.748  0.1146 -0.5023 -0.3412
  900YOPE   C1A13221   5.124   7.952   6.097 -0.1916  0.0647  0.1974
  900YOPE   D2A13222   5.098   7.740   6.473  0.1420 -0.2492 -0.0486
  900YOPE   C3A13223   5.008   7.277   6.341  0.1575  0.0191  0.0921
  900YOPE   C4A13224   5.195   7.117   6.638  0.1682  0.0224  0.0871
  900YOPE   C1B13225   4.752   7.637   6.176  0.2140  0.1368  0.1150
  900YOPE   C2B13226   4.730   7.473   6.694 -0.0411 -0.0333  0.0168
  900YOPE   D3B13227   4.486   7.344   7.000  0.1935  0.2554 -0.4159
  900YOPE   C4B13228   4.373   6.878   7.142  0.1722 -0.3166  0.2480
  901YOPE   NH313229   7.799  10.297   5.703  0.0957 -0.0200  0.1623
  901YOPE   PO413230   8.163  10.030   5.714  0.0622  0.2831  0.1501
  901YOPE   GL113231   8.304  10.270   5.986  0.0175 -0.0675  0.1994
  901YOPE   GL213232   8.471  10.584   5.972  0.1671  0.0186 -0.0236
  901YOPE   C1A13233   8.204  10.440   6.374  0.0597  0.0037 -0.2273
  901YOPE   D2A13234   8.350  10.576   6.750  0.0566  0.0583  0.2660
  901YOPE   C3A13235   8.533  10.428   7.115  0.0181 -0.3697 -0.0612
  901YOPE   C4A13236   8.703  10.221   7.376  0.0421  0.0571 -0.1270
  901YOPE   C1B13237   8.742  10.759   6.327 -0.0310 -0.0990 -0.1117
  901YOPE   C2B13238   8.876  10.689   6.815 -0.0959 -0.2657  0.3832
  901YOPE   D3B13239   9.144  10.683   7.000 -0.0989  0.1421 -0.1450
  901YOPE   C4B13240   9.543  10.738   7.070  0.0626  0.0003  0.1624
  902YOPE   NH313241   7.709   4.321   5.057  0.0074 -0.3702  0.0623
  902YOPE   PO413242   8.115   4.295   4.970 -0.0932 -0.1274  0.3365
  902YOPE   GL113243   8.232   4.292   5.419 -0.2120 -0.4270  0.2579
  902YOPE   GL213244   8.144   4.085   5.525  0.0310  0.2227  0.1477
  902YOPE   C1A13245   8.431   4.447   5.739  0.0682  0.2051  0.2629
  902YOPE   D2A13246   8.574   4.250   6.072  0.0618  0.1604  0.3599
  902YOPE   C3A13247   8.343   4.012   6.426 -0.0440 -0.0378 -0.2040
  902YOPE   C4A13248   8.130   4.169   6.765  0.1728 -0.1577 -0.3220
  902YOPE   C1B13249   7.852   3.800   5.778  0.1121 -0.1743 -0.1048
  902YOPE   C2B13250   7.871   3.742   6.237  0.0130 -0.1115 -0.3946
  902YOPE   D3B13251   7.814   3.865   6.614 -0.1752 -0.5113 -0.3361
  902YOPE   C4B13252   7.551   4.061   6.896  0.1679 -0.1251  0.0160
  903YOPE   NH313253   7.926  13.196   5.175 -0.2024 -0.1698 -0.0177
  903YOPE   PO413254   8.106  12.879   5.467 -0.0269  0.0917 -0.1228
  903YOPE   GL113255   7.836  12.850   5.997 -0.1596  0.0070 -0.3673
  903YOPE   GL213256   7.938  13.004   6.341  0.0017  0.3784  0.0769
  903YOPE   C1A13257   7.779  12.539   6.255  0.0449 -0.0109  0.1391
  903YOPE   D2A13258   8.039  12.506   6.520 -0.0059  0.0801 -0.1001
  903YOPE   C3A13259   8.126  12.709   6.889  0.4023  0.3396  0.0795
  903YOPE   C4A13260   8.476  12.832   7.050  0.1798  0.3329 -0.1536
  903YOPE   C1B13261   7.640  13.046   6.683  0.1593  0.2316  0.0749
  903YOPE   C2B13262   7.241  12.834   6.934  0.0418  0.1857  0.2250
  903YOPE   D3B13263   6.853  12.788   6.829 -0.1914 -0.2287 -0.0717
  903YOPE   C4B13264   6.461  12.925   6.749 -0.0726  0.0364 -0.1215
  904YOPE   NH313265  13.655  15.641   5.788  0.1822 -0.0710  0.2948
  904YOPE   PO413266  13.476  16.020   5.732  0.1348  0.0071  0.2339
  904YOPE   GL113267  13.146  15.788   6.064  0.2193 -0.3834  0.5143
  904YOPE   GL213268  13.203  15.351   6.007 -0.0839 -0.3356 -0.0918
  904YOPE   C1A13269  13.085  15.587   6.484  0.0690 -0.5306  0.2664
  904YOPE   D2A13270  12.998  15.317   6.812  0.2643 -0.4195  0.3226
  904YOPE   C3A13271  13.301  14.987   6.986 -0.1057 -0.0861  0.1740
  904YOPE   C4A13272  13.334  14.572   7.012  0.0393  0.2494  0.2019
  904YOPE   C1B13273  12.819  15.090   5.966 -0.0400  0.0531  0.2499
  904YOPE   C2B13274  12.895  14.685   6.092  0.1662 -0.3056  0.1833
  904YOPE   D3B13275  12.934  14.195   6.348  0.0976  0.3611  0.2805
  904YOPE   C4B13276  13.154  14.156   6.719 -0.1731  0.0324 -0.0549
  905YOPE   NH313277   7.961  19.152   4.817 -0.2027 -0.3521  0.1660
  905YOPE   PO413278   7.852  18.921   5.152 -0.0310 -0.1406  0.0180
  905YOPE   GL113279   7.518  19.052   5.445 -0.1074 -0.0278  0.1253
  905YOPE   GL213280   7.137  19.146   5.495 -0.0328  0.0404 -0.1893
  905YOPE   C1A13281   7.496  18.933   5.859  0.0949 -0.0048 -0.1242
  905YOPE   D2A13282   7.505  18.937   6.158  0.2402  0.1789 -0.1019
  905YOPE   C3A13283   7.243  19.218   6.241  0.0586 -0.3379 -0.1692
  905YOPE   C4A13284   7.188  19.544   6.459 -0.0373 -0.2230  0.0679
  905YOPE   C1B13285   6.967  19.340   5.780 -0.0331 -0.0880 -0.1355
  905YOPE   C2B13286   6.789  19.642   6.114 -0.1474  0.3114  0.0216
  905YOPE   D3B13287   6.910  19.985   6.425 -0.1084 -0.1857 -0.1191
  905YOPE   C4B13288   6.945  20.301   6.153  0.0591  0.0845 -0.3342
  906YOPE   NH313289  18.996  15.597   5.749  0.2134  0.3711 -0.0078
  906YOPE   PO413290  19.080  15.955   5.452 -0.0176  0.2182  0.0415
  906YOPE   GL113291  19.220  16.054   5.915  0.1235  0.1842 -0.2756
  906YOPE   GL213292  18.953  15.907   6.084 -0.0164 -0.1382  0.0525
  906YOPE   C1A13293  19.328  15.997   6.391 -0.1077 -0.1646 -0.0621
  906YOPE   D2A13294  19.416  15.705   6.734  0.1436  0.4005  0.0083
  906YOPE   C3A13295  19.510  15.713   7.193 -0.0390 -0.0102  0.3030
  906YOPE   C4A13296  19.559  15.326   7.428  0.3746 -0.0914  0.1623
  906YOPE   C1B13297  18.807  16.047   6.518 -0.1371 -0.0604 -0.2373
  906YOPE   C2B13298  18.688  16.128   6.933 -0.1882  0.3101  0.0030
  906YOPE   D3B13299  18.577  16.186   7.250  0.1074  0.0708  0.1101
  906YOPE   C4B13300  18.603  16.493   7.646 -0.1126 -0.4046 -0.1540
  907YOPE   NH313301   0.618   9.672   5.351 -0.1041 -0.1874 -0.0897
  907YOPE   PO413302   1.007   9.592   5.142  0.2183  0.0294  0.0183
  907YOPE   GL113303   0.981   9.371   5.638  0.4005  0.1263 -0.0100
  907YOPE   GL213304   1.097   8.996   5.634  0.1594 -0.3073  0.0900
  907YOPE   C1A13305   1.202   9.386   6.118 -0.0776  0.3116  0.0831
  907YOPE   D2A13306   1.405   9.701   6.401 -0.1272  0.0740  0.1437
  907YOPE   C3A13307   1.606   9.469   6.752 -0.0108 -0.0543  0.0571
  907YOPE   C4A13308   1.816   9.596   7.134 -0.0467 -0.4616  0.2138
  907YOPE   C1B13309   0.798   8.827   5.988  0.2257  0.0681 -0.0095
  907YOPE   C2B13310   0.652   8.986   6.371 -0.0995 -0.0937  0.1660
  907YOPE   D3B13311   0.176   9.010   6.473 -0.1112  0.4617 -0.2522
  907YOPE   C4B13312   0.007   8.883   6.777  0.1297 -0.0376 -0.0088
  908YOPE   NH313313   2.013  12.760   5.472 -0.3643 -0.2318 -0.1099
  908YOPE   PO413314   2.113  12.289   5.630  0.1404 -0.0755  0.3532
  908YOPE   GL113315   2.214  12.296   6.019 -0.3193 -0.0090 -0.2068
  908YOPE   GL213316   2.455  12.093   5.972 -0.2276  0.3066  0.2170
  908YOPE   C1A13317   2.302  12.190   6.506  0.1591  0.1666  0.0172
  908YOPE   D2A13318   2.550  11.918   6.707 -0.0859 -0.0290  0.0782
  908YOPE   C3A13319   2.960  12.170   6.654  0.1047  0.0035 -0.1608
  908YOPE   C4A13320   3.423  12.008   6.826  0.1697 -0.3407 -0.1565
  908YOPE   C1B13321   2.721  11.790   6.233  0.2309  0.0225  0.1214
  908YOPE   C2B13322   2.906  11.587   6.579  0.1883 -0.3490 -0.0803
  908YOPE   D3B13323   3.336  11.472   6.863 -0.1468 -0.0989 -0.0332
  908YOPE   C4B13324   3.591  11.332   7.146  0.1827  0.2517  0.2919
  909YOPE   NH313325   9.900   2.864   5.531  0.0663 -0.2063  0.3883
  909YOPE   PO413326  10.202   2.580   5.249 -0.2814  0.0097 -0.0328
  909YOPE   GL113327  10.348   2.513   5.585  0.3538 -0.1486 -0.2715
  909YOPE   GL213328  10.419   2.854   5.652 -0.0668  0.2799  0.1708
  909YOPE   C1A13329  10.254   2.487   6.005 -0.0531  0.0911 -0.1610
  909YOPE   D2A13330  10.500   2.613   6.260 -0.1676  0.1045 -0.3104
  909YOPE   C3A13331  10.493   2.891   6.554  0.0957 -0.2008  0.0064
  909YOPE   C4A13332  10.895   3.138   6.653 -0.1809 -0.3928 -0.1188
  909YOPE   C1B13333  10.238   3.136   6.012  0.0288 -0.2967  0.0350
  909YOPE   C2B13334  10.108   3.240   6.330 -0.0367 -0.1772 -0.1032
  909YOPE   D3B13335  10.044   3.145   6.784 -0.0798 -0.1898  0.2406
  909YOPE   C4B13336  10.151   3.113   7.264  0.1358  0.0182 -0.0539
  910YOPE   NH313337  18.635   9.936   5.236  0.1459  0.2151  0.2353
  910YOPE   PO413338  18.791  10.310   5.122 -0.1260  0.0085  0.0112
  910YOPE   GL113339  18.885  10.335   5.655  0.4810 -0.1697 -0.4052
  910YOPE   GL213340  18.554  10.480   5.951  0.4894 -0.0800 -0.4010
  910YOPE   C1A13341  18.887  10.205   6.171  0.2369  0.2109  0.1242
  910YOPE   D2A13342  18.899   9.805   6.440 -0.0608 -0.0512  0.3871
  910YOPE   C3A13343  18.502   9.641   6.328  0.0749 -0.0040  0.0877
  910YOPE   C4A13344  18.354   9.507   5.986  0.1730 -0.1023 -0.0795
  910YOPE   C1B13345  18.603  10.510   6.524 -0.2509 -0.1173  0.0371
  910YOPE   C2B13346  18.727  10.407   7.006  0.1377 -0.1173  0.0551
  910YOPE   D3B13347  19.080  10.172   7.199  0.1454  0.1832  0.2165
  910YOPE   C4B13348  19.536  10.260   7.396  0.0251  0.0708  0.1543
  911YOPE   NH313349   3.662   1.197   5.377  0.0513  0.0683  0.0665
  911YOPE   PO413350   3.665   0.759   5.340  0.3823  0.3316  0.1815
  911YOPE   GL113351   3.566   0.684   5.736 -0.2506  0.1144  0.0082
  911YOPE   GL213352   3.797   0.377   5.776  0.1430  0.0534 -0.1743
  911YOPE   C1A13353   3.174   0.795   5.931  0.2232  0.0320 -0.0333
  911YOPE   D2A13354   2.900   0.595   6.306 -0.0007 -0.4287  0.1283
  911YOPE   C3A13355   2.400   0.527   6.363 -0.0751  0.0138  0.1262
  911YOPE   C4A13356   2.169   0.302   6.526  0.2260 -0.1301  0.1178
  911YOPE   C1B13357   4.163   0.422   6.135 -0.0232  0.1481  0.0147
  911YOPE   C2B13358   4.277   0.415   6.575 -0.0962  0.1017  0.5086
  911YOPE   D3B13359   4.186   0.359   7.002  0.1169 -0.2466 -0.0407
  911YOPE   C4B13360   4.212   0.354   7.435  0.2828  0.1085  0.0610
  912YOPE   NH313361   0.621   5.434   5.023  0.2110  0.3202 -0.2429
  912YOPE   PO413362   0.206   5.475   5.272  0.0965  0.0383 -0.1549
  912YOPE   GL113363  -0.170   5.596   5.525  0.1997 -0.3023  0.1638
  912YOPE   GL213364  -0.263   5.944   5.532  0.3983  0.2502  0.2263
  912YOPE   C1A13365  -0.495   5.603   5.808 -0.0220  0.0003 -0.3339
  912YOPE   D2A13366  -0.535   5.815   6.271  0.1178 -0.1773 -0.1364
  912YOPE   C3A13367  -0.683   5.423   6.556  0.0498 -0.0681  0.1328
  912YOPE   C4A13368  -0.787   5.244   6.884 -0.1600  0.0790  0.0123
  912YOPE   C1B13369   0.166   5.852   5.842  0.1299 -0.3277  0.1223
  912YOPE   C2B13370   0.367   6.018   6.277 -0.1828 -0.0346  0.1937
  912YOPE   D3B13371   0.401   5.675   6.601  0.0248  0.0387  0.4035
  912YOPE   C4B13372   0.240   5.466   6.967  0.5621  0.1788  0.1807
  913YOPE   NH313373  15.776   1.822   5.278  0.2499  0.0681  0.1479
  913YOPE   PO413374  15.681   2.234   5.171  0.2899 -0.1583  0.0528
  913YOPE   GL113375  15.780   2.177   5.702 -0.0970 -0.0859  0.2795
  913YOPE   GL213376  15.993   1.931   5.697 -0.0339 -0.2461  0.1873
  913YOPE   C1A13377  15.774   2.097   6.160 -0.0155  0.0684 -0.1390
  913YOPE   D2A13378  15.389   2.055   6.403 -0.3838 -0.0108  0.1330
  913YOPE   C3A13379  15.033   2.264   6.639 -0.5595  0.0998  0.3354
  913YOPE   C4A13380  14.897   2.348   6.974 -0.1648 -0.1523  0.1975
  913YOPE   C1B13381  16.139   1.755   6.018 -0.1729  0.0206  0.1105
  913YOPE   C2B13382  16.082   1.400   6.416  0.0300  0.1220  0.1106
  913YOPE   D3B13383  16.333   1.097   6.673  0.2828 -0.0348  0.1207
  913YOPE   C4B13384  16.240   0.796   7.007  0.0374  0.1112  0.0162
  914YOPE   NH313385   6.369  18.581   5.160 -0.1612  0.0081 -0.1012
  914YOPE   PO413386   6.349  18.201   5.141  0.2557 -0.1005  0.2379
  914YOPE   GL113387   6.549  18.204   5.582 -0.1518 -0.4826  0.2011
  914YOPE   GL213388   6.439  17.867   5.539  0.5362  0.2483 -0.1978
  914YOPE   C1A13389   6.609  18.344   5.912  0.2404  0.2525 -0.0848
  914YOPE   D2A13390   6.497  18.266   6.270 -0.0255 -0.0299 -0.0089
  914YOPE   C3A13391   6.743  18.173   6.594 -0.0468  0.1554  0.0714
  914YOPE   C4A13392   7.009  18.039   6.761 -0.1295  0.0184  0.0379
  914YOPE   C1B13393   6.792  17.857   5.943 -0.2967  0.3872  0.0683
  914YOPE   C2B13394   6.862  17.716   6.261  0.1394 -0.1982  0.1320
  914YOPE   D3B13395   6.684  17.655   6.709 -0.3984 -0.2213  0.0447
  914YOPE   C4B13396   6.579  17.521   7.007 -0.1242 -0.0207  0.0913
  915YOPE   NH313397   8.149   7.709   5.104 -0.0110  0.3615 -0.4584
  915YOPE   PO413398   8.206   8.119   5.242 -0.0839  0.0638 -0.3272
  915YOPE   GL113399   7.887   7.917   5.498  0.0137  0.2396  0.0481
  915YOPE   GL213400   7.558   7.915   5.207 -0.1580 -0.0142  0.0209
  915YOPE   C1A13401   7.774   7.910   5.887 -0.1738  0.0370 -0.1962
  915YOPE   D2A13402   7.797   7.794   6.271 -0.2224  0.2977 -0.0192
  915YOPE   C3A13403   8.050   7.757   6.642  0.0350 -0.2437  0.0187
  915YOPE   C4A13404   8.370   7.617   6.805 -0.1045  0.2212  0.1051
  915YOPE   C1B13405   7.323   7.846   5.555  0.1756  0.0707  0.4463
  915YOPE   C2B13406   7.327   7.828   5.963 -0.0633 -0.0009 -0.2424
  915YOPE   D3B13407   7.300   7.787   6.534 -0.1982  0.2160  0.0255
  915YOPE   C4B13408   7.190   8.095   6.783  0.0386  0.2101 -0.0283
  916YOPE   NH313409   5.234  13.739   5.139 -0.0835 -0.0664  0.3996
  916YOPE   PO413410   5.292  13.468   5.481 -0.3781 -0.0548 -0.1015
  916YOPE   GL113411   5.112  13.437   5.836  0.1254  0.2374 -0.0726
  916YOPE   GL213412   5.394  13.114   5.899  0.4276  0.1557  0.0914
  916YOPE   C1A13413   4.895  13.426   6.215 -0.0423  0.2395 -0.0135
  916YOPE   D2A13414   4.889  13.708   6.675 -0.3971  0.1280 -0.1368
  916YOPE   C3A13415   4.735  13.394   6.920 -0.1291  0.2324  0.1106
  916YOPE   C4A13416   4.907  13.026   7.252 -0.1824  0.0971 -0.0997
  916YOPE   C1B13417   5.210  13.083   6.269 -0.2386  0.0641 -0.3077
  916YOPE   C2B13418   5.230  13.148   6.760 -0.1539  0.0842 -0.0083
  916YOPE   D3B13419   5.393  12.937   7.086 -0.3063 -0.2180 -0.1831
  916YOPE   C4B13420   5.218  12.617   7.377  0.0871  0.2847 -0.0372
  917YOPE   NH313421  11.399   5.638   5.318 -0.1568 -0.0353 -0.0601
  917YOPE   PO413422  11.753   5.803   5.467  0.2416  0.0004 -0.0372
  917YOPE   GL113423  11.784   5.694   5.854  0.0163  0.4211  0.0866
  917YOPE   GL213424  11.571   5.429   5.913 -0.2079 -0.1484 -0.0791
  917YOPE   C1A13425  12.044   5.746   6.291  0.2636 -0.2882  0.0945
  917YOPE   D2A13426  12.371   5.658   6.569 -0.1452  0.0003  0.0826
  917YOPE   C3A13427  12.363   5.514   7.019 -0.1829  0.0563 -0.0999
  917YOPE   C4A13428  12.576   5.601   7.418  0.0167  0.1177 -0.0350
  917YOPE   C1B13429  11.242   5.572   6.102  0.0201 -0.0405 -0.0077
  917YOPE   C2B13430  11.009   5.955   5.998  0.0969  0.4962  0.4417
  917YOPE   D3B13431  10.900   6.285   5.748  0.2901  0.4100  0.2962
  917YOPE   C4B13432  10.467   6.436   5.474 -0.2307  0.2171  0.3668
  918YOPE   NH313433  18.567   7.126   5.204 -0.1167  0.0623 -0.1046
  918YOPE   PO413434  18.655   6.785   5.037 -0.0444 -0.0739  0.3532
  918YOPE   GL113435  18.292   6.683   5.226  0.1696  0.1105  0.4158
  918YOPE   GL213436  18.107   7.015   5.413  0.1447 -0.3160 -0.3154
  918YOPE   C1A13437  18.286   6.636   5.733 -0.0627 -0.1344 -0.0550
  918YOPE   D2A13438  18.621   6.758   6.134 -0.0193 -0.0919  0.1921
  918YOPE   C3A13439  19.034   6.598   6.292  0.3155 -0.0594 -0.2104
  918YOPE   C4A13440  19.142   6.387   6.571  0.0669 -0.0093  0.3285
  918YOPE   C1B13441  18.207   7.109   5.863 -0.0438  0.1899  0.2834
  918YOPE   C2B13442  18.172   7.019   6.309 -0.1158 -0.1556  0.0101
  918YOPE   D3B13443  18.087   6.987   6.819 -0.0237  0.0323  0.2451
  918YOPE   C4B13444  17.787   6.896   7.072  0.0643  0.1085 -0.0540
  919YOPE   NH313445   9.485  10.176   5.202  0.0467  0.2674 -0.2298
  919YOPE   PO413446   9.735  10.243   5.509 -0.1492  0.1855 -0.1137
  919YOPE   GL113447  10.061  10.143   5.779 -0.0623  0.1293  0.0934
  919YOPE   GL213448   9.988  10.353   6.120 -0.3796 -0.1253  0.1382
  919YOPE   C1A13449  10.605  10.132   5.755  0.1529 -0.2542  0.0753
  919YOPE   D2A13450  11.020  10.120   5.915  0.0784 -0.2836  0.1893
  919YOPE   C3A13451  10.918  10.153   6.311 -0.3321  0.1124  0.3632
  919YOPE   C4A13452  10.953  10.369   6.637 -0.1994  0.2257 -0.0838
  919YOPE   C1B13453   9.980  10.448   6.542 -0.0775 -0.0045 -0.4033
  919YOPE   C2B13454   9.932  10.408   6.986 -0.1556 -0.3703 -0.4307
  919YOPE   D3B13455  10.259  10.309   7.262 -0.1694 -0.1031 -0.0516
  919YOPE   C4B13456  10.596   9.980   7.428 -0.1508 -0.2175  0.2192
  920YOPE   NH313457   7.306   9.611   5.468  0.0311 -0.1372 -0.3093
  920YOPE   PO413458   7.761   9.794   5.415 -0.4241 -0.1012 -0.3767
  920YOPE   GL113459   7.765   9.756   5.864  0.2869  0.0900  0.2440
  920YOPE   GL213460   7.462   9.833   5.886 -0.0541  0.1938  0.0459
  920YOPE   C1A13461   7.759   9.513   6.246 -0.2677 -0.1702  0.0106
  920YOPE   D2A13462   7.777   9.566   6.739 -0.1169  0.1149  0.3654
  920YOPE   C3A13463   7.985   9.198   6.853 -0.1626 -0.0974  0.4099
  920YOPE   C4A13464   8.214   9.017   7.193  0.0324  0.1098  0.3771
  920YOPE   C1B13465   7.253   9.707   6.229  0.0998 -0.1302 -0.0004
  920YOPE   C2B13466   7.359   9.806   6.622  0.5410  0.1954  0.3540
  920YOPE   D3B13467   7.407   9.897   7.031 -0.3682  0.0312  0.1996
  920YOPE   C4B13468   7.329  10.046   7.470  0.1260  0.2042 -0.2581
  921POPC   NC313469  16.638   9.629   5.284  0.0013  0.1803  0.3507
  921POPC   PO413470  17.042   9.527   5.389  0.1776 -0.0442  0.2772
  921POPC   GL113471  16.783   9.541   5.798 -0.1340 -0.0569  0.3182
  921POPC   GL213472  16.406   9.648   5.791 -0.0316  0.2729 -0.1750
  921POPC   C1A13473  16.664   9.722   6.176 -0.0065  0.0836  0.0221
  921POPC   D2A13474  16.502   9.697   6.551 -0.0722 -0.2382  0.0998
  921POPC   C3A13475  16.017   9.802   6.651 -0.0774  0.1468 -0.4335
  921POPC   C4A13476  15.853  10.250   6.606 -0.4814 -0.1248 -0.2514
  921POPC   C1B13477  16.142   9.700   6.170 -0.3393 -0.0241 -0.2689
  921POPC   C2B13478  15.776   9.930   6.251 -0.2678  0.1931 -0.0891
  921POPC   C3B13479  15.470   9.850   6.674 -0.1452 -0.0100 -0.0381
  921POPC   C4B13480  15.202  10.102   6.986 -0.0912  0.1117  0.1764
  922POPC   NC313481   7.360   2.648   5.279  0.1190  0.0627  0.1122
  922POPC   PO413482   7.462   3.054   5.295 -0.1499  0.1884 -0.1461
  922POPC   GL113483   7.632   2.872   5.683  0.0641  0.0007  0.0453
  922POPC   GL213484   7.866   2.813   5.703 -0.1078 -0.0759  0.0478
  922POPC   C1A13485   7.627   2.639   6.063  0.1255 -0.2145 -0.1348
  922POPC   D2A13486   7.648   2.703   6.451 -0.4225  0.2600  0.0488
  922POPC   C3A13487   7.688   2.431   6.885  0.1006 -0.0250  0.1628
  922POPC   C4A13488   7.947   2.418   7.269 -0.0028 -0.1760  0.1947
  922POPC   C1B13489   8.169   2.873   6.003  0.0696  0.3487 -0.1544
  922POPC   C2B13490   8.461   2.724   6.217 -0.1325 -0.0913  0.1248
  922POPC   C3B13491   8.631   2.352   6.389  0.3700  0.0744  0.0341
  922POPC   C4B13492   8.475   1.903   6.354  0.1504 -0.1581 -0.1230
  923POPC   NC313493   8.058   9.606   5.092 -0.1507 -0.0312 -0.3044
  923POPC   PO413494   8.153   9.455   5.506 -0.0165 -0.2712  0.1285
  923POPC   GL113495   8.197   9.488   5.959 -0.2602 -0.1860 -0.3425
  923POPC   GL213496   8.436   9.651   6.037  0.0491 -0.2052 -0.0431
  923POPC   C1A13497   8.185   9.480   6.493  0.2416 -0.0340 -0.2744
  923POPC   D2A13498   8.331   9.589   6.926  0.0491 -0.0527 -0.4594
  923POPC   C3A13499   8.568  10.000   6.880 -0.1257 -0.1048  0.1009
  923POPC   C4A13500   8.982  10.176   6.945  0.1545  0.0452  0.2644
  923POPC   C1B13501   8.367   9.940   6.337  0.1359 -0.0752 -0.3877
  923POPC   C2B13502   8.625  10.279   6.437  0.1447 -0.0377  0.0810
  923POPC   C3B13503   9.075  10.303   6.467  0.1761 -0.1303  0.3370
  923POPC   C4B13504   9.458  10.496   6.368 -0.0547  0.3151 -0.1597
  924POPC   NC313505  12.618  10.850   5.195  0.0618  0.0772  0.1784
  924POPC   PO413506  12.904  11.055   5.537  0.0020 -0.3226  0.1432
  924POPC   GL113507  12.820  11.184   6.039  0.3099  0.0697  0.3118
  924POPC   GL213508  12.547  11.362   6.154 -0.2630 -0.0650 -0.5460
  924POPC   C1A13509  13.138  11.169   6.427  0.0065 -0.2085  0.2087
  924POPC   D2A13510  13.449  10.877   6.824 -0.1126 -0.2417  0.2274
  924POPC   C3A13511  13.738  11.204   6.974 -0.1793  0.1360  0.1815
  924POPC   C4A13512  13.783  11.634   6.819 -0.2289 -0.0354 -0.2659
  924POPC   C1B13513  12.647  11.469   6.562  0.0250 -0.0141  0.0710
  924POPC   C2B13514  12.933  11.734   6.729  0.0584 -0.0359 -0.1452
  924POPC   C3B13515  12.891  11.726   7.144 -0.4366 -0.1825 -0.1376
  924POPC   C4B13516  12.943  12.025   7.471  0.2185  0.0313 -0.0031
  925POPC   NC313517  18.672  12.827   5.367  0.1910  0.0130 -0.0953
  925POPC   PO413518  18.395  12.469   5.577 -0.3506  0.1463 -0.0554
  925POPC   GL113519  18.449  12.634   5.952  0.0150 -0.2673 -0.3675
  925POPC   GL213520  18.730  12.744   6.065  0.1059  0.1718  0.1462
  925POPC   C1A13521  18.276  12.870   6.300  0.1873  0.1140  0.0431
  925POPC   D2A13522  18.120  12.799   6.585  0.3028 -0.1892 -0.1551
  925POPC   C3A13523  18.329  12.572   6.812  0.0650 -0.1716 -0.0401
  925POPC   C4A13524  18.585  12.393   7.240  0.1558  0.0841  0.1045
  925POPC   C1B13525  18.814  12.663   6.420 -0.0951  0.1199  0.0171
  925POPC   C2B13526  18.811  12.801   6.823  0.0830 -0.2389  0.3156
  925POPC   C3B13527  18.574  12.916   7.241 -0.0767  0.0980  0.1851
  925POPC   C4B13528  18.555  13.196   7.483 -0.2604  0.0982 -0.0223
  926POPC   NC313529   4.219   9.393   5.504  0.1456 -0.0421  0.1135
  926POPC   PO413530   3.877   9.136   5.444  0.2023  0.0144 -0.0621
  926POPC   GL113531   3.945   9.134   5.848  0.1391  0.1060 -0.2169
  926POPC   GL213532   4.239   9.118   5.918 -0.2692  0.2518 -0.0090
  926POPC   C1A13533   3.722   9.165   6.224 -0.2438 -0.1747 -0.1619
  926POPC   D2A13534   3.725   9.090   6.566  0.1075 -0.1837 -0.2511
  926POPC   C3A13535   3.741   9.327   6.876  0.2890 -0.1793  0.2920
  926POPC   C4A13536   3.658   9.593   7.231 -0.1373 -0.0685  0.1344
  926POPC   C1B13537   4.269   9.052   6.254 -0.0126  0.1976  0.0158
  926POPC   C2B13538   4.285   8.848   6.520 -0.1333  0.1518  0.0924
  926POPC   C3B13539   4.231   8.690   6.977 -0.0268  0.1285 -0.0444
  926POPC   C4B13540   4.343   8.226   7.213 -0.1279 -0.0661  0.4427
  927POPC   NC313541  16.295   5.152   5.257 -0.1883  0.1827 -0.2407
  927POPC   PO413542  16.103   5.570   5.037  0.1918  0.2509  0.2215
  927POPC   GL113543  15.950   5.511   5.405  0.1540  0.3401 -0.0289
  927POPC   GL213544  15.891   5.698   5.679  0.3873 -0.1345  0.1189
  927POPC   C1A13545  15.891   5.252   5.817  0.2824 -0.2364  0.0058
  927POPC   D2A13546  15.703   5.198   6.192  0.0498  0.2654  0.0756
  927POPC   C3A13547  15.669   5.341   6.659 -0.2178  0.1371 -0.2377
  927POPC   C4A13548  15.332   5.661   6.839 -0.0132 -0.0310 -0.0980
  927POPC   C1B13549  15.911   5.744   6.177 -0.0025 -0.1398  0.1315
  927POPC   C2B13550  16.194   6.010   6.423  0.0285  0.0227  0.3222
  927POPC   C3B13551  16.351   6.135   6.702  0.3200  0.0701 -0.1724
  927POPC   C4B13552  16.354   5.856   7.021  0.3299 -0.1658 -0.3326
  928POPC   NC313553   6.864   4.831   4.452 -0.0466  0.2890 -0.1467
  928POPC   PO413554   6.908   5.088   4.812  0.1626  0.1764  0.0467
  928POPC   GL113555   6.918   4.979   5.290  0.0440 -0.1718 -0.1374
  928POPC   GL213556   6.840   4.615   5.239 -0.1369 -0.1340 -0.1891
  928POPC   C1A13557   6.924   4.972   5.718 -0.2175 -0.0113 -0.1907
  928POPC   D2A13558   6.755   4.952   6.256 -0.0016  0.0694  0.1368
  928POPC   C3A13559   6.380   4.779   6.411  0.0966 -0.1363 -0.2953
  928POPC   C4A13560   5.974   5.070   6.170 -0.2630  0.3830  0.0863
  928POPC   C1B13561   6.668   4.539   5.650  0.3432 -0.0224  0.3906
  928POPC   C2B13562   6.583   4.433   6.155 -0.2756  0.0458  0.1804
  928POPC   C3B13563   6.610   4.095   6.489  0.0455 -0.0285 -0.0622
  928POPC   C4B13564   6.607   4.054   6.937 -0.1743 -0.0337  0.6552
  929POPC   NC313565  11.067   2.201   4.857 -0.1663  0.1465  0.2444
  929POPC   PO413566  11.218   2.480   5.149  0.1011 -0.0286  0.0767
  929POPC   GL113567  11.077   2.381   5.587  0.2355 -0.0513 -0.1516
  929POPC   GL213568  11.313   2.638   5.790  0.2899 -0.0033  0.1135
  929POPC   C1A13569  10.830   2.311   5.901  0.2975 -0.1709  0.2493
  929POPC   D2A13570  10.768   2.037   6.243  0.1580  0.0849  0.0629
  929POPC   C3A13571  10.977   1.885   6.495 -0.0949 -0.0306 -0.2002
  929POPC   C4A13572  10.918   1.623   6.784  0.0309 -0.1018 -0.3825
  929POPC   C1B13573  11.761   2.535   5.848 -0.2570 -0.1214  0.1398
  929POPC   C2B13574  12.127   2.396   5.958 -0.4001 -0.1117 -0.3913
  929POPC   C3B13575  12.298   2.432   6.401 -0.0942 -0.1330 -0.0848
  929POPC   C4B13576  12.210   2.455   6.797 -0.1842  0.0142 -0.1127
  930POPC   NC313577   3.162   8.027   5.276  0.2314 -0.0614  0.2715
  930POPC   PO413578   3.501   8.235   5.480 -0.2411  0.1162  0.2369
  930POPC   GL113579   3.650   8.289   5.831 -0.2028  0.0550  0.2235
  930POPC   GL213580   3.358   8.662   5.913 -0.3432 -0.0163  0.1438
  930POPC   C1A13581   3.869   8.022   6.027  0.1027  0.0949  0.1758
  930POPC   D2A13582   3.845   8.057   6.491  0.3409 -0.1357  0.2189
  930POPC   C3A13583   3.573   7.887   6.748  0.1447 -0.1707 -0.2358
  930POPC   C4A13584   3.349   7.425   6.792 -0.1315 -0.4192 -0.1620
  930POPC   C1B13585   3.252   8.981   6.118  0.0424  0.2084  0.0016
  930POPC   C2B13586   3.168   8.917   6.539 -0.1017 -0.0442 -0.1075
  930POPC   C3B13587   3.490   8.904   6.962  0.3725 -0.1547 -0.2362
  930POPC   C4B13588   3.705   8.616   7.144 -0.1438 -0.0160  0.0834
  931POPC   NC313589  13.878   1.764   5.076 -0.2927  0.1215  0.1082
  931POPC   PO413590  14.344   1.590   5.179 -0.3020 -0.0863  0.1369
  931POPC   GL113591  14.554   1.307   5.461  0.1976  0.3307  0.1046
  931POPC   GL213592  14.500   1.399   5.735  0.3947 -0.0653 -0.1884
  931POPC   C1A13593  14.633   0.929   5.690  0.0976  0.2570 -0.1042
  931POPC   D2A13594  15.080   0.754   5.933  0.3998 -0.2363 -0.0655
  931POPC   C3A13595  15.109   0.696   6.410  0.0243 -0.1479  0.1445
  931POPC   C4A13596  15.014   0.553   6.818  0.1660  0.1784 -0.0506
  931POPC   C1B13597  14.664   1.686   6.110  0.0709 -0.2679  0.2854
  931POPC   C2B13598  14.819   2.088   6.170 -0.1876  0.3049  0.2601
  931POPC   C3B13599  15.076   2.548   6.208 -0.1720 -0.1220 -0.2975
  931POPC   C4B13600  14.970   2.980   6.330 -0.3707 -0.0924  0.0270
  932POPC   NC313601   1.416   0.664   4.670  0.2374 -0.3268 -0.1437
  932POPC   PO413602   1.645   0.480   5.069  0.1158 -0.0948 -0.3379
  932POPC   GL113603   1.866   0.442   5.573  0.0458 -0.2673 -0.1856
  932POPC   GL213604   1.960   0.741   5.689 -0.2620 -0.1177  0.1359
  932POPC   C1A13605   2.129   0.369   6.000  0.3290 -0.1740 -0.1605
  932POPC   D2A13606   2.335  -0.012   6.255  0.1919  0.3659  0.0970
  932POPC   C3A13607   2.100  -0.171   6.575 -0.3232 -0.1549 -0.1496
  932POPC   C4A13608   2.120  -0.043   6.962  0.0572  0.1739 -0.0047
  932POPC   C1B13609   2.397   0.966   5.803  0.4099  0.1899  0.3104
  932POPC   C2B13610   2.662   0.978   6.040 -0.1466 -0.0072 -0.1268
  932POPC   C3B13611   2.969   1.159   6.293  0.0813  0.2014  0.2394
  932POPC   C4B13612   3.233   1.295   5.939 -0.0742  0.0715  0.2310
  933POPC   NC313613  16.551  11.999   5.267 -0.5022  0.0906  0.1540
  933POPC   PO413614  17.053  11.941   5.287 -0.1845  0.1562 -0.0366
  933POPC   GL113615  16.961  12.008   5.694 -0.0088 -0.1934  0.2983
  933POPC   GL213616  16.638  12.073   5.755 -0.2199  0.1925 -0.2037
  933POPC   C1A13617  16.946  12.086   6.173 -0.1291 -0.0325  0.1739
  933POPC   D2A13618  17.019  12.074   6.683  0.2320  0.0379 -0.1308
  933POPC   C3A13619  17.063  11.620   6.941 -0.1516 -0.1432  0.1954
  933POPC   C4A13620  16.827  11.463   7.279 -0.0105  0.2811 -0.0605
  933POPC   C1B13621  16.427  12.010   6.084 -0.2977  0.0587 -0.0919
  933POPC   C2B13622  16.173  11.741   6.411 -0.0183  0.3761 -0.2341
  933POPC   C3B13623  16.063  11.521   6.692 -0.1845  0.1938 -0.2321
  933POPC   C4B13624  15.973  11.053   6.949  0.2144  0.2213 -0.4123
  934POPC   NC313625  19.139   9.362   5.524  0.2698  0.2922 -0.0680
  934POPC   PO413626  18.759   9.380   5.241  0.0998 -0.0446  0.3341
  934POPC   GL113627  18.730   9.584   5.649  0.1039  0.3706  0.0298
  934POPC   GL213628  18.497   9.864   5.731 -0.0074 -0.3542 -0.0227
  934POPC   C1A13629  18.827   9.400   6.068  0.0006  0.1115 -0.1531
  934POPC   D2A13630  18.983   9.254   6.475 -0.0518  0.0071 -0.1805
  934POPC   C3A13631  19.119   8.952   6.292 -0.0549 -0.1709  0.0302
  934POPC   C4A13632  19.336   8.606   6.341 -0.2456  0.2095  0.0631
  934POPC   C1B13633  18.357  10.017   6.098  0.3277  0.0310  0.0926
  934POPC   C2B13634  18.164   9.954   6.426  0.5064  0.1182  0.4171
  934POPC   C3B13635  17.838   9.945   6.890 -0.2742  0.1763 -0.4365
  934POPC   C4B13636  17.578   9.779   7.239 -0.4392 -0.0569  0.0193
  935POPC   NC313637  12.978  16.074   5.274 -0.3125  0.0455 -0.0225
  935POPC   PO413638  12.539  15.934   5.460  0.2776 -0.1350 -0.3000
  935POPC   GL113639  12.542  15.633   5.762  0.1448  0.0747 -0.3201
  935POPC   GL213640  12.310  15.796   5.910  0.0485  0.3286 -0.2255
  935POPC   C1A13641  12.640  15.639   6.241  0.0783  0.0980 -0.1179
  935POPC   D2A13642  12.663  15.798   6.688  0.0880  0.4805  0.3600
  935POPC   C3A13643  12.339  15.496   6.997  0.1758  0.2818  0.0247
  935POPC   C4A13644  12.004  15.195   7.290 -0.1075  0.0043  0.0679
  935POPC   C1B13645  12.623  16.147   6.155  0.1260  0.0288  0.3174
  935POPC   C2B13646  12.934  16.232   6.511  0.1504  0.1798 -0.0868
  935POPC   C3B13647  12.958  16.213   7.030  0.3082  0.1589  0.3503
  935POPC   C4B13648  12.806  16.520   7.353  0.3677 -0.0756 -0.0779
  936POPC   NC313649  14.581  18.329   5.330 -0.0955  0.2276 -0.0767
  936POPC   PO413650  14.590  18.773   5.265  0.0689  0.0124  0.2743
  936POPC   GL113651  14.754  18.753   5.636 -0.0722  0.0843  0.0490
  936POPC   GL213652  15.001  18.531   5.528 -0.0580  0.2143 -0.1204
  936POPC   C1A13653  14.707  18.782   6.113 -0.2684 -0.1351  0.0505
  936POPC   D2A13654  14.578  18.765   6.555 -0.3605  0.0206 -0.0101
  936POPC   C3A13655  14.301  18.448   6.645 -0.0031 -0.0269 -0.0552
  936POPC   C4A13656  14.292  18.415   7.088  0.3524  0.3760  0.1001
  936POPC   C1B13657  14.949  18.369   5.964  0.1120 -0.0986  0.2798
  936POPC   C2B13658  14.597  18.163   6.304 -0.2704 -0.0140 -0.1934
  936POPC   C3B13659  14.206  18.126   6.167  0.2236 -0.5007 -0.2300
  936POPC   C4B13660  13.814  18.171   6.327  0.1351 -0.0766  0.1750
  937POPC   NC313661  13.273  19.055   5.580 -0.4134  0.1140 -0.1242
  937POPC   PO413662  13.494  19.483   5.489  0.0604 -0.0597  0.0439
  937POPC   GL113663  13.635  19.596   5.847 -0.2540  0.1730  0.0661
  937POPC   GL213664  14.015  19.390   5.856  0.1151 -0.1498  0.1406
  937POPC   C1A13665  13.801  19.660   6.248  0.0147  0.2871 -0.1180
  937POPC   D2A13666  13.994  19.979   6.611 -0.0012  0.1096 -0.0998
  937POPC   C3A13667  13.617  20.088   6.826  0.2297  0.2385 -0.1616
  937POPC   C4A13668  13.406  20.065   7.211 -0.0575 -0.3227 -0.2486
  937POPC   C1B13669  13.714  19.168   6.123  0.3116 -0.0835  0.2273
  937POPC   C2B13670  13.780  18.872   6.398  0.1264 -0.0071 -0.1021
  937POPC   C3B13671  13.839  18.582   6.565 -0.2439 -0.2716  0.0665
  937POPC   C4B13672  13.984  18.129   6.787 -0.3730  0.2626  0.2283
  938POPC   NC313673   3.729  13.736   5.074 -0.0810  0.0914 -0.3257
  938POPC   PO413674   3.408  13.893   5.382 -0.6177 -0.1593  0.1320
  938POPC   GL113675   3.370  13.876   5.761  0.0247 -0.3461 -0.4379
  938POPC   GL213676   3.482  14.169   5.995 -0.0289  0.0084  0.0651
  938POPC   C1A13677   3.090  13.627   5.963 -0.1117 -0.2624 -0.1569
  938POPC   D2A13678   2.799  13.520   5.694  0.1522 -0.1911 -0.1048
  938POPC   C3A13679   2.429  13.523   6.006 -0.2907  0.4211  0.1257
  938POPC   C4A13680   2.486  13.713   6.341  0.3174  0.0574  0.1834
  938POPC   C1B13681   3.427  14.132   6.360  0.1946 -0.3405 -0.0245
  938POPC   C2B13682   3.519  13.790   6.543 -0.2605 -0.0697  0.1095
  938POPC   C3B13683   3.942  13.583   6.559  0.1453 -0.2970  0.0831
  938POPC   C4B13684   4.354  13.508   6.665  0.2889  0.1174  0.0959
  939POPC   NC313685  10.478   3.996   5.163  0.1373 -0.2646 -0.1017
  939POPC   PO413686  10.655   4.425   5.063 -0.1221 -0.2220  0.3977
  939POPC   GL113687  10.826   4.163   5.523 -0.3528 -0.0017  0.0746
  939POPC   GL213688  11.093   3.829   5.477 -0.1427  0.0546  0.0137
  939POPC   C1A13689  10.803   4.028   5.888  0.2820  0.1407 -0.0096
  939POPC   D2A13690  10.772   3.954   6.347 -0.3203  0.0960  0.1187
  939POPC   C3A13691  10.936   3.963   6.665  0.2122 -0.1209  0.0454
  939POPC   C4A13692  10.897   3.931   7.041 -0.2242  0.1819 -0.2501
  939POPC   C1B13693  11.098   3.638   5.810  0.0421  0.0908  0.0137
  939POPC   C2B13694  11.496   3.518   6.083 -0.0649 -0.1357  0.2792
  939POPC   C3B13695  11.694   3.215   6.255 -0.4324 -0.1725  0.1200
  939POPC   C4B13696  11.527   2.779   6.231  0.0288  0.2563 -0.0388
  940POPC   NC313697   5.607   2.130   5.325 -0.2045 -0.1494 -0.0001
  940POPC   PO413698   5.190   2.004   5.182 -0.5860  0.1163 -0.0335
  940POPC   GL113699   5.076   1.888   5.576 -0.1567  0.5127  0.0719
  940POPC   GL213700   5.198   1.674   5.744  0.0229 -0.1542 -0.2395
  940POPC   C1A13701   4.655   1.782   5.865 -0.1855  0.0713  0.1490
  940POPC   D2A13702   4.436   1.970   6.155 -0.0903 -0.0538 -0.0105
  940POPC   C3A13703   4.042   1.918   6.181 -0.0113 -0.1024 -0.2244
  940POPC   C4A13704   3.657   2.216   6.277  0.0832  0.0647  0.0364
  940POPC   C1B13705   5.024   1.956   6.226 -0.0054 -0.3389 -0.1734
  940POPC   C2B13706   4.695   2.024   6.582 -0.3105  0.0233 -0.0261
  940POPC   C3B13707   4.553   2.196   6.998 -0.1362 -0.1471 -0.1377
  940POPC   C4B13708   4.073   2.308   7.151 -0.0455  0.0400  0.1972
  941POPC   NC313709   5.844  15.405   5.049  0.1287 -0.4222  0.2700
  941POPC   PO413710   5.456  15.463   5.039  0.1617  0.0553 -0.1784
  941POPC   GL113711   5.412  15.618   5.463  0.1372  0.1785 -0.3917
  941POPC   GL213712   5.113  15.495   5.591  0.1420 -0.1143 -0.2689
  941POPC   C1A13713   5.201  16.006   5.608 -0.0606 -0.0392  0.0148
  941POPC   D2A13714   5.059  16.376   5.814  0.0850 -0.1100 -0.0144
  941POPC   C3A13715   5.126  16.794   5.674 -0.1602  0.1193  0.2309
  941POPC   C4A13716   5.381  17.095   6.021  0.2560  0.1979  0.0902
  941POPC   C1B13717   4.773  15.632   5.824 -0.2604 -0.0877 -0.1015
  941POPC   C2B13718   4.521  15.464   6.008 -0.0633  0.1379 -0.0066
  941POPC   C3B13719   4.483  15.144   6.382 -0.0494 -0.0189 -0.3116
  941POPC   C4B13720   4.565  14.879   6.831 -0.0648  0.6051 -0.1485
  942POPC   NC313721  10.841  18.770   4.858 -0.2030 -0.1970  0.4847
  942POPC   PO413722  10.714  18.416   5.085 -0.0587  0.6146  0.0124
  942POPC   GL113723  10.727  18.663   5.423 -0.0077 -0.0408 -0.2905
  942POPC   GL213724  11.078  18.668   5.520  0.5635 -0.0185  0.1178
  942POPC   C1A13725  10.725  18.807   5.888 -0.0947  0.1774 -0.1119
  942POPC   D2A13726  10.605  18.749   6.333 -0.0023  0.1094 -0.2093
  942POPC   C3A13727  10.526  19.115   6.548 -0.3358 -0.1613 -0.1224
  942POPC   C4A13728  10.653  19.090   6.940 -0.0530 -0.0167 -0.0766
  942POPC   C1B13729  11.181  18.661   5.851 -0.0973 -0.0069  0.2435
  942POPC   C2B13730  11.352  18.774   6.224  0.3682  0.0916  0.0005
  942POPC   C3B13731  11.566  19.030   6.509  0.0141 -0.2258  0.0417
  942POPC   C4B13732  11.741  19.043   7.000  0.2405  0.1049 -0.0327
  943POPC   NC313733  11.955  13.127   5.464  0.0502  0.2435 -0.3487
  943POPC   PO413734  11.581  13.040   5.383  0.1183  0.0303 -0.0251
  943POPC   GL113735  11.547  12.968   5.843 -0.2255  0.1685  0.3100
  943POPC   GL213736  11.602  13.285   5.887 -0.0081  0.2728 -0.0339
  943POPC   C1A13737  11.795  12.990   6.233  0.2796 -0.3206 -0.0773
  943POPC   D2A13738  11.857  12.606   6.428  0.3049 -0.1535 -0.2126
  943POPC   C3A13739  11.743  12.540   6.943  0.0334 -0.0155  0.5277
  943POPC   C4A13740  11.474  12.447   7.329  0.1384  0.0606  0.1437
  943POPC   C1B13741  11.327  13.576   6.139 -0.0797  0.2962 -0.1195
  943POPC   C2B13742  11.193  13.514   6.577 -0.0708  0.1498  0.0160
  943POPC   C3B13743  11.181  13.253   6.838 -0.0951 -0.3081 -0.2123
  943POPC   C4B13744  11.312  12.842   6.876  0.1671 -0.0663  0.1530
  944POPC   NC313745  12.867   8.291   4.791 -0.3706  0.2030 -0.0839
  944POPC   PO413746  12.740   8.133   5.138 -0.1007 -0.0474 -0.0276
  944POPC   GL113747  12.649   8.297   5.504  0.0163  0.0133  0.0247
  944POPC   GL213748  12.626   7.966   5.625  0.2176 -0.0052 -0.2965
  944POPC   C1A13749  12.409   8.567   5.772  0.0500  0.2265  0.3720
  944POPC   D2A13750  12.529   8.911   6.179  0.1577 -0.0387  0.1321
  944POPC   C3A13751  12.134   8.790   6.403  0.2417  0.0174 -0.0716
  944POPC   C4A13752  11.787   8.638   6.773 -0.3382 -0.0248 -0.1428
  944POPC   C1B13753  12.970   8.014   5.994  0.1014  0.0714  0.0791
  944POPC   C2B13754  13.111   7.721   6.351 -0.4014 -0.0638  0.0805
  944POPC   C3B13755  13.379   7.552   6.670  0.1745 -0.1378  0.0309
  944POPC   C4B13756  13.432   7.393   7.164 -0.3084 -0.0110 -0.4006
  945POPC   NC313757  11.899   9.459   5.078 -0.2958  0.0162 -0.2703
  945POPC   PO413758  11.709   9.252   5.415  0.0273 -0.1156 -0.1104
  945POPC   GL113759  11.696   9.449   5.760 -0.0784  0.1281  0.1831
  945POPC   GL213760  11.385   9.275   5.891 -0.2126 -0.1533  0.1315
  945POPC   C1A13761  11.354   9.734   6.020  0.1067  0.2149  0.1626
  945POPC   D2A13762  11.293   9.844   6.466  0.0457 -0.1192 -0.0422
  945POPC   C3A13763  11.104   9.586   6.724 -0.0316 -0.0759  0.2300
  945POPC   C4A13764  10.862   9.351   7.149 -0.2721 -0.1750 -0.0468
  945POPC   C1B13765  11.551   9.377   6.345  0.2344 -0.3972  0.0164
  945POPC   C2B13766  11.615   9.513   6.671 -0.3301 -0.2410 -0.0870
  945POPC   C3B13767  11.911   9.653   7.067  0.0672 -0.0655 -0.1203
  945POPC   C4B13768  12.349   9.552   7.167  0.4655 -0.1726 -0.2733
  946POPC   NC313769  13.911   1.290   5.322  0.0394 -0.2400  0.0970
  946POPC   PO413770  13.633   1.579   5.506  0.1934  0.0754  0.0203
  946POPC   GL113771  13.483   1.670   5.901  0.0675  0.1411  0.3675
  946POPC   GL213772  13.348   1.514   6.080 -0.0589 -0.1847  0.0454
  946POPC   C1A13773  13.169   1.953   6.170  0.0162  0.1229  0.0068
  946POPC   D2A13774  13.269   2.321   6.458 -0.5046 -0.0153 -0.2593
  946POPC   C3A13775  13.555   2.506   6.567  0.1706 -0.2075  0.1904
  946POPC   C4A13776  13.905   2.437   6.235 -0.4249 -0.2314  0.1249
  946POPC   C1B13777  13.397   1.503   6.538  0.2072  0.2746  0.2567
  946POPC   C2B13778  13.349   1.128   6.848  0.0631 -0.0511  0.1053
  946POPC   C3B13779  12.963   0.869   6.938  0.1227 -0.0943 -0.1472
  946POPC   C4B13780  12.516   0.861   6.952 -0.0502  0.0365  0.0356
  947POPC   NC313781   9.836  15.224   5.506 -0.3816 -0.2212 -0.4475
  947POPC   PO413782   9.437  15.248   5.409 -0.1015  0.0391 -0.3333
  947POPC   GL113783   9.358  15.548   5.797 -0.1191 -0.3556 -0.0473
  947POPC   GL213784   9.116  15.591   5.938 -0.2661  0.1701  0.4428
  947POPC   C1A13785   9.548  15.852   6.164 -0.1459 -0.0146  0.2266
  947POPC   D2A13786   9.440  15.863   6.527 -0.2253 -0.2777  0.0318
  947POPC   C3A13787   9.539  15.592   6.873 -0.2622 -0.1600  0.0528
  947POPC   C4A13788   9.897  15.222   7.036 -0.4998 -0.2406 -0.2488
  947POPC   C1B13789   9.497  15.339   6.188  0.4664  0.1048  0.1330
  947POPC   C2B13790   9.587  15.012   6.465  0.1752  0.0261 -0.0246
  947POPC   C3B13791   9.444  14.919   6.846  0.0484 -0.4090  0.0600
  947POPC   C4B13792   9.423  14.607   7.217 -0.0051 -0.1471  0.0747
  948POPC   NC313793  10.307   9.122   5.586 -0.0315 -0.1041  0.1283
  948POPC   PO413794  10.535   9.506   5.601 -0.0365 -0.3648  0.1335
  948POPC   GL113795  10.414   9.779   6.000 -0.4404  0.0578  0.0115
  948POPC   GL213796  10.697   9.777   6.043  0.1861 -0.0799  0.1967
  948POPC   C1A13797  10.195   9.813   6.478  0.0859 -0.1491 -0.2108
  948POPC   D2A13798   9.781   9.546   6.681  0.0909  0.0838  0.2323
  948POPC   C3A13799  10.005   9.355   7.114  0.1200  0.2646  0.0740
  948POPC   C4A13800   9.972   8.899   7.203 -0.1459  0.0457  0.1232
  948POPC   C1B13801  10.701   9.681   6.441 -0.0334 -0.3349  0.1520
  948POPC   C2B13802  10.481   9.622   6.829  0.2221 -0.1163 -0.1383
  948POPC   C3B13803  10.218   9.808   7.094  0.2457  0.1966 -0.1472
  948POPC   C4B13804  10.080   9.871   7.536  0.1085  0.0312  0.1051
  949POPC   NC313805  19.358  13.643   5.582 -0.2063 -0.0790 -0.3748
  949POPC   PO413806  19.785  13.522   5.704  0.1614 -0.1175 -0.1581
  949POPC   GL113807  19.899  13.302   5.980  0.0031  0.1664 -0.0085
  949POPC   GL213808  19.663  13.400   6.202 -0.0241 -0.2091  0.0478
  949POPC   C1A13809  19.985  13.008   6.394  0.0870  0.0520  0.0894
  949POPC   D2A13810  20.032  12.952   6.863  0.2317 -0.2749  0.0684
  949POPC   C3A13811  19.871  12.912   7.323  0.1306  0.0217 -0.4153
  949POPC   C4A13812  19.933  13.031   7.822 -0.0462 -0.1657  0.0569
  949POPC   C1B13813  19.647  13.372   6.641 -0.2429 -0.3906 -0.0928
  949POPC   C2B13814  19.669  13.281   7.053 -0.1217  0.2405 -0.1536
  949POPC   C3B13815  19.494  13.228   7.483  0.0130 -0.0756  0.2770
  949POPC   C4B13816  19.221  13.471   7.662  0.0660  0.0077  0.0629
  950POPC   NC313817   2.058  18.303   5.749 -0.2828  0.0224  0.2395
  950POPC   PO413818   2.369  18.560   5.540 -0.0187 -0.4021  0.1794
  950POPC   GL113819   2.668  18.662   5.834  0.1203 -0.0370 -0.1633
  950POPC   GL213820   2.920  18.391   5.930 -0.1441 -0.2277  0.3465
  950POPC   C1A13821   2.789  18.927   6.165  0.1162 -0.1497 -0.1222
  950POPC   D2A13822   3.102  19.051   6.593 -0.2817  0.0817  0.1532
  950POPC   C3A13823   3.025  19.030   7.024 -0.1103 -0.2146  0.0668
  950POPC   C4A13824   2.854  19.130   7.404 -0.0932  0.1553  0.3930
  950POPC   C1B13825   2.634  18.417   6.316 -0.3727 -0.0966  0.1192
  950POPC   C2B13826   2.801  18.353   6.685  0.0361  0.2792 -0.0318
  950POPC   C3B13827   3.070  18.520   6.974 -0.1667 -0.1820 -0.2486
  950POPC   C4B13828   3.309  18.721   7.359 -0.1288 -0.1059  0.0901
  951POPC   NC313829  16.525  16.124   5.379  0.0367  0.1694  0.0726
  951POPC   PO413830  16.553  16.591   5.404  0.0807  0.3292  0.1851
  951POPC   GL113831  16.146  16.697   5.624 -0.1648  0.1937 -0.1093
  951POPC   GL213832  15.824  16.532   5.729  0.1453  0.2084  0.0176
  951POPC   C1A13833  16.074  16.960   6.045  0.0136 -0.1973 -0.1286
  951POPC   D2A13834  15.946  16.907   6.393  0.5799  0.1047 -0.0939
  951POPC   C3A13835  16.116  16.885   6.830  0.2371  0.0886  0.3860
  951POPC   C4A13836  16.417  17.144   7.147  0.0828 -0.0228  0.1881
  951POPC   C1B13837  15.631  16.617   6.070 -0.2879 -0.1830 -0.0748
  951POPC   C2B13838  15.501  16.694   6.484  0.2226  0.3415 -0.3275
  951POPC   C3B13839  15.657  16.761   6.897 -0.4042 -0.0546 -0.3408
  951POPC   C4B13840  15.817  17.053   7.207  0.3462 -0.1941 -0.3331
  952POPC   NC313841   2.289   2.792   5.107  0.1308  0.0827  0.2828
  952POPC   PO413842   2.264   3.201   5.423  0.0376  0.1390  0.4781
  952POPC   GL113843   2.255   3.114   5.902 -0.5160  0.2113  0.0411
  952POPC   GL213844   2.242   2.904   6.115  0.1539  0.3459  0.0666
  952POPC   C1A13845   2.543   3.412   6.241  0.3509 -0.1314 -0.1165
  952POPC   D2A13846   2.913   3.453   6.365 -0.2429  0.2556 -0.0180
  952POPC   C3A13847   3.305   3.811   6.151 -0.2331 -0.3991 -0.3487
  952POPC   C4A13848   3.458   4.231   6.008  0.0376 -0.0340 -0.0812
  952POPC   C1B13849   2.328   2.526   6.254 -0.0704 -0.0531  0.4050
  952POPC   C2B13850   2.294   2.521   6.623 -0.1377 -0.0421 -0.1467
  952POPC   C3B13851   2.053   2.152   6.781  0.0670 -0.0458 -0.1597
  952POPC   C4B13852   2.247   2.081   7.133 -0.0507 -0.0348  0.0473
  953POPC   NC313853   5.501  17.473   5.515 -0.0411  0.3058  0.2679
  953POPC   PO413854   5.058  17.648   5.527  0.2722 -0.0642  0.2291
  953POPC   GL113855   4.990  17.858   5.805 -0.1861  0.0110 -0.2253
  953POPC   GL213856   5.203  17.996   5.983  0.2068  0.1961 -0.0229
  953POPC   C1A13857   4.505  17.788   5.912 -0.2377 -0.3927 -0.3193
  953POPC   D2A13858   4.269  17.577   6.265 -0.2496 -0.1766  0.3872
  953POPC   C3A13859   3.968  17.489   6.416  0.2359 -0.2813 -0.5308
  953POPC   C4A13860   3.880  17.521   6.886 -0.2356 -0.2265  0.1078
  953POPC   C1B13861   4.796  18.054   6.300 -0.0853 -0.0981  0.0312
  953POPC   C2B13862   4.625  17.705   6.640 -0.1998 -0.3279  0.2965
  953POPC   C3B13863   4.429  17.662   7.077  0.1139 -0.0897 -0.4137
  953POPC   C4B13864   4.371  17.668   7.474 -0.2421  0.0767 -0.0246
  954POPC   NC313865   5.848  18.247   4.928  0.0281 -0.4778  0.1794
  954POPC   PO413866   5.925  18.267   5.370  0.1675 -0.1157 -0.0212
  954POPC   GL113867   5.946  18.279   5.773 -0.0427 -0.2078  0.1070
  954POPC   GL213868   6.179  18.119   5.915  0.1742 -0.0866  0.0251
  954POPC   C1A13869   5.640  18.226   6.067  0.1134 -0.0369  0.0494
  954POPC   D2A13870   5.415  18.040   6.458 -0.3084 -0.0162  0.0385
  954POPC   C3A13871   5.393  18.190   6.878 -0.1530 -0.0344  0.5180
  954POPC   C4A13872   5.628  18.125   7.192  0.0395 -0.1521  0.3561
  954POPC   C1B13873   6.042  18.419   6.242  0.3191  0.3248 -0.1442
  954POPC   C2B13874   6.343  18.409   6.686 -0.0330  0.1167 -0.0030
  954POPC   C3B13875   6.636  18.350   7.067 -0.2086  0.1151 -0.1399
  954POPC   C4B13876   7.046  18.211   7.218  0.2066 -0.0006  0.1490
  955POPC   NC313877   8.656  13.774   5.196 -0.0040  0.1450 -0.0855
  955POPC   PO413878   8.549  14.005   5.541 -0.0378 -0.0070 -0.0383
  955POPC   GL113879   8.416  13.946   5.994  0.0785 -0.3780 -0.2042
  955POPC   GL213880   8.208  14.219   5.936 -0.0487 -0.4621 -0.3031
  955POPC   C1A13881   8.438  14.064   6.404  0.3707  0.1189 -0.0417
  955POPC   D2A13882   8.516  14.196   6.849  0.2503 -0.3069 -0.3110
  955POPC   C3A13883   8.841  14.032   6.703  0.0346  0.2448 -0.2043
  955POPC   C4A13884   8.997  13.594   6.764  0.0489  0.0095 -0.3714
  955POPC   C1B13885   8.303  14.624   6.160 -0.1248 -0.0923 -0.1733
  955POPC   C2B13886   8.262  14.767   6.559 -0.1925 -0.1423  0.1376
  955POPC   C3B13887   8.535  14.701   6.932 -0.0684 -0.1059  0.2225
  955POPC   C4B13888   8.534  14.791   7.335 -0.1155  0.0748  0.1747
  956POPC   NC313889   5.421  16.790   5.122  0.0764  0.0006 -0.1744
  956POPC   PO413890   5.772  17.149   5.258 -0.0961  0.1964  0.1875
  956POPC   GL113891   5.991  17.318   5.587 -0.4240 -0.0248 -0.1672
  956POPC   GL213892   5.863  17.289   5.822  0.0373 -0.0463  0.1135
  956POPC   C1A13893   6.239  17.567   5.902 -0.2318 -0.1035  0.5174
  956POPC   D2A13894   6.327  17.781   6.290 -0.1001 -0.1222  0.0480
  956POPC   C3A13895   5.978  17.926   6.489  0.4974  0.1756  0.2802
  956POPC   C4A13896   5.908  18.297   6.774  0.2863 -0.2309 -0.0508
  956POPC   C1B13897   5.816  16.938   6.059 -0.3087  0.2702  0.2159
  956POPC   C2B13898   5.506  16.729   6.455  0.3318 -0.0538  0.0312
  956POPC   C3B13899   5.387  16.414   6.758 -0.0044  0.1127 -0.2365
  956POPC   C4B13900   5.291  16.073   7.068  0.0188  0.0357  0.0693
  957POPC   NC313901   0.547  18.316   5.639 -0.0471 -0.0871  0.3508
  957POPC   PO413902   0.147  18.419   5.489 -0.1767 -0.3595  0.0367
  957POPC   GL113903   0.129  18.568   5.909  0.0873 -0.2168  0.1529
  957POPC   GL213904   0.255  18.865   5.937 -0.1207  0.1226 -0.1651
  957POPC   C1A13905   0.230  18.498   6.314  0.1182 -0.2720  0.1811
  957POPC   D2A13906  -0.101  18.334   6.676 -0.4854  0.0812 -0.3228
  957POPC   C3A13907  -0.089  18.431   7.072 -0.3066 -0.1017 -0.0362
  957POPC   C4A13908  -0.197  18.211   7.444  0.0069  0.1533  0.3298
  957POPC   C1B13909   0.513  18.872   6.363  0.1862  0.1356 -0.0198
  957POPC   C2B13910   0.869  18.502   6.469  0.1417 -0.0443 -0.2923
  957POPC   C3B13911   0.907  18.392   6.951 -0.0929  0.3824 -0.0959
  957POPC   C4B13912   0.880  18.353   7.437  0.0449 -0.0963  0.0870
  958POPC   NC313913   2.749   3.305   5.340 -0.3000  0.0959  0.1692
  958POPC   PO413914   2.911   3.789   5.448  0.0695  0.1871  0.0921
  958POPC   GL113915   2.910   3.541   5.859  0.0487  0.1291  0.2231
  958POPC   GL213916   2.844   3.844   6.006 -0.0795 -0.0106 -0.0262
  958POPC   C1A13917   3.262   3.365   5.997 -0.1507 -0.0824 -0.0323
  958POPC   D2A13918   3.530   3.015   6.140 -0.0934  0.0279 -0.1087
  958POPC   C3A13919   3.809   3.052   6.484 -0.2430 -0.0163  0.1376
  958POPC   C4A13920   3.964   3.146   6.918  0.0249 -0.3088 -0.0961
  958POPC   C1B13921   2.736   4.003   6.393  0.0885 -0.0798  0.1737
  958POPC   C2B13922   2.699   4.049   6.829 -0.1310 -0.0227 -0.1069
  958POPC   C3B13923   2.656   4.157   7.345 -0.1514  0.3564 -0.2141
  958POPC   C4B13924   2.465   4.264   7.742 -0.2350 -0.1400 -0.2278
  959POPC   NC313925  16.148  10.801   5.029  0.4210  0.1006 -0.0736
  959POPC   PO413926  15.972  10.379   5.007 -0.3108 -0.2059  0.0401
  959POPC   GL113927  16.138  10.174   5.382  0.1185  0.1729  0.2559
  959POPC   GL213928  16.100   9.838   5.390 -0.1225  0.1552 -0.3738
  959POPC   C1A13929  16.240  10.111   5.848  0.0920 -0.0283 -0.0234
  959POPC   D2A13930  16.213  10.188   6.281  0.1804  0.2942  0.3685
  959POPC   C3A13931  16.366  10.114   6.721  0.2828 -0.0825  0.0409
  959POPC   C4A13932  16.528  10.113   7.156  0.1025  0.0443  0.0200
  959POPC   C1B13933  15.863   9.793   5.743  0.4251  0.1999 -0.2099
  959POPC   C2B13934  15.546  10.061   5.844  0.4026 -0.3225  0.2843
  959POPC   C3B13935  15.336  10.511   5.839  0.1525 -0.0983 -0.0182
  959POPC   C4B13936  14.915  10.772   5.934  0.1889  0.0158 -0.0897
  960POPC   NC313937   7.069   3.860   4.796  0.1235 -0.2556  0.1600
  960POPC   PO413938   7.304   3.434   5.055  0.2810  0.2448  0.2551
  960POPC   GL113939   7.113   3.489   5.453 -0.4642  0.0074 -0.0831
  960POPC   GL213940   7.361   3.479   5.650 -0.0010  0.0112  0.1282
  960POPC   C1A13941   6.868   3.632   5.800  0.0301 -0.0243 -0.0209
  960POPC   D2A13942   6.910   3.682   6.272 -0.1565  0.2075 -0.0587
  960POPC   C3A13943   6.904   3.262   6.468  0.1958 -0.0959  0.1081
  960POPC   C4A13944   6.829   3.192   6.866 -0.1783  0.0821  0.2419
  960POPC   C1B13945   7.374   3.652   6.069 -0.0213 -0.0307 -0.1548
  960POPC   C2B13946   7.351   3.498   6.512 -0.1239 -0.1468  0.0136
  960POPC   C3B13947   7.364   3.529   6.874  0.0807 -0.3341  0.3827
  960POPC   C4B13948   7.020   3.612   7.220 -0.1768 -0.2809  0.2819
  961YOPC   NC313949   2.115   9.059   5.109  0.1204 -0.3630  0.4108
  961YOPC   PO413950   2.379   9.146   5.506  0.0946 -0.1098  0.2923
  961YOPC   GL113951   2.745   9.232   5.822  0.0876 -0.2565  0.0249
  961YOPC   GL213952   3.099   9.459   5.852 -0.0053  0.0694  0.1102
  961YOPC   C1A13953   2.764   9.142   6.252  0.1420 -0.2048 -0.2804
  961YOPC   D2A13954   2.670   8.839   6.572 -0.0875 -0.0993  0.0913
  961YOPC   C3A13955   2.355   8.605   6.522 -0.0363 -0.0867 -0.1841
  961YOPC   C4A13956   1.977   8.479   6.833 -0.0895 -0.0795  0.1632
  961YOPC   C1B13957   3.156   9.546   6.278  0.0630 -0.1387  0.1495
  961YOPC   C2B13958   3.288   9.401   6.624  0.0803  0.1634  0.2465
  961YOPC   D3B13959   3.237   9.461   7.032  0.0022 -0.0508  0.5135
  961YOPC   C4B13960   3.211   9.120   7.403 -0.0470 -0.2905  0.0307
  962YOPC   NC313961   3.131   6.055   5.247  0.0935 -0.1269  0.0296
  962YOPC   PO413962   3.522   5.925   5.381 -0.2488 -0.0906  0.0374
  962YOPC   GL113963   3.579   6.022   5.757 -0.0103 -0.0027  0.2148
  962YOPC   GL213964   3.636   6.435   5.825 -0.2238 -0.0754  0.2349
  962YOPC   C1A13965   3.312   6.138   6.104  0.2844  0.0842 -0.0438
  962YOPC   D2A13966   3.303   6.358   6.350  0.0458 -0.2271 -0.1276
  962YOPC   C3A13967   3.422   6.815   6.396  0.0163  0.4009 -0.0583
  962YOPC   C4A13968   3.265   7.191   6.430 -0.0447  0.1115  0.0589
  962YOPC   C1B13969   3.828   6.622   6.223 -0.0992  0.1123 -0.0132
  962YOPC   C2B13970   3.691   6.445   6.686 -0.0402  0.1668  0.0551
  962YOPC   D3B13971   4.001   6.374   7.110  0.1236 -0.1427  0.0316
  962YOPC   C4B13972   4.268   6.275   7.500 -0.1359 -0.1187  0.1119
  963YOPC   NC313973  17.223  12.216   4.883 -0.2224  0.3202 -0.0499
  963YOPC   PO413974  16.871  12.398   5.138  0.0617 -0.0715 -0.0175
  963YOPC   GL113975  16.878  12.604   5.501  0.1736  0.1026 -0.3303
  963YOPC   GL213976  16.534  12.542   5.526 -0.4016 -0.4469 -0.1084
  963YOPC   C1A13977  17.090  12.426   5.848  0.1836  0.0466 -0.1660
  963YOPC   D2A13978  17.478  12.376   5.842  0.0713 -0.1596 -0.0415
  963YOPC   C3A13979  17.789  12.105   5.886  0.1546 -0.1814 -0.0731
  963YOPC   C4A13980  17.910  11.859   6.273 -0.1282  0.2242 -0.0629
  963YOPC   C1B13981  16.583  12.534   5.972  0.0397 -0.0687  0.0461
  963YOPC   C2B13982  16.717  12.433   6.450  0.2191  0.0398  0.1430
  963YOPC   D3B13983  16.370  12.239   6.609 -0.1164 -0.0380  0.3228
  963YOPC   C4B13984  16.259  11.884   6.938  0.0149 -0.3033 -0.2338
  964YOPC   NC313985   7.806  12.520   5.575 -0.0755  0.0454  0.2988
  964YOPC   PO413986   8.295  12.368   5.469  0.2670  0.0731  0.1390
  964YOPC   GL113987   8.321  12.564   5.742 -0.1366  0.5167  0.1196
  964YOPC   GL213988   8.196  12.244   6.025  0.3284  0.0776 -0.3778
  964YOPC   C1A13989   8.389  12.765   6.127  0.0275 -0.2147  0.2508
  964YOPC   D2A13990   8.543  12.685   6.530  0.1202  0.2029  0.0269
  964YOPC   C3A13991   8.880  12.685   6.729 -0.3431 -0.3336  0.5797
  964YOPC   C4A13992   9.238  12.448   6.777  0.1931 -0.2520 -0.0707
  964YOPC   C1B13993   7.883  11.980   6.195  0.2576  0.1261  0.2145
  964YOPC   C2B13994   7.401  12.125   6.178 -0.1496  0.0095 -0.2956
  964YOPC   D3B13995   6.994  12.255   6.304  0.0391 -0.1971  0.3052
  964YOPC   C4B13996   6.693  12.460   6.472  0.0441 -0.1203 -0.4271
  965YOPC   NC313997   1.047  16.737   5.581  0.1128  0.1470 -0.0113
  965YOPC   PO413998   0.575  16.663   5.641 -0.2521  0.0331 -0.1877
  965YOPC   GL113999   0.404  16.875   6.113  0.2641  0.1714  0.2034
  965YOPC   GL214000   0.112  17.050   6.066 -0.0734 -0.2387 -0.3782
  965YOPC   C1A14001   0.358  16.904   6.566  0.2585 -0.0566  0.2833
  965YOPC   D2A14002   0.540  16.964   6.956 -0.4044  0.4514 -0.1869
  965YOPC   C3A14003   0.745  17.333   7.160 -0.1521 -0.2569 -0.1729
  965YOPC   C4A14004   1.123  17.118   7.362  0.1152 -0.2592 -0.2204
  965YOPC   C1B14005  -0.075  16.986   6.363  0.1814  0.2283  0.2475
  965YOPC   C2B14006  -0.025  17.088   6.786  0.1289  0.2085 -0.1392
  965YOPC   D3B14007  -0.105  16.790   7.058 -0.0001  0.0346  0.0916
  965YOPC   C4B14008   0.221  16.431   7.111 -0.3676 -0.2659  0.0088
  966YOPC   NC314009  18.006   3.946   5.245  0.0826 -0.2183  0.0495
  966YOPC   PO414010  17.692   3.610   5.208  0.2197  0.1868 -0.0495
  966YOPC   GL114011  17.513   3.723   5.699  0.0436 -0.0688 -0.0297
  966YOPC   GL214012  17.484   4.042   5.839 -0.1001  0.0533  0.1875
  966YOPC   C1A14013  17.607   3.706   6.212 -0.1401 -0.2838  0.0482
  966YOPC   D2A14014  17.467   3.440   6.540  0.2680 -0.1991  0.3657
  966YOPC   C3A14015  17.102   3.480   6.486 -0.2979 -0.0481  0.2251
  966YOPC   C4A14016  16.882   3.665   6.202  0.0679 -0.2352  0.4222
  966YOPC   C1B14017  17.186   4.021   6.208  0.0102 -0.0576 -0.1000
  966YOPC   C2B14018  17.168   3.927   6.494 -0.1536 -0.0731 -0.0974
  966YOPC   D3B14019  16.779   3.946   6.668 -0.0711 -0.0021 -0.1008
  966YOPC   C4B14020  16.473   4.134   6.746 -0.1039 -0.0085  0.4310
  967YOPC   NC314021  10.558  11.515   5.576  0.1309  0.1650 -0.2820
  967YOPC   PO414022  10.534  11.028   5.503 -0.0845  0.1589  0.1118
  967YOPC   GL114023  10.248  10.797   5.901  0.2099 -0.1405  0.0616
  967YOPC   GL214024  10.454  10.526   5.953  0.0411 -0.2974 -0.0706
  967YOPC   C1A14025   9.864  10.821   6.158  0.1354 -0.0687 -0.0175
  967YOPC   D2A14026   9.764  10.868   6.585 -0.3947 -0.1176  0.1083
  967YOPC   C3A14027  10.054  10.942   6.901 -0.3317 -0.3129 -0.3652
  967YOPC   C4A14028   9.963  10.901   7.304 -0.0860  0.0958  0.0175
  967YOPC   C1B14029  10.476  10.396   6.399  0.3165 -0.1675  0.0649
  967YOPC   C2B14030  10.453  10.257   6.781  0.4673  0.3603 -0.0541
  967YOPC   D3B14031  10.865   9.985   6.939  0.1303  0.0015 -0.0006
  967YOPC   C4B14032  11.264  10.024   6.941  0.0680  0.1831  0.0031
  968YOPC   NC314033  11.389   7.360   5.118  0.0576 -0.0827 -0.2145
  968YOPC   PO414034  10.943   7.422   5.131 -0.0242  0.1583 -0.3176
  968YOPC   GL114035  11.012   7.388   5.447 -0.0588 -0.0540 -0.2087
  968YOPC   GL214036  11.234   7.599   5.582 -0.1591 -0.0337 -0.1775
  968YOPC   C1A14037  10.886   7.171   5.743  0.2256 -0.2727 -0.0244
  968YOPC   D2A14038  10.441   7.354   5.981 -0.1694  0.0647 -0.0140
  968YOPC   C3A14039  10.174   7.584   6.209  0.1036  0.1375  0.0965
  968YOPC   C4A14040  10.140   7.535   6.676  0.1598  0.1975  0.1424
  968YOPC   C1B14041  11.283   7.237   5.978  0.1565  0.1979 -0.0358
  968YOPC   C2B14042  11.210   7.233   6.455  0.0804 -0.2306  0.1754
  968YOPC   D3B14043  11.113   6.929   6.679 -0.2615  0.1164 -0.2023
  968YOPC   C4B14044  10.903   6.810   7.049 -0.0875 -0.2470  0.1695
  969YOPC   NC314045  19.350   2.980   5.158 -0.3911 -0.4620  0.3113
  969YOPC   PO414046  19.126   2.656   5.314 -0.0554 -0.1436  0.0814
  969YOPC   GL114047  19.199   2.471   5.849 -0.1192  0.0135  0.2852
  969YOPC   GL214048  18.929   2.258   5.965 -0.3545 -0.1620  0.1761
  969YOPC   C1A14049  19.304   2.349   6.242  0.0897 -0.1135  0.1294
  969YOPC   D2A14050  19.545   2.214   6.636  0.2740  0.0327 -0.3352
  969YOPC   C3A14051  19.853   1.905   6.711 -0.1722 -0.0923  0.0137
  969YOPC   C4A14052  19.710   1.545   6.809 -0.0889 -0.0309 -0.0297
  969YOPC   C1B14053  18.759   2.655   6.262  0.0297 -0.0484 -0.1408
  969YOPC   C2B14054  18.576   3.026   6.202 -0.0822  0.0130  0.3442
  969YOPC   D3B14055  18.573   3.325   6.556  0.1546  0.5565 -0.0639
  969YOPC   C4B14056  18.339   3.401   6.830 -0.0865  0.0053  0.2255
  970YOPC   NC314057  14.124  19.054   5.185  0.2888  0.0404 -0.0645
  970YOPC   PO414058  14.279  18.958   5.628 -0.0308 -0.2643  0.4420
  970YOPC   GL114059  14.623  19.255   5.820  0.1997 -0.1854  0.0191
  970YOPC   GL214060  14.926  19.327   5.812  0.3000  0.0799 -0.1494
  970YOPC   C1A14061  14.469  19.556   6.190  0.0038  0.1308 -0.0047
  970YOPC   D2A14062  14.526  19.479   6.611  0.1428 -0.1494  0.0136
  970YOPC   C3A14063  14.992  19.468   6.722 -0.1469 -0.2612  0.2950
  970YOPC   C4A14064  15.285  19.528   6.381  0.1843  0.0975  0.3021
  970YOPC   C1B14065  14.931  19.182   6.284  0.3830 -0.2806 -0.1757
  970YOPC   C2B14066  14.938  18.993   6.758  0.0459 -0.3355 -0.0036
  970YOPC   D3B14067  14.632  19.114   7.111 -0.0044  0.1551  0.2775
  970YOPC   C4B14068  14.363  19.358   7.295  0.0282  0.1272  0.1020
  971YOPC   NC314069  15.675  11.622   4.853  0.0685 -0.1268  0.0883
  971YOPC   PO414070  15.297  11.225   4.945  0.1653  0.0475 -0.1788
  971YOPC   GL114071  15.382  11.028   5.289  0.1218  0.1737 -0.1121
  971YOPC   GL214072  15.683  10.842   5.320 -0.0351 -0.0262 -0.0704
  971YOPC   C1A14073  15.328  11.045   5.707 -0.2077  0.0339 -0.1328
  971YOPC   D2A14074  15.326  10.923   6.173  0.1167 -0.1210  0.0223
  971YOPC   C3A14075  15.102  10.659   6.381 -0.0403  0.1539 -0.0551
  971YOPC   C4A14076  14.926  10.630   6.785  0.1464  0.1341  0.0539
  971YOPC   C1B14077  15.989  10.614   5.686  0.1569  0.1206  0.2346
  971YOPC   C2B14078  15.847  10.431   6.040  0.1410 -0.0177 -0.1706
  971YOPC   D3B14079  15.689  10.636   6.382  0.0264 -0.0152 -0.1179
  971YOPC   C4B14080  15.810  11.065   6.517 -0.0365 -0.4448 -0.2484
  972YOPC   NC314081  13.510  10.917   5.373  0.1268 -0.0417  0.3047
  972YOPC   PO414082  13.617  10.716   5.719 -0.0318 -0.0814 -0.0601
  972YOPC   GL114083  13.363  10.427   5.967  0.0736 -0.2167  0.0857
  972YOPC   GL214084  12.958  10.621   5.931  0.1142 -0.0823 -0.2903
  972YOPC   C1A14085  13.258   9.995   6.128  0.0646  0.0069 -0.1810
  972YOPC   D2A14086  13.070   9.928   6.534  0.0326  0.0550  0.0136
  972YOPC   C3A14087  12.761   9.658   6.465  0.1888 -0.0327 -0.1721
  972YOPC   C4A14088  12.573   9.269   6.642 -0.2061  0.1407  0.2249
  972YOPC   C1B14089  13.018  10.634   6.325  0.2957  0.1058  0.0696
  972YOPC   C2B14090  13.077  10.440   6.698 -0.0733  0.0462 -0.0720
  972YOPC   D3B14091  13.455  10.405   6.960  0.2427 -0.2407  0.2263
  972YOPC   C4B14092  13.790  10.209   7.021 -0.2162  0.1419 -0.3947
  973YOPC   NC314093  11.371  17.823   5.319  0.2569  0.1092  0.1869
  973YOPC   PO414094  11.524  18.165   5.150 -0.2038 -0.1496 -0.2904
  973YOPC   GL114095  11.454  18.204   5.660 -0.0846 -0.3834 -0.1026
  973YOPC   GL214096  11.663  18.428   5.781  0.0775  0.2348 -0.0493
  973YOPC   C1A14097  11.257  18.140   6.005 -0.0131  0.0446  0.1160
  973YOPC   D2A14098  11.398  18.307   6.412  0.0345 -0.0764 -0.2299
  973YOPC   C3A14099  11.356  17.932   6.616 -0.2736 -0.0581  0.0143
  973YOPC   C4A14100  11.143  17.544   6.701  0.1423  0.2311 -0.1989
  973YOPC   C1B14101  11.880  18.498   6.179 -0.3212  0.2252 -0.2514
  973YOPC   C2B14102  11.819  18.586   6.585  0.1411 -0.1576 -0.3470
  973YOPC   D3B14103  11.452  18.497   6.887  0.8039  0.1048  0.0408
  973YOPC   C4B14104  11.326  18.516   7.342  0.3959 -0.1988  0.1970
  974YOPC   NC314105   1.328   6.030   5.098 -0.0442  0.0939 -0.0460
  974YOPC   PO414106   1.637   5.702   5.192 -0.1219  0.2957  0.2393
  974YOPC   GL114107   1.363   5.604   5.527  0.1636  0.0334 -0.0130
  974YOPC   GL214108   1.236   5.910   5.654 -0.1032 -0.0473  0.2834
  974YOPC   C1A14109   1.116   5.549   6.038 -0.0640 -0.2076 -0.2259
  974YOPC   D2A14110   1.238   5.672   6.442  0.0777 -0.1994  0.1267
  974YOPC   C3A14111   1.272   5.604   6.967 -0.0059  0.1282  0.2722
  974YOPC   C4A14112   1.618   5.364   7.174 -0.0763 -0.1038  0.1248
  974YOPC   C1B14113   1.310   6.017   6.047 -0.1100 -0.0596  0.0061
  974YOPC   C2B14114   0.913   6.117   6.243  0.1061  0.1270  0.0107
  974YOPC   D3B14115   0.919   6.069   6.698 -0.1762  0.0223  0.0015
  974YOPC   C4B14116   1.032   6.033   7.171 -0.2261  0.4352  0.2871
  975YOPC   NC314117   8.939  11.623   5.494 -0.3621 -0.0813  0.5698
  975YOPC   PO414118   9.014  11.193   5.695 -0.1058 -0.2737  0.2289
  975YOPC   GL114119   8.941  11.551   6.022 -0.0636 -0.1410  0.1217
  975YOPC   GL214120   9.250  11.737   5.952  0.1965  0.0417  0.1266
  975YOPC   C1A14121   8.781  11.737   6.510  0.1340  0.2188 -0.2442
  975YOPC   D2A14122   8.620  11.633   6.864 -0.1294 -0.2880 -0.0047
  975YOPC   C3A14123   8.540  11.972   7.227 -0.4844 -0.1397  0.1241
  975YOPC   C4A14124   8.600  12.440   7.399 -0.3106  0.0202  0.3625
  975YOPC   C1B14125   9.463  11.495   6.220 -0.0213 -0.0599 -0.0132
  975YOPC   C2B14126   9.699  11.559   6.573 -0.2414  0.0911  0.0063
  975YOPC   D3B14127   9.663  11.307   6.955  0.3337 -0.0627  0.0274
  975YOPC   C4B14128   9.186  11.167   7.148 -0.3895  0.0337 -0.0635
  976YOPC   NC314129   9.042   9.578   5.446  0.1731 -0.0615 -0.3917
  976YOPC   PO414130   9.153   9.961   5.646 -0.1742  0.0901  0.2412
  976YOPC   GL114131   9.044  10.022   6.078 -0.1733 -0.2133  0.2852
  976YOPC   GL214132   8.877   9.812   6.175  0.0114  0.5023  0.0505
  976YOPC   C1A14133   9.472   9.936   6.358 -0.0512  0.2118 -0.0011
  976YOPC   D2A14134   9.862  10.017   6.760  0.4111 -0.1576  0.3028
  976YOPC   C3A14135   9.700   9.998   7.241  0.1902  0.0503  0.3740
  976YOPC   C4A14136   9.630   9.661   7.474  0.0704  0.2259  0.1447
  976YOPC   C1B14137   8.956   9.782   6.576 -0.0742  0.1002 -0.1102
  976YOPC   C2B14138   8.888   9.576   6.927 -0.3208 -0.1037  0.0692
  976YOPC   D3B14139   8.727   9.746   7.402  0.0553 -0.1830  0.0904
  976YOPC   C4B14140   8.327   9.942   7.371  0.1799 -0.0904 -0.0887
  977YOPC   NC314141  16.576   6.168   5.124  0.3274  0.2619 -0.4139
  977YOPC   PO414142  16.167   5.954   5.399  0.0196 -0.1924  0.1139
  977YOPC   GL114143  16.460   6.186   5.727 -0.2129  0.1458  0.0207
  977YOPC   GL214144  16.400   5.964   5.948 -0.2426  0.2492 -0.2790
  977YOPC   C1A14145  16.814   6.110   5.997 -0.0239  0.3675 -0.5382
  977YOPC   D2A14146  17.165   5.943   5.971 -0.3285 -0.0005 -0.1508
  977YOPC   C3A14147  17.489   5.971   5.843  0.3280 -0.3574  0.0231
  977YOPC   C4A14148  17.928   5.847   5.868  0.0831 -0.1873  0.1398
  977YOPC   C1B14149  16.691   5.712   6.286 -0.1374 -0.0240  0.0289
  977YOPC   C2B14150  16.782   5.679   6.714 -0.3336  0.3592  0.0197
  977YOPC   D3B14151  16.884   5.348   7.144  0.0483 -0.1036  0.1082
  977YOPC   C4B14152  17.034   5.444   7.597  0.1605 -0.0848  0.1111
  978YOPC   NC314153   1.511   1.906   5.407  0.0536  0.3470 -0.0146
  978YOPC   PO414154   1.084   2.089   5.632  0.1697 -0.1550  0.0291
  978YOPC   GL114155   1.083   2.062   6.020  0.1617 -0.5836 -0.1441
  978YOPC   GL214156   1.370   2.046   6.164 -0.4228 -0.1361 -0.2931
  978YOPC   C1A14157   1.016   1.772   6.405  0.0968  0.1520 -0.5762
  978YOPC   D2A14158   0.812   1.537   6.746  0.3781  0.1522 -0.1090
  978YOPC   C3A14159   0.989   1.508   7.140  0.3028 -0.1728 -0.1836
  978YOPC   C4A14160   0.820   1.608   7.567 -0.2497 -0.1884  0.1141
  978YOPC   C1B14161   1.416   2.212   6.454  0.1574  0.2853  0.3703
  978YOPC   C2B14162   1.441   2.246   6.904  0.0133 -0.0117  0.2380
  978YOPC   D3B14163   1.087   2.498   7.032 -0.0513 -0.3884  0.2206
  978YOPC   C4B14164   0.914   2.880   7.025  0.2382  0.0224  0.2646
  979YOPC   NC314165   1.036  14.894   5.179 -0.1411  0.2805 -0.0695
  979YOPC   PO414166   0.927  14.760   5.494 -0.2590 -0.1330  0.0678
  979YOPC   GL114167   1.221  15.001   5.868 -0.0009 -0.2896  0.1033
  979YOPC   GL214168   0.951  15.153   6.086 -0.1095  0.1209 -0.1095
  979YOPC   C1A14169   1.335  14.936   6.401 -0.1448 -0.2864 -0.0389
  979YOPC   D2A14170   1.576  14.698   6.717 -0.1637  0.1375  0.0575
  979YOPC   C3A14171   1.603  14.252   6.661  0.1167 -0.1834  0.3747
  979YOPC   C4A14172   1.830  13.999   6.667 -0.2530 -0.0658 -0.2201
  979YOPC   C1B14173   0.986  15.268   6.486  0.1216  0.3648 -0.0432
  979YOPC   C2B14174   1.276  15.083   6.876 -0.1960 -0.1752  0.1943
  979YOPC   D3B14175   1.242  14.839   7.213  0.0347  0.0505  0.0947
  979YOPC   C4B14176   1.196  14.493   7.466  0.4137 -0.0257 -0.1292
  980YOPC   NC314177  15.320  18.797   5.132  0.2427 -0.0956  0.3244
  980YOPC   PO414178  15.807  19.044   5.221 -0.0490 -0.0655 -0.0141
  980YOPC   GL114179  15.880  19.026   5.658 -0.1987 -0.0003 -0.1116
  980YOPC   GL214180  16.178  19.126   5.712  0.2242 -0.0747 -0.0003
  980YOPC   C1A14181  15.752  18.786   6.041  0.2004 -0.2815  0.0433
  980YOPC   D2A14182  15.755  18.665   6.479  0.2330  0.0118 -0.0929
  980YOPC   C3A14183  15.876  18.866   6.807 -0.2111  0.2233  0.0974
  980YOPC   C4A14184  15.899  18.714   7.158  0.0882  0.0921 -0.1961
  980YOPC   C1B14185  16.290  19.580   5.965 -0.0463  0.0879 -0.0768
  980YOPC   C2B14186  16.074  19.908   6.178 -0.0674 -0.0604  0.3666
  980YOPC   D3B14187  16.061  20.075   6.498  0.2274  0.0009 -0.0316
  980YOPC   C4B14188  15.977  19.815   6.822 -0.1529  0.0901  0.3333
  981YOPC   NC314189   8.677   1.326   5.152 -0.1398 -0.1519 -0.5942
  981YOPC   PO414190   8.203   1.122   5.345  0.2619  0.1710 -0.0778
  981YOPC   GL114191   8.003   1.312   5.736  0.0647 -0.1193  0.1105
  981YOPC   GL214192   8.244   1.337   5.829 -0.0175 -0.1398 -0.0272
  981YOPC   C1A14193   7.661   1.360   6.095  0.3915 -0.0496 -0.1752
  981YOPC   D2A14194   7.862   1.215   6.464 -0.1882  0.1980  0.0742
  981YOPC   C3A14195   7.921   1.349   6.915  0.0217 -0.0903 -0.2099
  981YOPC   C4A14196   7.606   1.323   7.206  0.1208 -0.1490  0.1765
  981YOPC   C1B14197   8.576   1.438   6.113 -0.1006  0.3353  0.2291
  981YOPC   C2B14198   8.888   1.715   6.089  0.2525 -0.2348 -0.1326
  981YOPC   D3B14199   9.086   1.745   6.429 -0.2983 -0.0941 -0.2134
  981YOPC   C4B14200   8.928   1.405   6.711  0.0992 -0.2985  0.0633
  982YOPC   NC314201   6.153  12.494   4.863 -0.0563  0.2221  0.2504
  982YOPC   PO414202   6.287  12.431   5.340 -0.0644 -0.0589  0.3255
  982YOPC   GL114203   6.226  12.321   5.757 -0.2534  0.3056 -0.1061
  982YOPC   GL214204   5.912  12.137   5.692  0.4481  0.1168  0.1026
  982YOPC   C1A14205   6.443  12.065   5.984 -0.1515 -0.0923 -0.0438
  982YOPC   D2A14206   6.567  11.761   6.338 -0.6552 -0.2167 -0.1628
  982YOPC   C3A14207   6.451  11.946   6.801  0.1684 -0.2682 -0.2221
  982YOPC   C4A14208   6.651  11.900   7.197  0.1650  0.1127 -0.0648
  982YOPC   C1B14209   5.955  11.933   6.047 -0.1663 -0.1366  0.0067
  982YOPC   C2B14210   6.023  11.594   6.449  0.0169  0.0073 -0.0973
  982YOPC   D3B14211   6.133  11.413   6.838 -0.0151 -0.3363 -0.0140
  982YOPC   C4B14212   6.191  11.606   7.251 -0.2200  0.0326 -0.0955
  983YOPC   NC314213  14.544  16.808   5.094  0.0686  0.0944 -0.0020
  983YOPC   PO414214  14.801  17.073   5.449 -0.4357  0.2122 -0.0304
  983YOPC   GL114215  14.780  17.072   5.865  0.0884 -0.3063 -0.0002
  983YOPC   GL214216  15.185  17.012   5.867  0.2833  0.4916  0.0805
  983YOPC   C1A14217  14.520  17.107   6.163 -0.0059 -0.0740 -0.1787
  983YOPC   D2A14218  14.314  16.914   6.419  0.3515 -0.1271 -0.2155
  983YOPC   C3A14219  13.860  16.879   6.567 -0.0102  0.1554  0.1535
  983YOPC   C4A14220  13.468  16.838   6.754 -0.3216 -0.0834 -0.0106
  983YOPC   C1B14221  15.370  17.100   6.279  0.1379  0.0588 -0.1313
  983YOPC   C2B14222  15.221  17.159   6.796  0.0682 -0.0849  0.1177
  983YOPC   D3B14223  15.335  16.870   7.209  0.2091  0.1353  0.1848
  983YOPC   C4B14224  15.418  16.652   7.498 -0.0060  0.3353  0.2877
  984YOPC   NC314225  18.243  16.011   5.501  0.1182 -0.2067  0.2294
  984YOPC   PO414226  17.976  15.763   5.740 -0.0557  0.3482  0.2487
  984YOPC   GL114227  17.738  15.747   6.104  0.0198  0.1531  0.0721
  984YOPC   GL214228  18.071  15.751   6.282  0.3528 -0.1086 -0.0266
  984YOPC   C1A14229  17.597  15.791   6.599 -0.1535  0.0964 -0.2168
  984YOPC   D2A14230  17.573  16.104   6.842  0.1337  0.2981 -0.2809
  984YOPC   C3A14231  17.853  15.803   7.168  0.0027 -0.2077  0.1346
  984YOPC   C4A14232  18.180  15.816   7.471  0.0625 -0.0227 -0.0953
  984YOPC   C1B14233  18.388  16.183   6.355  0.1796  0.0490  0.1217
  984YOPC   C2B14234  18.490  16.507   6.611  0.3095 -0.1402 -0.1346
  984YOPC   D3B14235  18.753  16.611   6.997  0.1416 -0.1147 -0.1071
  984YOPC   C4B14236  18.972  16.464   7.305 -0.0114  0.0561 -0.0271
  985YOPC   NC314237  10.075  17.102   5.457 -0.0746  0.0526  0.1194
  985YOPC   PO414238  10.508  16.836   5.516  0.1403 -0.0455  0.0423
  985YOPC   GL114239  10.822  16.813   5.807  0.3588 -0.1695  0.0896
  985YOPC   GL214240  10.690  16.657   6.114  0.1778  0.3064 -0.4213
  985YOPC   C1A14241  11.216  16.774   6.116 -0.0731  0.0470 -0.2363
  985YOPC   D2A14242  11.786  16.807   6.332 -0.0773  0.0401 -0.3987
  985YOPC   C3A14243  11.883  16.506   6.571 -0.2985  0.1490 -0.0402
  985YOPC   C4A14244  11.615  16.136   6.755  0.4417  0.2590  0.0453
  985YOPC   C1B14245  11.007  16.367   6.304  0.2268 -0.0940 -0.0576
  985YOPC   C2B14246  11.301  16.456   6.487 -0.0547 -0.0844 -0.1230
  985YOPC   D3B14247  11.199  16.442   6.894  0.1962 -0.0379 -0.0940
  985YOPC   C4B14248  11.103  16.853   7.109  0.0071  0.1285  0.2493
  986YOPC   NC314249  13.363   8.804   5.191 -0.2254 -0.2339  0.0409
  986YOPC   PO414250  13.637   8.486   5.125  0.0678 -0.0120 -0.1584
  986YOPC   GL114251  13.610   8.377   5.499 -0.3778 -0.2480  0.1687
  986YOPC   GL214252  13.558   8.603   5.645 -0.0897  0.1633  0.0987
  986YOPC   C1A14253  13.360   8.271   5.894  0.3031  0.0695 -0.0637
  986YOPC   D2A14254  13.381   8.429   6.218  0.2419 -0.1750 -0.1920
  986YOPC   C3A14255  13.429   8.196   6.593  0.1877 -0.0033 -0.3538
  986YOPC   C4A14256  13.054   8.238   6.737 -0.3570 -0.1542  0.1778
  986YOPC   C1B14257  13.832   8.509   6.033 -0.1576 -0.0963  0.1017
  986YOPC   C2B14258  14.001   8.620   6.326  0.0152 -0.0608 -0.3656
  986YOPC   D3B14259  14.396   8.909   6.337  0.3889 -0.1142 -0.2091
  986YOPC   C4B14260  14.664   9.013   6.100 -0.0076 -0.0097  0.2935
  987YOPC   NC314261  16.153   9.078   5.352 -0.1811 -0.4351  0.5011
  987YOPC   PO414262  16.510   9.171   5.537 -0.0018  0.1106 -0.1263
  987YOPC   GL114263  16.390   8.901   5.767 -0.1050  0.1735 -0.0480
  987YOPC   GL214264  16.563   9.075   6.102 -0.2082 -0.1293  0.1090
  987YOPC   C1A14265  16.137   8.869   6.242 -0.0487 -0.3922  0.2681
  987YOPC   D2A14266  16.249   8.611   6.578 -0.0344 -0.1208  0.2962
  987YOPC   C3A14267  16.430   8.754   6.966 -0.1052 -0.1093 -0.2038
  987YOPC   C4A14268  16.546   9.070   7.249  0.1280 -0.3558  0.1224
  987YOPC   C1B14269  16.972   9.065   6.095 -0.2010  0.3114  0.0265
  987YOPC   C2B14270  17.299   8.747   6.296  0.4136  0.1736 -0.0625
  987YOPC   D3B14271  17.289   8.617   6.709 -0.1270 -0.0687  0.1170
  987YOPC   C4B14272  17.309   8.470   7.082  0.3591  0.1726 -0.2824
  988YOPC   NC314273   5.668   6.267   5.070 -0.1249  0.3283  0.2476
  988YOPC   PO414274   6.088   6.449   4.938  0.3036 -0.1809  0.0578
  988YOPC   GL114275   6.045   6.432   5.324 -0.0389  0.1514  0.0983
  988YOPC   GL214276   6.003   6.136   5.413 -0.2571  0.0669  0.2523
  988YOPC   C1A14277   5.863   6.591   5.662 -0.0933 -0.1424  0.0269
  988YOPC   D2A14278   5.857   6.531   6.200 -0.0340 -0.2505 -0.0101
  988YOPC   C3A14279   6.319   6.498   6.361  0.1170  0.3114 -0.1436
  988YOPC   C4A14280   6.720   6.740   6.142  0.1756 -0.2063 -0.0303
  988YOPC   C1B14281   5.756   6.122   5.774  0.1829 -0.2725  0.4431
  988YOPC   C2B14282   5.401   6.579   5.939  0.1847 -0.1569 -0.2517
  988YOPC   D3B14283   4.980   6.461   5.839  0.3110 -0.0512 -0.0934
  988YOPC   C4B14284   4.705   6.111   5.836  0.1167 -0.0792  0.1132
  989YOPC   NC314285  12.741   9.933   5.090 -0.0519 -0.0726 -0.1260
  989YOPC   PO414286  13.048   9.716   5.228 -0.4059 -0.0390 -0.4043
  989YOPC   GL114287  12.642   9.525   5.371 -0.2180 -0.2946 -0.0796
  989YOPC   GL214288  12.264   9.541   5.424 -0.3305  0.0905  0.0816
  989YOPC   C1A14289  12.460   9.358   5.804 -0.0232  0.2122 -0.0624
  989YOPC   D2A14290  12.193   9.074   5.753 -0.0430 -0.1795  0.1026
  989YOPC   C3A14291  11.847   9.058   6.074  0.1101  0.0750 -0.0125
  989YOPC   C4A14292  11.619   8.855   6.350 -0.3191 -0.0446 -0.1064
  989YOPC   C1B14293  12.033   9.835   5.742 -0.0410 -0.2226  0.4156
  989YOPC   C2B14294  11.818   9.954   6.158  0.3371  0.1769 -0.1892
  989YOPC   D3B14295  12.056   9.788   6.481  0.1845  0.1653  0.0583
  989YOPC   C4B14296  12.289   9.838   6.743 -0.4392  0.1357 -0.0546
  990YOPC   NC314297   8.076   5.771   4.927  0.3555  0.1467 -0.1007
  990YOPC   PO414298   7.634   5.591   4.880 -0.0460  0.0813 -0.2966
  990YOPC   GL114299   7.710   5.536   5.263  0.1245  0.0208  0.0315
  990YOPC   GL214300   7.622   5.905   5.290  0.1087  0.1038  0.0567
  990YOPC   C1A14301   7.603   5.680   5.714  0.0905  0.0317 -0.4268
  990YOPC   D2A14302   7.473   5.581   6.116  0.3576 -0.0793  0.0868
  990YOPC   C3A14303   7.753   5.331   6.288 -0.4388 -0.0066  0.1822
  990YOPC   C4A14304   7.774   4.958   6.626 -0.0316  0.1004  0.0268
  990YOPC   C1B14305   7.539   6.273   5.447  0.0097  0.1584  0.1987
  990YOPC   C2B14306   7.845   6.562   5.476 -0.1797 -0.0048 -0.2198
  990YOPC   D3B14307   8.301   6.485   5.595 -0.0638 -0.0934  0.5094
  990YOPC   C4B14308   8.233   6.696   5.973  0.0460 -0.1432  0.2858
  991YOPC   NC314309  11.792   6.326   5.408 -0.3818  0.0731  0.0017
  991YOPC   PO414310  12.156   6.327   5.208 -0.0746  0.2594 -0.3561
  991YOPC   GL114311  12.164   6.204   5.722  0.2885 -0.1480  0.0006
  991YOPC   GL214312  12.134   6.007   5.817 -0.0451 -0.0696  0.0718
  991YOPC   C1A14313  11.903   6.371   6.123 -0.1437 -0.1570  0.1519
  991YOPC   D2A14314  11.911   6.701   6.411  0.5878 -0.1885 -0.2592
  991YOPC   C3A14315  12.162   6.615   6.811  0.1084  0.1499  0.2605
  991YOPC   C4A14316  12.321   6.595   7.230 -0.1940 -0.1943  0.1773
  991YOPC   C1B14317  12.573   5.879   6.058  0.0531 -0.3189 -0.4073
  991YOPC   C2B14318  12.948   5.885   6.227 -0.1503  0.0864 -0.2676
  991YOPC   D3B14319  13.228   5.975   6.612 -0.3613  0.0335  0.0047
  991YOPC   C4B14320  13.172   6.292   6.942  0.1753 -0.2179 -0.0204
  992YOPC   NC314321   6.370   8.499   5.002  0.0365  0.1547 -0.4228
  992YOPC   PO414322   6.027   8.596   4.925  0.0899 -0.0257 -0.3204
  992YOPC   GL114323   6.023   8.589   5.394 -0.2390  0.0307  0.1115
  992YOPC   GL214324   5.916   8.662   5.639  0.7240  0.0190 -0.3036
  992YOPC   C1A14325   5.954   8.177   5.615  0.1402 -0.2265 -0.1792
  992YOPC   D2A14326   5.518   8.116   5.798 -0.2203  0.0965  0.0113
  992YOPC   C3A14327   5.281   8.411   6.091  0.2740  0.0323 -0.0192
  992YOPC   C4A14328   5.148   8.450   6.410 -0.1250  0.3257  0.2205
  992YOPC   C1B14329   5.433   8.889   5.759 -0.0883  0.0811  0.2593
  992YOPC   C2B14330   5.192   9.273   5.874  0.0620  0.1594 -0.0741
  992YOPC   D3B14331   5.200   9.496   6.246 -0.2292 -0.0167 -0.2819
  992YOPC   C4B14332   5.146   9.481   6.715 -0.0159 -0.2866  0.1401
  993YOPC   NC314333  13.141  10.614   5.492 -0.2539  0.0753 -0.1514
  993YOPC   PO414334  12.798  10.358   5.268  0.2665 -0.2286 -0.0478
  993YOPC   GL114335  12.630  10.288   5.657 -0.2015  0.1925  0.1028
  993YOPC   GL214336  12.559   9.966   5.618 -0.3523  0.3408  0.1293
  993YOPC   C1A14337  12.683  10.248   6.129  0.0601 -0.0069  0.0307
  993YOPC   D2A14338  12.478  10.185   6.442 -0.1864  0.1525  0.1578
  993YOPC   C3A14339  12.675  10.160   6.758  0.0880  0.0406  0.1279
  993YOPC   C4A14340  12.811   9.783   7.041 -0.1205  0.2452 -0.1161
  993YOPC   C1B14341  12.477   9.768   6.113  0.2530 -0.0770 -0.0438
  993YOPC   C2B14342  12.280   9.376   6.289  0.2284  0.2423  0.2228
  993YOPC   D3B14343  12.081   9.315   6.697 -0.0426  0.1772  0.0582
  993YOPC   C4B14344  11.857   9.165   7.045 -0.1277 -0.0276  0.0036
  994YOPC   NC314345   9.678  12.356   5.332 -0.3444  0.0454  0.1420
  994YOPC   PO414346   9.862  11.938   5.483 -0.0479  0.2712  0.4096
  994YOPC   GL114347  10.012  11.777   5.825 -0.0224 -0.2205  0.2771
  994YOPC   GL214348  10.275  11.769   5.918  0.3782  0.0097  0.2776
  994YOPC   C1A14349   9.926  11.417   6.142 -0.2573  0.2088 -0.2148
  994YOPC   D2A14350  10.137  11.217   6.464  0.4266 -0.2181 -0.0529
  994YOPC   C3A14351  10.167  11.438   6.902 -0.0550 -0.3203  0.2280
  994YOPC   C4A14352  10.089  11.478   7.308  0.2767 -0.2093 -0.2188
  994YOPC   C1B14353  10.196  11.774   6.375  0.0544  0.0349 -0.1297
  994YOPC   C2B14354   9.967  11.961   6.668 -0.0950  0.1617  0.0144
  994YOPC   D3B14355   9.805  11.881   7.041 -0.1938 -0.2545 -0.3165
  994YOPC   C4B14356   9.481  11.788   7.230  0.2864  0.0704  0.0816
  995YOPC   NC314357   1.417  18.260   5.155  0.1686 -0.0919  0.2023
  995YOPC   PO414358   1.568  18.191   5.503  0.0112  0.0888 -0.1331
  995YOPC   GL114359   1.674  18.453   6.047  0.1452  0.1637  0.5020
  995YOPC   GL214360   1.458  18.712   6.140  0.2730 -0.2074 -0.1120
  995YOPC   C1A14361   1.881  18.536   6.403 -0.0833 -0.0074 -0.0140
  995YOPC   D2A14362   2.099  18.671   6.736  0.2005  0.0797 -0.1641
  995YOPC   C3A14363   2.414  18.905   6.941 -0.3554  0.0450 -0.1209
  995YOPC   C4A14364   2.381  19.034   7.405  0.0541  0.1423 -0.2136
  995YOPC   C1B14365   1.480  18.990   6.483 -0.3337  0.0591  0.0800
  995YOPC   C2B14366   1.592  19.115   6.942 -0.0317 -0.0288 -0.1107
  995YOPC   D3B14367   1.252  19.379   6.933  0.5435 -0.0053  0.0651
  995YOPC   C4B14368   0.786  19.501   7.072 -0.1250 -0.0372  0.3486
  996YOPC   NC314369  17.972   1.489   5.175 -0.0754 -0.2629  0.1399
  996YOPC   PO414370  17.655   1.671   5.319 -0.2530  0.3490  0.1007
  996YOPC   GL114371  17.242   1.711   5.610 -0.2004 -0.2887  0.1771
  996YOPC   GL214372  17.031   2.074   5.716 -0.0140  0.0599  0.2336
  996YOPC   C1A14373  17.304   1.784   6.048  0.3667 -0.0637 -0.1444
  996YOPC   D2A14374  16.963   1.837   6.354 -0.1022  0.3821  0.0759
  996YOPC   C3A14375  16.992   1.851   6.853  0.0207 -0.2336 -0.3931
  996YOPC   C4A14376  17.241   1.419   6.946 -0.2297  0.2114 -0.1697
  996YOPC   C1B14377  16.985   2.424   6.057  0.0395  0.0106 -0.1190
  996YOPC   C2B14378  16.949   2.375   6.542  0.2407  0.2590  0.3179
  996YOPC   D3B14379  17.255   2.310   6.773  0.0363  0.3712  0.0072
  996YOPC   C4B14380  17.504   1.958   7.056  0.0279 -0.3506 -0.0258
  997YOPC   NC314381  15.702   0.215   5.241 -0.2021  0.1559  0.0392
  997YOPC   PO414382  15.244   0.469   5.338  0.1039  0.1461 -0.0109
  997YOPC   GL114383  15.494   0.550   5.668  0.1403  0.1348 -0.1713
  997YOPC   GL214384  15.299   0.312   5.884  0.0563 -0.0551 -0.0709
  997YOPC   C1A14385  15.621   0.698   6.044  0.1062  0.2345  0.1787
  997YOPC   D2A14386  15.599   0.522   6.345  0.1993  0.2307 -0.5386
  997YOPC   C3A14387  15.527   0.731   6.706 -0.4349 -0.4392 -0.0798
  997YOPC   C4A14388  15.282   1.081   7.001 -0.0491  0.2327 -0.0918
  997YOPC   C1B14389  14.884   0.333   6.148  0.4562 -0.1128 -0.0397
  997YOPC   C2B14390  14.631   0.719   6.275  0.1199  0.0688 -0.4280
  997YOPC   D3B14391  14.477   0.586   6.689  0.3951 -0.0541 -0.1050
  997YOPC   C4B14392  14.274   0.419   6.964 -0.0794  0.1657  0.0887
  998YOPC   NC314393   1.282   0.794   5.111  0.1548  0.0524  0.0306
  998YOPC   PO414394   1.398   1.225   5.260  0.1411  0.1820  0.4209
  998YOPC   GL114395   1.496   1.297   5.691  0.4247  0.0096 -0.0698
  998YOPC   GL214396   1.758   1.221   5.857 -0.0336 -0.0252  0.0217
  998YOPC   C1A14397   1.345   1.482   6.057  0.0111 -0.0484 -0.1768
  998YOPC   D2A14398   1.280   1.335   6.544  0.2657 -0.2608 -0.2028
  998YOPC   C3A14399   1.382   0.892   6.710 -0.1089 -0.3244 -0.1281
  998YOPC   C4A14400   1.371   0.587   6.926  0.1530 -0.1217  0.1837
  998YOPC   C1B14401   2.038   1.112   6.117  0.0121  0.2129 -0.0090
  998YOPC   C2B14402   2.206   0.895   6.534 -0.2306 -0.2600 -0.1846
  998YOPC   D3B14403   2.722   0.874   6.627 -0.1014  0.0482  0.1977
  998YOPC   C4B14404   3.019   1.053   6.936 -0.0932  0.2024  0.0806
  999YOPC   NC314405   2.065   1.448   5.393  0.1532 -0.1089 -0.1123
  999YOPC   PO414406   2.030   1.807   5.139  0.1646  0.0602  0.2825
  999YOPC   GL114407   1.987   1.872   5.680  0.0117 -0.1082 -0.2031
  999YOPC   GL214408   1.629   1.777   5.824 -0.1678  0.0056 -0.1392
  999YOPC   C1A14409   2.279   1.593   6.060 -0.0978  0.0480 -0.2800
  999YOPC   D2A14410   2.523   1.349   6.324 -0.2548  0.1433 -0.2885
  999YOPC   C3A14411   2.720   1.542   6.649 -0.2809  0.2441  0.2013
  999YOPC   C4A14412   2.578   1.756   6.889  0.0114 -0.4559 -0.1561
  999YOPC   C1B14413   1.749   1.644   6.194  0.1335  0.3424  0.0391
  999YOPC   C2B14414   1.792   1.324   6.555  0.0850  0.0150  0.2514
  999YOPC   D3B14415   1.618   1.228   6.959  0.0229 -0.0192 -0.1943
  999YOPC   C4B14416   1.181   1.077   7.123 -0.3764 -0.0674  0.0458
 1000YOPC   NC314417  18.691   2.334   5.539  0.0239  0.3166  0.2562
 1000YOPC   PO414418  18.215   2.443   5.530  0.1004  0.2811 -0.3988
 1000YOPC   GL114419  18.036   2.647   5.885 -0.0933  0.1539  0.0022
 1000YOPC   GL214420  18.031   2.428   6.096  0.0387  0.6615 -0.1125
 1000YOPC   C1A14421  18.091   2.934   6.124 -0.2616  0.2861 -0.0783
 1000YOPC   D2A14422  18.076   3.120   6.506 -0.2912 -0.1104  0.1194
 1000YOPC   C3A14423  18.015   3.549   6.455 -0.0317  0.0960  0.1373
 1000YOPC   C4A14424  18.022   3.875   6.706  0.1870 -0.1716  0.0181
 1000YOPC   C1B14425  18.251   2.608   6.549 -0.0255 -0.1453  0.0368
 1000YOPC   C2B14426  18.278   2.488   7.057 -0.1101  0.2681  0.1446
 1000YOPC   D3B14427  18.042   2.263   7.335 -0.3659  0.2551 -0.1696
 1000YOPC   C4B14428  17.852   2.461   7.505  0.3459 -0.2336 -0.1280
 1001YOPC   NC314429  18.096   8.037   5.092  0.1112 -0.0683  0.2514
 1001YOPC   PO414430  18.537   7.911   4.921 -0.1871 -0.1549  0.4347
 1001YOPC   GL114431  18.439   7.824   5.374  0.2562 -0.1617  0.1892
 1001YOPC   GL214432  18.422   7.437   5.524 -0.1228 -0.1244  0.1798
 1001YOPC   C1A14433  18.456   7.966   5.776  0.2005  0.2486  0.1750
 1001YOPC   D2A14434  18.419   8.091   6.225  0.0494  0.1414  0.0937
 1001YOPC   C3A14435  18.488   7.923   6.570  0.2552  0.0736  0.4000
 1001YOPC   C4A14436  18.616   7.882   6.945 -0.1541  0.2529  0.2200
 1001YOPC   C1B14437  18.668   7.272   5.853 -0.1757 -0.0586 -0.1334
 1001YOPC   C2B14438  18.545   7.398   6.206  0.1719 -0.0917 -0.1252
 1001YOPC   D3B14439  18.810   7.501   6.593 -0.1027  0.0930 -0.0365
 1001YOPC   C4B14440  18.868   7.312   6.972 -0.0549 -0.3865 -0.3387
 1002YOPC   NC314441   0.314  16.553   5.202  0.0348 -0.2978 -0.2050
 1002YOPC   PO414442   0.118  16.379   5.560  0.3237  0.1212  0.4441
 1002YOPC   GL114443   0.418  16.270   5.927  0.2247  0.1855 -0.0786
 1002YOPC   GL214444   0.411  15.937   6.026 -0.4505 -0.1241  0.0538
 1002YOPC   C1A14445   0.835  16.098   6.098  0.1632 -0.1544  0.0950
 1002YOPC   D2A14446   1.224  16.033   6.198  0.0259 -0.1612 -0.3658
 1002YOPC   C3A14447   1.310  16.171   6.560  0.1325 -0.6614 -0.0103
 1002YOPC   C4A14448   1.490  15.994   6.929 -0.1312  0.0302  0.2183
 1002YOPC   C1B14449   0.231  15.558   6.353  0.0863  0.1689  0.3354
 1002YOPC   C2B14450   0.477  15.174   6.428  0.0513 -0.0074  0.0379
 1002YOPC   D3B14451   0.685  14.785   6.382 -0.1123 -0.1134  0.0761
 1002YOPC   C4B14452   0.657  14.394   6.395  0.1140  0.4475 -0.0203
 1003YOPC   NC314453  17.392   1.305   5.030  0.1383 -0.5872  0.0217
 1003YOPC   PO414454  17.404   0.887   5.147 -0.1120  0.2257  0.1456
 1003YOPC   GL114455  17.255   0.925   5.544 -0.2587 -0.1590  0.3520
 1003YOPC   GL214456  16.891   0.866   5.514 -0.2112 -0.1477 -0.0380
 1003YOPC   C1A14457  17.135   1.271   5.793  0.0163  0.3171  0.1523
 1003YOPC   D2A14458  17.057   1.257   6.268 -0.0525  0.2467  0.1130
 1003YOPC   C3A14459  17.391   1.482   6.481  0.1301 -0.2931  0.2084
 1003YOPC   C4A14460  17.414   1.855   6.558 -0.1384  0.2804  0.0565
 1003YOPC   C1B14461  17.023   0.762   5.969  0.1479 -0.2887 -0.0468
 1003YOPC   C2B14462  17.022   0.458   6.248  0.1269  0.0857 -0.0624
 1003YOPC   D3B14463  16.673   0.254   6.300 -0.1094  0.2316  0.0618
 1003YOPC   C4B14464  16.344   0.194   6.522  0.0618 -0.0076  0.1681
 1004YOPC   NC314465  17.693   9.773   4.912 -0.1191  0.4294 -0.1264
 1004YOPC   PO414466  17.969   9.365   5.026 -0.1373 -0.0494  0.1975
 1004YOPC   GL114467  17.962   9.304   5.583  0.1760  0.1619 -0.0832
 1004YOPC   GL214468  18.258   9.188   5.689  0.4106  0.3454  0.1275
 1004YOPC   C1A14469  17.728   9.536   5.952  0.2028 -0.2123 -0.2814
 1004YOPC   D2A14470  17.922   9.577   6.294 -0.3981  0.2069  0.2549
 1004YOPC   C3A14471  17.650   9.537   6.621  0.1168  0.3603 -0.1219
 1004YOPC   C4A14472  17.320   9.665   6.836 -0.3350  0.3432  0.1107
 1004YOPC   C1B14473  17.989   9.103   6.110  0.0838 -0.0034 -0.0006
 1004YOPC   C2B14474  17.930   8.990   6.473 -0.1982  0.1029 -0.3056
 1004YOPC   D3B14475  18.236   8.793   6.662  0.1873  0.0487  0.3791
 1004YOPC   C4B14476  18.166   8.345   6.715  0.0995 -0.1823 -0.1358
 1005YOPC   NC314477  13.693   8.135   4.473  0.0346 -0.3333 -0.0180
 1005YOPC   PO414478  13.459   8.019   4.911  0.2484 -0.0336 -0.0017
 1005YOPC   GL114479  13.684   7.903   5.234 -0.0451  0.0334  0.1524
 1005YOPC   GL214480  13.911   8.002   5.338  0.1793  0.2786 -0.4752
 1005YOPC   C1A14481  13.470   7.855   5.619 -0.0593 -0.1415  0.1854
 1005YOPC   D2A14482  13.507   7.825   6.083 -0.2402 -0.1620  0.3719
 1005YOPC   C3A14483  13.856   8.043   6.310  0.0710  0.1931  0.1796
 1005YOPC   C4A14484  13.991   8.310   6.677  0.0369 -0.0281  0.0714
 1005YOPC   C1B14485  13.872   8.041   5.820 -0.2041 -0.3132  0.0063
 1005YOPC   C2B14486  14.242   8.187   6.008 -0.1602 -0.0604  0.2781
 1005YOPC   D3B14487  14.392   8.297   6.357  0.0005  0.0559  0.1100
 1005YOPC   C4B14488  14.467   8.631   6.704  0.0974  0.0994 -0.1116
 1006YOPC   NC314489  11.773  10.759   5.536 -0.1157  0.2718  0.1329
 1006YOPC   PO414490  12.238  11.032   5.465 -0.0636  0.2384 -0.2924
 1006YOPC   GL114491  12.000  11.023   5.885  0.4560  0.0707  0.2507
 1006YOPC   GL214492  11.981  10.719   6.045  0.1839 -0.0128  0.0553
 1006YOPC   C1A14493  11.874  11.235   6.283  0.0161  0.2465 -0.1301
 1006YOPC   D2A14494  11.678  11.271   6.687 -0.1372 -0.1535 -0.0794
 1006YOPC   C3A14495  11.316  11.458   6.851 -0.1313  0.0381  0.2241
 1006YOPC   C4A14496  11.103  11.854   6.805  0.1877 -0.3672  0.0324
 1006YOPC   C1B14497  12.040  10.363   6.324  0.3471 -0.3693 -0.2732
 1006YOPC   C2B14498  12.228  10.484   6.682 -0.0467 -0.1721  0.4061
 1006YOPC   D3B14499  11.899  10.490   7.051  0.3106 -0.1832  0.1732
 1006YOPC   C4B14500  11.708  10.240   7.282 -0.0479 -0.0754  0.3773
 1007YOPC   NC314501   7.764  14.592   5.337  0.0955 -0.1322  0.2054
 1007YOPC   PO414502   8.049  14.875   5.376 -0.1503  0.3205  0.1360
 1007YOPC   GL114503   7.960  14.696   5.835  0.1710  0.1844 -0.1257
 1007YOPC   GL214504   7.878  14.957   5.976  0.1180 -0.1574  0.0418
 1007YOPC   C1A14505   7.808  14.519   6.249 -0.0525 -0.0517  0.1231
 1007YOPC   D2A14506   8.029  14.313   6.577 -0.1042  0.1119  0.2802
 1007YOPC   C3A14507   8.106  14.494   7.000  0.1070 -0.0677  0.2319
 1007YOPC   C4A14508   8.059  14.643   7.299  0.3995  0.0009  0.5068
 1007YOPC   C1B14509   7.467  14.977   6.219  0.1788 -0.0226  0.0906
 1007YOPC   C2B14510   7.297  14.612   6.428  0.0323 -0.0110  0.1147
 1007YOPC   D3B14511   6.940  14.734   6.515 -0.1182 -0.1066  0.0443
 1007YOPC   C4B14512   6.602  15.054   6.422  0.0260  0.1547 -0.3362
 1008YOPC   NC314513   8.740  15.506   5.442 -0.0454 -0.1934  0.0319
 1008YOPC   PO414514   8.882  15.136   5.424 -0.0074  0.0382 -0.1265
 1008YOPC   GL114515   8.623  15.136   5.770  0.1380  0.0756 -0.1493
 1008YOPC   GL214516   8.362  14.984   5.762 -0.2314  0.3355 -0.2795
 1008YOPC   C1A14517   8.709  14.847   6.190 -0.0925  0.2353 -0.0921
 1008YOPC   D2A14518   8.892  14.672   6.544  0.0445  0.4323  0.1333
 1008YOPC   C3A14519   9.028  14.518   6.846  0.2353 -0.1815 -0.0462
 1008YOPC   C4A14520   8.759  14.382   7.214 -0.2038 -0.1134 -0.1138
 1008YOPC   C1B14521   8.278  15.101   6.260  0.4484  0.1593  0.0498
 1008YOPC   C2B14522   8.180  15.429   6.515 -0.0681  0.0377 -0.3284
 1008YOPC   D3B14523   8.349  15.736   6.432  0.2990  0.0102 -0.0286
 1008YOPC   C4B14524   8.559  16.130   6.645 -0.0973 -0.0105  0.2755
 1009YOPC   NC314525   4.663   8.698   5.164  0.1592 -0.1511 -0.2429
 1009YOPC   PO414526   4.555   8.910   5.523  0.0134 -0.1969  0.1234
 1009YOPC   GL114527   4.692   8.923   5.878 -0.3232 -0.0621  0.1489
 1009YOPC   GL214528   4.585   8.730   6.065  0.1996  0.2870 -0.0345
 1009YOPC   C1A14529   5.113   8.881   6.138 -0.1716  0.0389  0.0662
 1009YOPC   D2A14530   5.210   9.055   6.456  0.3617 -0.0485 -0.0859
 1009YOPC   C3A14531   5.497   9.045   6.775  0.1206 -0.3231  0.0660
 1009YOPC   C4A14532   5.751   8.750   7.110  0.0325 -0.1723 -0.0617
 1009YOPC   C1B14533   4.740   8.754   6.393  0.4271 -0.1100 -0.1776
 1009YOPC   C2B14534   4.748   8.830   6.838 -0.0894  0.5090 -0.1347
 1009YOPC   D3B14535   4.969   9.115   7.052  0.1264 -0.1507 -0.2438
 1009YOPC   C4B14536   5.352   9.095   7.247  0.1791  0.0609 -0.0753
 1010YOPC   NC314537   4.266  14.691   5.347 -0.0856  0.0593 -0.2429
 1010YOPC   PO414538   3.925  14.303   5.382  0.1927 -0.2585 -0.1904
 1010YOPC   GL114539   3.912  14.496   5.784  0.1083  0.0919  0.1381
 1010YOPC   GL214540   3.546  14.709   5.803 -0.1966  0.2705  0.1152
 1010YOPC   C1A14541   3.829  14.571   6.249 -0.1653 -0.0158 -0.1007
 1010YOPC   D2A14542   3.914  14.864   6.548 -0.0322  0.0935 -0.2191
 1010YOPC   C3A14543   3.569  15.167   6.793 -0.1344 -0.0881  0.1729
 1010YOPC   C4A14544   3.080  15.140   6.746 -0.1753  0.0859  0.0884
 1010YOPC   C1B14545   3.556  15.051   6.152  0.0424 -0.2026 -0.2363
 1010YOPC   C2B14546   3.899  15.263   6.263  0.2936  0.0966  0.0685
 1010YOPC   D3B14547   4.003  15.407   6.692  0.0239 -0.0558 -0.1184
 1010YOPC   C4B14548   3.897  15.504   7.112  0.1207 -0.0167 -0.0532
 1011YOPC   NC314549  16.969   8.967   5.469  0.0168 -0.1876 -0.1884
 1011YOPC   PO414550  17.049   8.764   5.199  0.0647 -0.0553 -0.0814
 1011YOPC   GL114551  17.087   8.494   5.543  0.1688 -0.2854 -0.0331
 1011YOPC   GL214552  16.724   8.372   5.565 -0.2982  0.1557  0.0592
 1011YOPC   C1A14553  16.990   8.450   6.020  0.0117  0.0001  0.3148
 1011YOPC   D2A14554  16.780   8.663   6.307  0.2145 -0.0323  0.1399
 1011YOPC   C3A14555  16.852   8.867   6.568  0.4917  0.2720 -0.1514
 1011YOPC   C4A14556  17.098   9.003   6.972 -0.1547 -0.0528 -0.0386
 1011YOPC   C1B14557  16.451   8.408   6.024  0.0696 -0.0014  0.2031
 1011YOPC   C2B14558  16.495   8.203   6.486 -0.1903  0.1011 -0.3730
 1011YOPC   D3B14559  16.785   8.445   6.812 -0.0139  0.1025  0.1577
 1011YOPC   C4B14560  16.823   8.520   7.232 -0.2190 -0.1250  0.1011
 1012YOPC   NC314561   5.889   3.522   4.949  0.1578 -0.1167  0.0086
 1012YOPC   PO414562   6.218   3.498   4.631  0.3059 -0.1287 -0.3083
 1012YOPC   GL114563   6.393   3.332   5.047  0.1051  0.0854  0.3262
 1012YOPC   GL214564   6.676   3.638   5.146  0.0438  0.2122  0.4495
 1012YOPC   C1A14565   6.635   3.170   5.439 -0.1219 -0.2254  0.1779
 1012YOPC   D2A14566   7.099   3.037   5.669 -0.0243 -0.0618  0.2083
 1012YOPC   C3A14567   6.918   2.778   5.811  0.0133  0.3890  0.2131
 1012YOPC   C4A14568   6.814   2.373   5.960 -0.3569 -0.3391 -0.2226
 1012YOPC   C1B14569   6.564   3.932   5.527 -0.0625 -0.1881 -0.2761
 1012YOPC   C2B14570   6.520   3.909   6.052  0.2500 -0.2226  0.2630
 1012YOPC   D3B14571   6.373   3.628   6.347  0.0673 -0.0406  0.1906
 1012YOPC   C4B14572   6.467   3.442   6.640 -0.0973 -0.0218 -0.0798
 1013YOPC   NC314573   1.274  13.660   4.892 -0.0877 -0.1215  0.3330
 1013YOPC   PO414574   1.677  13.865   4.894  0.1029  0.3374 -0.3906
 1013YOPC   GL114575   1.776  13.773   5.281 -0.0409  0.1756  0.3575
 1013YOPC   GL214576   1.614  13.966   5.431 -0.0134 -0.2020 -0.5008
 1013YOPC   C1A14577   1.841  13.671   5.771 -0.1402 -0.2386 -0.4395
 1013YOPC   D2A14578   1.974  13.631   6.254  0.0500 -0.3268  0.0085
 1013YOPC   C3A14579   1.733  13.435   6.492 -0.2365  0.1479  0.0963
 1013YOPC   C4A14580   1.529  13.333   6.876  0.0554 -0.0665  0.1252
 1013YOPC   C1B14581   1.644  14.297   5.760 -0.3269  0.1613 -0.0872
 1013YOPC   C2B14582   1.777  14.644   5.855  0.0447  0.2351  0.0044
 1013YOPC   D3B14583   1.824  14.759   6.286 -0.1523 -0.0523  0.0436
 1013YOPC   C4B14584   2.052  14.981   6.695  0.1555 -0.1559 -0.1503
 1014YOPC   NC314585   4.239   5.099   5.128 -0.0850 -0.1596 -0.0269
 1014YOPC   PO414586   4.409   5.511   5.002 -0.1232  0.0975  0.2313
 1014YOPC   GL114587   4.500   5.605   5.549 -0.1727  0.0778 -0.0839
 1014YOPC   GL214588   4.699   5.836   5.381  0.0626 -0.0748 -0.0639
 1014YOPC   C1A14589   4.690   5.569   6.037  0.1667  0.2286 -0.3118
 1014YOPC   D2A14590   4.923   5.603   6.443 -0.4311  0.0952  0.0724
 1014YOPC   C3A14591   5.144   5.934   6.631 -0.5950 -0.0635  0.2016
 1014YOPC   C4A14592   5.545   6.116   6.864  0.1072  0.1700 -0.0082
 1014YOPC   C1B14593   4.998   5.404   5.628 -0.0657  0.4698  0.0577
 1014YOPC   C2B14594   4.857   5.095   5.886 -0.0451  0.2859 -0.0115
 1014YOPC   D3B14595   4.855   5.160   6.234  0.0885  0.1793 -0.2599
 1014YOPC   C4B14596   4.707   5.133   6.605  0.1651 -0.4041  0.1524
 1015YOPC   NC314597   1.706  12.016   5.482 -0.0815 -0.3683 -0.2183
 1015YOPC   PO414598   1.683  12.381   5.420 -0.1052 -0.1604 -0.2374
 1015YOPC   GL114599   1.592  12.635   5.828 -0.4468  0.0378 -0.1754
 1015YOPC   GL214600   1.836  12.579   5.986 -0.3652 -0.2383  0.1231
 1015YOPC   C1A14601   1.428  12.849   6.123  0.1705 -0.1885  0.3514
 1015YOPC   D2A14602   1.075  12.715   6.401 -0.2559 -0.0642  0.0635
 1015YOPC   C3A14603   1.067  12.711   6.746 -0.1503 -0.0705  0.0099
 1015YOPC   C4A14604   1.208  12.942   7.104 -0.3240  0.1729  0.4432
 1015YOPC   C1B14605   1.965  12.584   6.508  0.0432 -0.1006  0.0893
 1015YOPC   C2B14606   2.040  12.468   6.917 -0.3747 -0.0569  0.1678
 1015YOPC   D3B14607   2.265  12.861   7.083  0.1031  0.3132  0.1573
 1015YOPC   C4B14608   2.467  13.096   7.411 -0.3171 -0.2642 -0.1844
 1016YOPC   NC314609   2.752   4.163   5.160  0.2630  0.1394  0.1513
 1016YOPC   PO414610   2.967   4.430   5.341 -0.1094 -0.1862 -0.2049
 1016YOPC   GL114611   2.967   4.222   5.711  0.2123  0.0416 -0.1119
 1016YOPC   GL214612   2.597   4.184   5.696 -0.0596  0.0298 -0.0829
 1016YOPC   C1A14613   2.893   4.338   6.073 -0.2150  0.2459  0.2839
 1016YOPC   D2A14614   2.875   4.630   6.401 -0.0316 -0.1583 -0.6294
 1016YOPC   C3A14615   2.826   4.579   6.831 -0.1426 -0.1659 -0.1278
 1016YOPC   C4A14616   3.111   4.867   7.039  0.3317  0.1946 -0.2648
 1016YOPC   C1B14617   2.323   4.032   5.992 -0.1839  0.0187 -0.0466
 1016YOPC   C2B14618   2.206   3.813   6.440  0.0565  0.0899 -0.2169
 1016YOPC   D3B14619   2.453   3.646   6.760  0.2659  0.1717  0.1737
 1016YOPC   C4B14620   2.491   3.686   7.247 -0.3555  0.1208  0.1846
 1017YOPC   NC314621   2.503  10.216   5.393 -0.1818 -0.0044  0.0851
 1017YOPC   PO414622   2.026  10.050   5.372 -0.0505 -0.0972  0.0368
 1017YOPC   GL114623   1.964   9.866   5.668 -0.0098 -0.1864 -0.2424
 1017YOPC   GL214624   1.675   9.747   5.668 -0.1359  0.0620 -0.2616
 1017YOPC   C1A14625   1.820   9.980   6.143 -0.0876 -0.2249 -0.1410
 1017YOPC   D2A14626   1.856  10.256   6.370  0.2387  0.3371  0.2678
 1017YOPC   C3A14627   1.985  10.355   6.797  0.1172 -0.0063 -0.0844
 1017YOPC   C4A14628   2.094  10.556   7.155  0.0096  0.0999  0.2436
 1017YOPC   C1B14629   1.628   9.560   5.986  0.0827 -0.3119  0.0255
 1017YOPC   C2B14630   1.829   9.287   6.322  0.1821  0.2205 -0.1217
 1017YOPC   D3B14631   1.461   9.026   6.525  0.0276 -0.1303  0.2387
 1017YOPC   C4B14632   1.434   8.634   6.898  0.5685 -0.2104 -0.1558
 1018YOPC   NC314633  16.501  12.752   5.073 -0.0301  0.1885  0.3633
 1018YOPC   PO414634  16.344  13.124   5.295  0.5011  0.0915  0.1977
 1018YOPC   GL114635  16.338  12.975   5.716  0.3300 -0.1477 -0.1854
 1018YOPC   GL214636  16.229  12.764   5.851  0.4917  0.1715 -0.2795
 1018YOPC   C1A14637  16.364  13.155   6.202  0.1435 -0.0203  0.1181
 1018YOPC   D2A14638  16.382  13.413   6.542 -0.2018 -0.0767 -0.2211
 1018YOPC   C3A14639  16.571  13.844   6.528  0.0934 -0.0458 -0.0578
 1018YOPC   C4A14640  16.532  14.264   6.610  0.1595 -0.0784 -0.3714
 1018YOPC   C1B14641  16.208  12.676   6.273  0.0265  0.1233  0.0765
 1018YOPC   C2B14642  16.288  12.813   6.698 -0.1842  0.4729  0.1636
 1018YOPC   D3B14643  16.473  12.532   7.012 -0.0344 -0.1638 -0.2173
 1018YOPC   C4B14644  16.713  12.480   7.439 -0.0703 -0.0725 -0.1720
 1019YOPC   NC314645   3.389   6.958   5.445  0.1209  0.1071  0.1271
 1019YOPC   PO414646   3.701   7.338   5.423 -0.0005 -0.1230  0.3741
 1019YOPC   GL114647   3.601   7.334   5.884  0.0159  0.0074  0.2614
 1019YOPC   GL214648   3.544   6.959   5.950  0.0368  0.1642 -0.2229
 1019YOPC   C1A14649   3.651   7.587   6.279  0.2260  0.1570  0.0537
 1019YOPC   D2A14650   3.832   7.417   6.666 -0.0895  0.1300 -0.0702
 1019YOPC   C3A14651   3.604   6.998   6.820  0.0001 -0.0622  0.1911
 1019YOPC   C4A14652   3.564   6.750   7.105 -0.0536 -0.0495 -0.1695
 1019YOPC   C1B14653   3.825   7.132   6.274  0.0499  0.1271 -0.3337
 1019YOPC   C2B14654   4.128   7.088   6.578  0.2663  0.2341 -0.1272
 1019YOPC   D3B14655   4.097   6.702   6.682 -0.1024 -0.3233  0.1242
 1019YOPC   C4B14656   4.102   6.207   6.570 -0.0799  0.0027 -0.1184
 1020YOPC   NC314657  14.753  11.429   5.129 -0.0092 -0.0780  0.1516
 1020YOPC   PO414658  14.335  11.264   5.112 -0.0235  0.4097 -0.2059
 1020YOPC   GL114659  14.372  11.318   5.506 -0.2039 -0.1451 -0.0757
 1020YOPC   GL214660  14.734  11.161   5.578 -0.0829  0.1058  0.5321
 1020YOPC   C1A14661  14.653  11.588   5.888  0.0976 -0.0850  0.0378
 1020YOPC   D2A14662  14.975  11.280   6.085  0.1385 -0.2279  0.1096
 1020YOPC   C3A14663  14.875  11.097   6.515 -0.1220 -0.1216 -0.4000
 1020YOPC   C4A14664  14.821  11.277   6.962 -0.3423 -0.1619 -0.0610
 1020YOPC   C1B14665  14.395  11.132   5.963  0.2883 -0.0744 -0.0004
 1020YOPC   C2B14666  14.437  10.943   6.376 -0.2381 -0.4271 -0.3534
 1020YOPC   D3B14667  14.457  10.953   6.805  0.0117  0.4436  0.4072
 1020YOPC   C4B14668  14.520  10.828   7.182  0.0071 -0.3248 -0.0206
 1021YOPC   NC314669   5.195   6.686   5.057 -0.0158 -0.3012 -0.2036
 1021YOPC   PO414670   4.962   7.151   5.188  0.1625  0.0090 -0.1043
 1021YOPC   GL114671   4.961   7.295   5.600 -0.3297 -0.0698 -0.1676
 1021YOPC   GL214672   4.710   7.236   5.818  0.1897  0.0719  0.1740
 1021YOPC   C1A14673   5.185   7.505   5.917 -0.0198 -0.1798  0.0994
 1021YOPC   D2A14674   5.460   7.558   6.170 -0.4908  0.1157 -0.1489
 1021YOPC   C3A14675   5.528   7.517   6.527 -0.0442  0.1885  0.4205
 1021YOPC   C4A14676   5.713   7.263   6.869  0.2268 -0.0043 -0.2650
 1021YOPC   C1B14677   4.538   7.187   6.226  0.0507 -0.1296 -0.1467
 1021YOPC   C2B14678   4.630   6.908   6.623  0.0291  0.0083  0.2247
 1021YOPC   D3B14679   4.914   6.870   6.981 -0.2005  0.5703 -0.0809
 1021YOPC   C4B14680   5.248   6.920   7.226  0.0029  0.2181 -0.0873
 1022YOPC   NC314681  11.183   8.832   5.311 -0.2753  0.3556  0.2083
 1022YOPC   PO414682  11.099   9.100   5.446 -0.1893  0.1559  0.1532
 1022YOPC   GL114683  10.914   9.224   5.831  0.0282  0.2100 -0.3381
 1022YOPC   GL214684  10.630   9.239   5.999 -0.0948  0.2870 -0.0406
 1022YOPC   C1A14685  11.028   9.282   6.328  0.2504  0.0965  0.1543
 1022YOPC   D2A14686  11.372   9.075   6.753 -0.3856  0.2514  0.0814
 1022YOPC   C3A14687  11.407   9.397   7.103 -0.0395  0.0579  0.1345
 1022YOPC   C4A14688  11.365   9.801   7.391 -0.3611  0.0229  0.1434
 1022YOPC   C1B14689  10.505   9.231   6.499  0.1449 -0.0857  0.1594
 1022YOPC   C2B14690  10.343   9.137   6.872  0.0948 -0.0907  0.1071
 1022YOPC   D3B14691  10.543   8.953   7.112  0.1344 -0.0514 -0.1764
 1022YOPC   C4B14692  10.651   8.555   7.237  0.1579 -0.2126 -0.2394
 1023YOPC   NC314693  13.289   6.182   5.299 -0.0870 -0.3242 -0.0510
 1023YOPC   PO414694  13.101   6.490   5.123 -0.1802 -0.1589  0.2432
 1023YOPC   GL114695  12.934   6.550   5.519  0.0277 -0.3607 -0.1247
 1023YOPC   GL214696  12.592   6.463   5.545 -0.0347  0.2396  0.2713
 1023YOPC   C1A14697  12.804   6.814   5.815 -0.1808 -0.0224 -0.5159
 1023YOPC   D2A14698  12.891   6.818   6.208  0.1625  0.1409 -0.1534
 1023YOPC   C3A14699  12.530   6.847   6.518 -0.2957 -0.0386  0.3016
 1023YOPC   C4A14700  12.532   6.946   6.912  0.2753  0.1923  0.0831
 1023YOPC   C1B14701  12.725   6.365   5.941 -0.1118  0.2237 -0.2499
 1023YOPC   C2B14702  12.888   6.325   6.464 -0.0953 -0.2151  0.1724
 1023YOPC   D3B14703  12.635   6.436   6.817  0.1111  0.1948  0.0182
 1023YOPC   C4B14704  12.843   6.535   7.243  0.0873 -0.0933  0.1172
 1024YOPC   NC314705   6.942  16.431   5.165  0.3047 -0.0817  0.1030
 1024YOPC   PO414706   6.440  16.477   5.175  0.0315  0.2764 -0.0799
 1024YOPC   GL114707   6.325  16.332   5.663 -0.1110  0.3084  0.1396
 1024YOPC   GL214708   6.717  16.391   5.953  0.0849 -0.0409 -0.3317
 1024YOPC   C1A14709   6.136  16.509   6.080 -0.1512  0.0004 -0.1594
 1024YOPC   D2A14710   5.851  16.288   6.394  0.1801  0.2273 -0.0818
 1024YOPC   C3A14711   6.037  16.654   6.687  0.4847  0.0975  0.1416
 1024YOPC   C4A14712   6.341  16.569   7.040 -0.0120 -0.0021 -0.2355
 1024YOPC   C1B14713   6.906  16.528   6.370 -0.0937 -0.0003  0.0414
 1024YOPC   C2B14714   6.723  16.477   6.765 -0.2395  0.2780 -0.1264
 1024YOPC   D3B14715   6.986  16.335   7.109  0.1225  0.0907 -0.2235
 1024YOPC   C4B14716   7.087  15.928   7.150  0.2468 -0.1774 -0.2284
 1025YOPC   NC314717  13.745   2.949   4.781 -0.2979 -0.1643 -0.0189
 1025YOPC   PO414718  13.630   2.529   4.855  0.1170 -0.1700 -0.1799
 1025YOPC   GL114719  13.748   2.436   5.174 -0.0794  0.1636  0.0192
 1025YOPC   GL214720  13.467   2.633   5.379  0.1131 -0.0077 -0.3622
 1025YOPC   C1A14721  13.842   2.568   5.737 -0.2744  0.2433  0.3866
 1025YOPC   D2A14722  14.238   2.549   5.865 -0.3277 -0.1727 -0.1243
 1025YOPC   C3A14723  14.599   2.353   5.772 -0.0369 -0.0900  0.0900
 1025YOPC   C4A14724  14.796   2.038   5.658 -0.1170 -0.1022  0.0580
 1025YOPC   C1B14725  13.806   3.001   5.413 -0.0574 -0.1532  0.0984
 1025YOPC   C2B14726  14.049   3.347   5.323 -0.2890  0.1946 -0.2661
 1025YOPC   D3B14727  14.320   3.540   5.576 -0.2569 -0.1060  0.2890
 1025YOPC   C4B14728  14.330   3.470   6.095 -0.1155  0.2471  0.1374
 1026YOPC   NC314729   4.951  12.679   4.775  0.2032  0.1552  0.0892
 1026YOPC   PO414730   4.466  12.715   4.735 -0.1367 -0.1769 -0.1429
 1026YOPC   GL114731   4.488  12.681   5.238 -0.3895  0.0706  0.2228
 1026YOPC   GL214732   4.305  12.474   5.414 -0.0857  0.0685  0.2483
 1026YOPC   C1A14733   4.601  12.939   5.578  0.0814 -0.1618 -0.1377
 1026YOPC   D2A14734   4.533  13.181   5.985 -0.0142 -0.4017 -0.2348
 1026YOPC   C3A14735   4.382  13.525   6.127 -0.1324  0.3986  0.4523
 1026YOPC   C4A14736   4.274  13.826   6.277  0.2383 -0.4154  0.1204
 1026YOPC   C1B14737   4.390  12.330   5.747 -0.2387  0.1708  0.1254
 1026YOPC   C2B14738   4.465  12.196   6.226  0.2163  0.2697 -0.3050
 1026YOPC   D3B14739   4.485  12.654   6.376 -0.1851 -0.1176 -0.0812
 1026YOPC   C4B14740   4.624  13.016   6.469  0.1153  0.1654  0.2318
 1027YOPC   NC314741   2.109   0.374   4.812  0.0705  0.3742 -0.0779
 1027YOPC   PO414742   2.147   0.545   5.188 -0.1162 -0.5031  0.1450
 1027YOPC   GL114743   2.421   0.522   5.619  0.1705  0.0920 -0.3238
 1027YOPC   GL214744   2.800   0.648   5.637  0.1074 -0.2458  0.0546
 1027YOPC   C1A14745   2.648   0.267   5.934 -0.1115 -0.1544  0.1416
 1027YOPC   D2A14746   2.988   0.085   6.307 -0.3284 -0.1453  0.0028
 1027YOPC   C3A14747   3.455  -0.194   6.105  0.5181 -0.1307 -0.1683
 1027YOPC   C4A14748   3.489  -0.638   6.287  0.2752  0.0493  0.3739
 1027YOPC   C1B14749   3.192   0.334   5.802 -0.0091  0.1948  0.2120
 1027YOPC   C2B14750   3.435   0.470   6.196 -0.2358 -0.0393 -0.4299
 1027YOPC   D3B14751   3.420   0.190   6.530 -0.3017  0.0452  0.3159
 1027YOPC   C4B14752   3.158   0.166   6.787 -0.1934  0.4680 -0.2565
 1028YOPC   NC314753   1.827   6.704   5.297  0.0590  0.0388  0.0325
 1028YOPC   PO414754   1.497   6.483   5.110 -0.1340 -0.0162  0.0581
 1028YOPC   GL114755   1.510   6.330   5.477  0.0587  0.1005 -0.3119
 1028YOPC   GL214756   1.705   6.073   5.569 -0.0159 -0.0177 -0.2103
 1028YOPC   C1A14757   1.451   6.565   5.823  0.3634 -0.0873  0.1450
 1028YOPC   D2A14758   1.286   6.784   6.164  0.2805  0.1139 -0.0552
 1028YOPC   C3A14759   1.268   6.523   6.612 -0.0574  0.0164  0.0468
 1028YOPC   C4A14760   1.329   6.541   7.055  0.2009 -0.1467 -0.0591
 1028YOPC   C1B14761   1.946   5.790   5.741 -0.1867  0.1165 -0.0498
 1028YOPC   C2B14762   2.339   5.852   6.071  0.0485 -0.0538 -0.5287
 1028YOPC   D3B14763   2.262   6.215   6.196  0.2171 -0.3423  0.0522
 1028YOPC   C4B14764   2.232   6.382   6.629  0.1418  0.2104  0.0081
 1029YOPC   NC314765  10.829   7.903   5.477 -0.1188 -0.1962  0.2982
 1029YOPC   PO414766  10.471   7.886   5.284  0.1975  0.3467 -0.1966
 1029YOPC   GL114767  10.317   7.822   5.675 -0.1462  0.0111 -0.3007
 1029YOPC   GL214768  10.037   7.894   5.654 -0.1476 -0.0052  0.2256
 1029YOPC   C1A14769  10.432   8.006   6.070 -0.1357  0.1776  0.2111
 1029YOPC   D2A14770  10.606   8.439   6.220  0.0699  0.1728 -0.4669
 1029YOPC   C3A14771  10.813   8.762   6.354  0.0249 -0.0555  0.2375
 1029YOPC   C4A14772  10.873   8.996   6.735 -0.0034  0.0098 -0.0740
 1029YOPC   C1B14773   9.911   8.016   6.069 -0.0846 -0.2615 -0.5734
 1029YOPC   C2B14774  10.065   8.135   6.484  0.1521 -0.0742 -0.3148
 1029YOPC   D3B14775  10.475   8.030   6.601 -0.1431  0.4177 -0.2231
 1029YOPC   C4B14776  10.679   7.955   6.921  0.0692  0.0189 -0.2294
 1030YOPC   NC314777  11.587   8.857   4.935  0.1413 -0.1422  0.0044
 1030YOPC   PO414778  11.780   8.566   5.215 -0.0648  0.2076 -0.0098
 1030YOPC   GL114779  11.980   8.492   5.583  0.0428  0.2175  0.2079
 1030YOPC   GL214780  12.110   8.163   5.697 -0.1423  0.1587  0.5036
 1030YOPC   C1A14781  11.943   8.503   5.990 -0.0443 -0.0147 -0.1378
 1030YOPC   D2A14782  12.003   8.331   6.496  0.1731 -0.1145 -0.2949
 1030YOPC   C3A14783  12.383   8.363   6.609 -0.0503 -0.1828  0.1887
 1030YOPC   C4A14784  12.626   8.377   6.901  0.2708 -0.1335  0.4247
 1030YOPC   C1B14785  12.418   8.121   6.047  0.0786 -0.2958  0.1351
 1030YOPC   C2B14786  12.602   7.887   6.291 -0.2747  0.2698 -0.4070
 1030YOPC   D3B14787  12.702   7.883   6.724 -0.1939  0.2856 -0.2338
 1030YOPC   C4B14788  12.994   7.596   6.979  0.1028 -0.1501 -0.3464
 1031YOPC   NC314789   8.431  11.642   5.097  0.1178 -0.0019  0.1910
 1031YOPC   PO414790   8.543  11.360   5.550  0.2437 -0.1679 -0.0589
 1031YOPC   GL114791   8.362  11.533   5.929 -0.0267 -0.1241  0.1358
 1031YOPC   GL214792   7.994  11.523   5.941  0.2924 -0.0042 -0.3277
 1031YOPC   C1A14793   8.262  11.460   6.372  0.1028 -0.0621 -0.2646
 1031YOPC   D2A14794   8.037  11.741   6.638  0.1480  0.4674 -0.2138
 1031YOPC   C3A14795   7.685  11.660   6.857 -0.1707 -0.0070  0.3498
 1031YOPC   C4A14796   7.245  11.691   7.031 -0.1043  0.1220  0.1529
 1031YOPC   C1B14797   8.039  11.132   6.122  0.0812  0.2457  0.1754
 1031YOPC   C2B14798   8.076  10.951   6.449  0.0470 -0.1851 -0.2227
 1031YOPC   D3B14799   8.398  11.038   6.577 -0.0665 -0.4349  0.0159
 1031YOPC   C4B14800   8.752  11.242   6.649 -0.1244  0.1119  0.0655
 1032YOPC   NC314801   0.407  19.283   5.656  0.0568 -0.1569 -0.1769
 1032YOPC   PO414802   0.485  19.794   5.589  0.0179  0.1283 -0.4029
 1032YOPC   GL114803   0.264  19.773   5.950  0.0172 -0.3566 -0.2079
 1032YOPC   GL214804   0.074  19.403   6.102  0.1333  0.1109  0.2741
 1032YOPC   C1A14805   0.261  20.013   6.370  0.0855  0.2597 -0.1279
 1032YOPC   D2A14806   0.509  20.171   6.786  0.2963  0.0082 -0.1554
 1032YOPC   C3A14807   0.856  20.364   6.694 -0.1885  0.0012  0.0666
 1032YOPC   C4A14808   0.873  20.679   6.305 -0.1209 -0.0884 -0.0587
 1032YOPC   C1B14809   0.375  19.448   6.468 -0.2058 -0.1908  0.0718
 1032YOPC   C2B14810   0.345  19.588   6.863  0.0962 -0.0144 -0.0470
 1032YOPC   D3B14811   0.065  19.933   6.851 -0.1281  0.1262  0.1740
 1032YOPC   C4B14812  -0.254  20.249   6.753  0.0665 -0.3764  0.1073
 1033YOPC   NC314813   5.877   4.505   4.388 -0.1651  0.2682  0.2318
 1033YOPC   PO414814   6.189   4.390   4.776  0.1708 -0.0768 -0.1637
 1033YOPC   GL114815   5.868   4.273   5.168 -0.1532 -0.1050 -0.0392
 1033YOPC   GL214816   6.097   4.180   5.365  0.1937 -0.3279  0.2225
 1033YOPC   C1A14817   5.633   4.297   5.482  0.4469 -0.0639 -0.2381
 1033YOPC   D2A14818   5.426   4.471   5.922  0.0251 -0.2482 -0.0873
 1033YOPC   C3A14819   5.585   4.568   6.329 -0.1325 -0.1978 -0.2478
 1033YOPC   C4A14820   5.931   4.693   6.642 -0.0076  0.1001  0.5502
 1033YOPC   C1B14821   6.058   4.186   5.813  0.0306  0.0258  0.1589
 1033YOPC   C2B14822   6.046   3.819   6.065  0.2801 -0.0115  0.0346
 1033YOPC   D3B14823   6.345   3.354   5.826  0.0313 -0.1502  0.1228
 1033YOPC   C4B14824   6.710   3.203   6.020  0.1146 -0.3585  0.3482
 1034YOPC   NC314825   1.367  10.702   5.422  0.2457  0.0468  0.0131
 1034YOPC   PO414826   1.132  10.382   5.473 -0.0014  0.1654 -0.3075
 1034YOPC   GL114827   1.280  10.392   5.946  0.0242 -0.1568 -0.0749
 1034YOPC   GL214828   1.206  10.035   5.989  0.0590 -0.1647 -0.1004
 1034YOPC   C1A14829   1.364  10.216   6.424 -0.2250 -0.0723 -0.0602
 1034YOPC   D2A14830   1.638  10.031   6.757  0.3176  0.0710  0.0041
 1034YOPC   C3A14831   1.966   9.887   6.671  0.0808 -0.2384  0.2677
 1034YOPC   C4A14832   2.442   9.960   6.545 -0.1105 -0.0089 -0.2430
 1034YOPC   C1B14833   0.953   9.878   6.191 -0.2962 -0.1938 -0.1870
 1034YOPC   C2B14834   0.523   9.839   6.103  0.0274 -0.0656 -0.2991
 1034YOPC   D3B14835   0.364  10.258   6.077  0.1833  0.2672 -0.1314
 1034YOPC   C4B14836   0.486  10.748   6.142  0.0661 -0.3321  0.2110
 1035YOPC   NC314837   8.170  16.096   5.111  0.0120 -0.0733 -0.1116
 1035YOPC   PO414838   8.086  15.655   5.219 -0.0321  0.3461  0.0767
 1035YOPC   GL114839   7.776  15.488   5.478 -0.1563 -0.1362  0.3716
 1035YOPC   GL214840   7.998  15.305   5.658 -0.0607 -0.1685 -0.0097
 1035YOPC   C1A14841   7.430  15.815   5.667 -0.1865  0.1212 -0.0936
 1035YOPC   D2A14842   7.176  16.052   5.911  0.1028 -0.2570 -0.3149
 1035YOPC   C3A14843   6.853  15.999   6.221  0.0022  0.0194  0.0610
 1035YOPC   C4A14844   6.369  16.165   6.320  0.1695 -0.0055  0.1444
 1035YOPC   C1B14845   8.263  15.466   5.962  0.0451 -0.0219 -0.2556
 1035YOPC   C2B14846   8.682  15.423   6.226  0.0562  0.2071  0.1153
 1035YOPC   D3B14847   8.642  15.183   6.589 -0.1651  0.2937  0.1112
 1035YOPC   C4B14848   8.402  15.164   7.044  0.1778  0.3467 -0.3353
 1036YOPC   NC314849  18.664   3.296   4.833 -0.0784  0.3770  0.3185
 1036YOPC   PO414850  18.272   3.487   4.919  0.1277 -0.0987  0.3677
 1036YOPC   GL114851  18.293   3.431   5.300  0.0120  0.1544 -0.3254
 1036YOPC   GL214852  18.030   3.440   5.496 -0.0868  0.3760  0.0527
 1036YOPC   C1A14853  18.508   3.307   5.615 -0.0403 -0.2530  0.1570
 1036YOPC   D2A14854  18.393   3.520   6.069 -0.0782  0.0455 -0.4235
 1036YOPC   C3A14855  18.279   3.883   6.228  0.0610  0.1742 -0.1861
 1036YOPC   C4A14856  17.814   4.121   6.236 -0.3252  0.0111 -0.3343
 1036YOPC   C1B14857  17.918   3.449   5.890 -0.1385 -0.0151  0.1001
 1036YOPC   C2B14858  17.612   3.222   6.004 -0.0276 -0.0392  0.1336
 1036YOPC   D3B14859  17.168   3.399   5.892  0.2859 -0.1292  0.2230
 1036YOPC   C4B14860  16.772   3.324   5.877 -0.0651 -0.1070 -0.0844
 1037YOPC   NC314861   9.470   1.646   4.927 -0.0641  0.0726  0.2582
 1037YOPC   PO414862   9.211   1.524   5.285  0.0165  0.0443  0.3784
 1037YOPC   GL114863   9.354   1.424   5.629  0.0786  0.1542 -0.2964
 1037YOPC   GL214864   9.577   1.667   5.803  0.2071 -0.0149  0.0227
 1037YOPC   C1A14865   9.235   1.144   6.001 -0.0898 -0.1643  0.1941
 1037YOPC   D2A14866   8.907   0.969   6.341 -0.0793  0.0403  0.2456
 1037YOPC   C3A14867   8.721   0.530   6.398 -0.0765 -0.0611 -0.0955
 1037YOPC   C4A14868   8.821   0.115   6.673 -0.0060 -0.0193  0.4442
 1037YOPC   C1B14869   9.552   1.556   6.305  0.3572 -0.1437 -0.1413
 1037YOPC   C2B14870   9.525   1.532   6.742 -0.1938  0.2919 -0.0730
 1037YOPC   D3B14871   9.789   1.090   6.883 -0.1656  0.0002  0.1580
 1037YOPC   C4B14872  10.300   1.041   6.766  0.3576  0.1730 -0.1391
 1038YOPC   NC314873   4.204  10.090   5.416 -0.2337 -0.2099 -0.2309
 1038YOPC   PO414874   4.616   9.811   5.485  0.0028 -0.2293  0.2966
 1038YOPC   GL114875   4.773   9.971   5.797  0.2351  0.1197 -0.3884
 1038YOPC   GL214876   4.689   9.873   6.115 -0.0090  0.1138  0.2083
 1038YOPC   C1A14877   5.188  10.011   6.103 -0.2468  0.4175  0.1445
 1038YOPC   D2A14878   5.494  10.168   6.341  0.1615 -0.0655  0.3098
 1038YOPC   C3A14879   5.378   9.954   6.690  0.4156  0.2390 -0.1317
 1038YOPC   C4A14880   5.025   9.934   6.966  0.2302  0.0429  0.0465
 1038YOPC   C1B14881   4.893   9.968   6.517  0.1129 -0.1909  0.0650
 1038YOPC   C2B14882   5.061  10.308   6.615 -0.1402  0.5325 -0.0948
 1038YOPC   D3B14883   4.820  10.528   6.950  0.0633  0.1853 -0.0467
 1038YOPC   C4B14884   4.496  10.686   7.169  0.3230  0.1580 -0.1067
 1039YOPC   NC314885   3.775  11.543   5.220  0.2436 -0.0554  0.0831
 1039YOPC   PO414886   3.425  11.168   5.062 -0.3365 -0.1056  0.1740
 1039YOPC   GL114887   3.217  11.236   5.361  0.0242 -0.3951 -0.1872
 1039YOPC   GL214888   3.099  11.545   5.424  0.0665 -0.1381 -0.0419
 1039YOPC   C1A14889   3.415  11.289   5.831  0.2312 -0.1825  0.1282
 1039YOPC   D2A14890   3.773  11.661   5.973 -0.1361 -0.1566 -0.4203
 1039YOPC   C3A14891   3.938  12.125   6.068  0.1456  0.0114 -0.0326
 1039YOPC   C4A14892   3.888  12.496   5.736  0.0515  0.2095 -0.4444
 1039YOPC   C1B14893   3.210  11.766   5.819 -0.0719  0.1922  0.2412
 1039YOPC   C2B14894   3.281  11.749   6.297  0.0482 -0.0796 -0.1724
 1039YOPC   D3B14895   3.491  11.974   6.347  0.0470  0.0188  0.2700
 1039YOPC   C4B14896   3.851  12.165   6.603 -0.2600  0.1217 -0.1949
 1040YOPC   NC314897   4.249   2.167   5.161 -0.2523  0.2031 -0.3678
 1040YOPC   PO414898   4.483   2.464   5.256  0.0806  0.3930  0.0327
 1040YOPC   GL114899   4.130   2.595   5.550 -0.0207  0.1220  0.3167
 1040YOPC   GL214900   3.804   2.536   5.622  0.2107 -0.0328 -0.0661
 1040YOPC   C1A14901   4.254   2.933   5.759 -0.3459  0.1460  0.0888
 1040YOPC   D2A14902   4.682   3.015   5.695 -0.1983 -0.3129 -0.0676
 1040YOPC   C3A14903   4.919   3.145   6.126  0.3518 -0.2552  0.0067
 1040YOPC   C4A14904   5.094   3.025   6.416  0.2218  0.2275 -0.0845
 1040YOPC   C1B14905   3.949   2.501   6.007  0.0440 -0.3608  0.2559
 1040YOPC   C2B14906   4.101   2.674   6.374  0.3178 -0.6214  0.1575
 1040YOPC   D3B14907   4.474   2.945   6.251  0.0494  0.4046  0.1287
 1040YOPC   C4B14908   4.461   3.374   5.976 -0.0648  0.1539  0.0813
 1041YOPC   NC314909  15.751   4.122   5.072 -0.3589  0.0074  0.0693
 1041YOPC   PO414910  15.363   4.115   5.306 -0.0172  0.1104 -0.0306
 1041YOPC   GL114911  15.632   3.722   5.551 -0.3878  0.1380  0.0428
 1041YOPC   GL214912  15.866   3.604   5.392 -0.0567  0.3434  0.2609
 1041YOPC   C1A14913  15.900   3.750   6.000 -0.2371  0.0946  0.0426
 1041YOPC   D2A14914  16.226   3.971   6.244  0.0991  0.0147  0.0409
 1041YOPC   C3A14915  16.258   4.344   5.993  0.1853 -0.2108  0.0684
 1041YOPC   C4A14916  16.719   4.602   5.878 -0.1882  0.2893  0.2750
 1041YOPC   C1B14917  16.142   3.456   5.641  0.2283 -0.2354 -0.2616
 1041YOPC   C2B14918  16.270   3.391   6.102 -0.1712  0.1749 -0.0855
 1041YOPC   D3B14919  16.087   3.547   6.444 -0.0798 -0.0414  0.2210
 1041YOPC   C4B14920  15.955   3.846   6.645 -0.0996 -0.1895 -0.0426
 1042YOPC   NC314921   8.033  18.276   4.914  0.0183 -0.0561 -0.3960
 1042YOPC   PO414922   8.326  18.269   5.382  0.1506 -0.3324  0.2522
 1042YOPC   GL114923   8.237  18.151   5.768  0.0847  0.1239 -0.0584
 1042YOPC   GL214924   8.591  18.076   5.810 -0.1379 -0.0774 -0.0343
 1042YOPC   C1A14925   8.177  17.783   5.885 -0.0517 -0.0916 -0.5048
 1042YOPC   D2A14926   8.064  17.366   5.680 -0.2794 -0.0437  0.1255
 1042YOPC   C3A14927   8.014  16.939   5.782  0.3017 -0.1364  0.1576
 1042YOPC   C4A14928   8.190  16.498   5.827  0.0903  0.1974 -0.0764
 1042YOPC   C1B14929   8.607  17.912   6.149  0.0458  0.1428  0.0838
 1042YOPC   C2B14930   8.699  18.182   6.493  0.2627 -0.1134 -0.0281
 1042YOPC   D3B14931   8.831  18.231   6.879  0.1241  0.2285 -0.1943
 1042YOPC   C4B14932   8.809  18.023   7.185  0.1160 -0.2790 -0.0233
 1043YOPC   NC314933  16.403  14.675   5.817  0.2065  0.0003  0.0785
 1043YOPC   PO414934  16.102  14.901   5.573 -0.1896  0.0409 -0.1422
 1043YOPC   GL114935  16.083  15.187   5.960  0.1853  0.1179  0.0733
 1043YOPC   GL214936  15.889  15.552   5.974 -0.3060 -0.3938 -0.2047
 1043YOPC   C1A14937  16.258  15.323   6.339 -0.0487  0.0368  0.1762
 1043YOPC   D2A14938  16.216  15.368   6.830 -0.1638  0.3184 -0.0317
 1043YOPC   C3A14939  16.374  15.117   7.247  0.4158  0.2758 -0.1759
 1043YOPC   C4A14940  16.043  14.861   7.468 -0.2392 -0.1091 -0.2183
 1043YOPC   C1B14941  15.721  15.608   6.446 -0.0311  0.0180  0.3401
 1043YOPC   C2B14942  15.746  15.511   6.870 -0.0841 -0.1799  0.0342
 1043YOPC   D3B14943  15.247  15.489   7.022  0.0892  0.0767  0.1647
 1043YOPC   C4B14944  14.933  15.220   6.815  0.3391 -0.1961 -0.1175
 1044YOPC   NC314945   0.462  17.592   5.202  0.2163  0.0109  0.2727
 1044YOPC   PO414946   0.699  17.624   5.543  0.0898  0.0055  0.0507
 1044YOPC   GL114947   0.889  17.779   5.967 -0.1002  0.2544 -0.4855
 1044YOPC   GL214948   0.779  17.508   6.235  0.0679 -0.1834  0.0414
 1044YOPC   C1A14949   0.767  17.990   6.405  0.0821 -0.1924 -0.0560
 1044YOPC   D2A14950   0.755  17.873   6.788  0.2504 -0.1797  0.1731
 1044YOPC   C3A14951   0.262  17.812   6.971  0.2167  0.2417  0.2292
 1044YOPC   C4A14952   0.084  17.827   7.405  0.1058  0.0270  0.0259
 1044YOPC   C1B14953   1.208  17.688   6.378  0.2569 -0.3799 -0.1438
 1044YOPC   C2B14954   1.330  17.924   6.701 -0.1266 -0.0327  0.4277
 1044YOPC   D3B14955   1.388  18.407   6.628  0.1243  0.0648  0.0035
 1044YOPC   C4B14956   1.515  18.656   6.848 -0.0860  0.1869 -0.1216
 1045YOPC   NC314957  11.392   3.337   5.261  0.0339 -0.0982  0.1989
 1045YOPC   PO414958  10.902   3.230   5.162 -0.2412 -0.3299 -0.0612
 1045YOPC   GL114959  11.008   3.054   5.561  0.1168 -0.4077 -0.1007
 1045YOPC   GL214960  11.201   3.197   5.703  0.1639  0.3200 -0.1155
 1045YOPC   C1A14961  10.867   2.847   5.894  0.0552  0.2217 -0.3320
 1045YOPC   D2A14962  11.038   2.722   6.261  0.3013  0.1927 -0.1397
 1045YOPC   C3A14963  11.014   2.700   6.723 -0.0923  0.2183  0.1213
 1045YOPC   C4A14964  10.946   2.792   7.163 -0.1351  0.1602 -0.0445
 1045YOPC   C1B14965  11.105   3.186   6.202 -0.2467 -0.3157  0.2328
 1045YOPC   C2B14966  11.147   3.575   6.472  0.1104 -0.1646 -0.0084
 1045YOPC   D3B14967  11.207   3.971   6.176  0.0369 -0.2357 -0.0228
 1045YOPC   C4B14968  11.279   4.455   6.215 -0.0206  0.0546  0.0726
 1046YOPC   NC314969   5.945   5.442   4.733  0.1627 -0.1464 -0.2049
 1046YOPC   PO414970   6.070   4.899   4.787  0.0037  0.0162  0.0966
 1046YOPC   GL114971   5.880   4.808   5.291  0.0647 -0.0257  0.0622
 1046YOPC   GL214972   5.554   4.824   5.446  0.0206  0.4370 -0.1653
 1046YOPC   C1A14973   5.951   4.710   5.696 -0.0125 -0.2300  0.0678
 1046YOPC   D2A14974   6.048   4.597   6.097  0.0042 -0.1835 -0.0545
 1046YOPC   C3A14975   6.056   4.217   6.390  0.3242 -0.0846  0.3453
 1046YOPC   C4A14976   6.205   4.344   6.794  0.1553 -0.0385  0.1523
 1046YOPC   C1B14977   5.459   4.986   5.878 -0.2821  0.2535  0.1478
 1046YOPC   C2B14978   5.337   5.374   6.089 -0.2103 -0.1391 -0.1837
 1046YOPC   D3B14979   5.393   5.760   6.208 -0.1684  0.0806 -0.0457
 1046YOPC   C4B14980   5.787   6.058   6.377  0.0137 -0.1259  0.0321
 1047YOPC   NC314981   7.883   1.575   5.208 -0.0952  0.0260  0.0812
 1047YOPC   PO414982   8.099   2.010   5.100  0.2356  0.2251  0.2850
 1047YOPC   GL114983   8.064   2.019   5.497  0.1715  0.3690  0.0764
 1047YOPC   GL214984   8.241   2.297   5.640 -0.2375 -0.1190 -0.2614
 1047YOPC   C1A14985   8.171   1.817   5.862 -0.1961  0.1929  0.0774
 1047YOPC   D2A14986   8.075   1.637   6.305 -0.1174  0.0083  0.0098
 1047YOPC   C3A14987   8.277   1.580   6.631 -0.2144  0.2403 -0.1302
 1047YOPC   C4A14988   8.488   1.172   6.822 -0.1557 -0.1285 -0.1472
 1047YOPC   C1B14989   8.102   2.289   6.100 -0.0665 -0.5276 -0.0600
 1047YOPC   C2B14990   8.000   2.210   6.474  0.1479 -0.0904 -0.2558
 1047YOPC   D3B14991   8.305   2.186   6.786 -0.0885 -0.0400 -0.1750
 1047YOPC   C4B14992   8.791   1.953   6.797  0.2232 -0.0765 -0.2929
 1048YOPC   NC314993  19.082   7.944   4.970  0.2202 -0.0588 -0.3967
 1048YOPC   PO414994  19.478   8.185   5.128 -0.0521  0.3585  0.0000
 1048YOPC   GL114995  19.217   8.068   5.478 -0.3697 -0.1132  0.0836
 1048YOPC   GL214996  18.900   7.964   5.469 -0.2453 -0.0316  0.2484
 1048YOPC   C1A14997  18.901   8.085   6.001  0.0027 -0.2258  0.3086
 1048YOPC   D2A14998  18.971   8.147   6.338 -0.1262  0.0701 -0.0826
 1048YOPC   C3A14999  19.035   7.907   6.724 -0.0818 -0.2895  0.0990
 1048YOPC   C4A15000  19.145   7.718   7.088  0.1643  0.1544  0.1809
 1048YOPC   C1B15001  18.977   7.640   5.684 -0.0422 -0.1373  0.0919
 1048YOPC   C2B15002  19.073   7.608   6.205 -0.1509 -0.1049 -0.0674
 1048YOPC   D3B15003  19.326   7.373   6.520  0.2217  0.1029  0.0143
 1048YOPC   C4B15004  19.326   6.907   6.610 -0.1106 -0.0813 -0.0756
 1049YOPC   NC315005  12.180   6.824   5.071 -0.1952  0.0970  0.0884
 1049YOPC   PO415006  12.067   7.119   5.398  0.0184  0.2127  0.0928
 1049YOPC   GL115007  12.046   6.692   5.603  0.1120 -0.1245 -0.1820
 1049YOPC   GL215008  11.730   6.794   5.893 -0.1692  0.2101  0.5280
 1049YOPC   C1A15009  12.295   6.662   6.031  0.2178 -0.0788 -0.0866
 1049YOPC   D2A15010  12.354   7.068   6.021 -0.1610 -0.1747  0.3339
 1049YOPC   C3A15011  12.744   7.272   6.299  0.2032  0.0756  0.0471
 1049YOPC   C4A15012  12.795   7.336   6.630  0.0439 -0.1397  0.1432
 1049YOPC   C1B15013  11.386   6.749   6.239  0.0302  0.0129 -0.1208
 1049YOPC   C2B15014  11.118   6.413   6.267  0.7394  0.2534 -0.1802
 1049YOPC   D3B15015  11.167   6.044   6.546  0.0161 -0.2051 -0.0515
 1049YOPC   C4B15016  10.843   5.644   6.421  0.1071  0.2462  0.1066
 1050YOPC   NC315017   1.262  12.600   5.135  0.5151  0.1407  0.1201
 1050YOPC   PO415018   1.538  12.858   5.417  0.0530 -0.1472  0.2594
 1050YOPC   GL115019   1.428  13.287   5.622  0.1227  0.4931  0.1071
 1050YOPC   GL215020   1.326  13.505   5.478  0.3521  0.1463  0.2846
 1050YOPC   C1A15021   1.425  13.394   6.088 -0.1248 -0.1077  0.1103
 1050YOPC   D2A15022   1.367  13.726   6.401  0.3021 -0.0054  0.3028
 1050YOPC   C3A15023   1.385  13.780   6.792  0.1532  0.1499 -0.0713
 1050YOPC   C4A15024   1.587  13.771   7.160  0.1303 -0.1839 -0.2813
 1050YOPC   C1B15025   1.392  13.816   5.844  0.1208  0.1059  0.4259
 1050YOPC   C2B15026   1.648  13.997   6.163  0.0267 -0.0163  0.2679
 1050YOPC   D3B15027   1.435  14.390   6.234  0.0860  0.2351  0.1546
 1050YOPC   C4B15028   1.078  14.608   6.176  0.0040  0.4171  0.2350
 1051YOPC   NC315029  12.555   7.684   5.183  0.1579 -0.2128 -0.0311
 1051YOPC   PO415030  12.855   7.286   5.001 -0.0421 -0.0456 -0.3289
 1051YOPC   GL115031  12.723   7.332   5.459 -0.1098 -0.0008  0.2787
 1051YOPC   GL215032  12.534   7.062   5.525 -0.1516 -0.0421 -0.0413
 1051YOPC   C1A15033  13.150   7.462   5.726  0.0918 -0.1417 -0.0670
 1051YOPC   D2A15034  13.353   7.137   5.993  0.3049  0.3109  0.1921
 1051YOPC   C3A15035  13.228   7.120   6.376  0.1153 -0.0501 -0.0969
 1051YOPC   C4A15036  13.017   6.827   6.663 -0.0581  0.3380 -0.2188
 1051YOPC   C1B15037  12.623   7.498   5.879 -0.1928  0.0493 -0.3476
 1051YOPC   C2B15038  12.171   7.639   6.070 -0.0752 -0.4460 -0.1935
 1051YOPC   D3B15039  12.078   7.816   6.492 -0.1975 -0.0467 -0.1417
 1051YOPC   C4B15040  11.659   7.925   6.714 -0.0124  0.1746 -0.0113
 1052YOPC   NC315041  12.830  17.845   5.639  0.0047 -0.2772  0.1697
 1052YOPC   PO415042  13.171  18.180   5.652  0.0175  0.0278  0.0296
 1052YOPC   GL115043  13.356  18.247   6.059 -0.0439 -0.3052  0.3454
 1052YOPC   GL215044  13.006  18.352   6.131  0.2362 -0.0173 -0.3430
 1052YOPC   C1A15045  13.236  18.145   6.524 -0.0414  0.1204  0.1140
 1052YOPC   D2A15046  13.469  18.378   6.795  0.2100 -0.1968  0.4057
 1052YOPC   C3A15047  13.250  18.560   7.141 -0.0054 -0.0188  0.1768
 1052YOPC   C4A15048  13.046  18.732   7.414  0.0391  0.0644 -0.1609
 1052YOPC   C1B15049  12.740  18.259   6.518  0.0468  0.2115 -0.1284
 1052YOPC   C2B15050  12.824  18.306   7.038 -0.1999  0.0750 -0.1382
 1052YOPC   D3B15051  12.582  18.448   7.359 -0.1135  0.1265  0.0182
 1052YOPC   C4B15052  12.648  18.670   7.819  0.0794  0.0207 -0.0899
 1053YOPC   NC315053  15.391  13.043   5.335 -0.1171 -0.0985 -0.0529
 1053YOPC   PO415054  15.803  13.047   5.662 -0.1261 -0.0691 -0.1104
 1053YOPC   GL115055  15.884  13.086   6.007  0.4027 -0.0253  0.0016
 1053YOPC   GL215056  15.880  13.444   6.087  0.0187  0.0170  0.0784
 1053YOPC   C1A15057  15.970  13.125   6.448  0.0681 -0.3526 -0.2213
 1053YOPC   D2A15058  15.660  13.169   6.791  0.3729 -0.1597 -0.2474
 1053YOPC   C3A15059  15.319  12.933   6.999  0.0717 -0.2914 -0.0448
 1053YOPC   C4A15060  15.227  13.123   7.361  0.1660 -0.2995  0.1658
 1053YOPC   C1B15061  15.850  13.632   6.507 -0.3206 -0.0559  0.3230
 1053YOPC   C2B15062  15.912  13.597   6.920  0.1355 -0.1385 -0.0309
 1053YOPC   D3B15063  16.319  13.567   7.159  0.3572 -0.0764  0.2897
 1053YOPC   C4B15064  16.449  13.480   7.586  0.1056  0.1626 -0.1610
 1054YOPC   NC315065   5.655   1.157   5.131  0.3133  0.0805 -0.1130
 1054YOPC   PO415066   5.475   0.784   5.215  0.0414  0.0771 -0.1766
 1054YOPC   GL115067   5.843   0.811   5.558  0.3431 -0.0323 -0.1370
 1054YOPC   GL215068   5.446   0.699   5.705 -0.1898  0.2887 -0.0058
 1054YOPC   C1A15069   6.069   0.746   5.981  0.2064 -0.0795  0.1314
 1054YOPC   D2A15070   6.241   0.187   6.149  0.0293  0.0006  0.0638
 1054YOPC   C3A15071   6.295  -0.072   6.499  0.2175 -0.1150 -0.3637
 1054YOPC   C4A15072   6.314  -0.095   6.902 -0.0525 -0.2328  0.0992
 1054YOPC   C1B15073   5.558   0.644   6.055 -0.1713 -0.4112  0.1371
 1054YOPC   C2B15074   5.770   0.413   6.322 -0.2358 -0.1452 -0.1446
 1054YOPC   D3B15075   6.159   0.419   6.640 -0.1294 -0.1694 -0.2603
 1054YOPC   C4B15076   6.486   0.645   6.798 -0.1037 -0.1512 -0.4101
 1055YOPC   NC315077   2.374  13.381   4.864  0.0610  0.0652  0.3422
 1055YOPC   PO415078   2.383  13.151   5.268 -0.0537  0.1491 -0.0417
 1055YOPC   GL115079   2.528  12.811   5.511 -0.0627 -0.1559  0.0217
 1055YOPC   GL215080   2.806  12.899   5.547 -0.2174  0.4129 -0.0316
 1055YOPC   C1A15081   2.612  12.557   5.884  0.2308  0.0902 -0.2695
 1055YOPC   D2A15082   2.479  12.626   6.337 -0.0998 -0.2093  0.2535
 1055YOPC   C3A15083   2.674  12.585   6.695 -0.0001 -0.1405 -0.0211
 1055YOPC   C4A15084   2.609  12.354   7.041 -0.3423  0.1485  0.1384
 1055YOPC   C1B15085   2.651  13.042   5.979 -0.0178 -0.0355  0.1773
 1055YOPC   C2B15086   2.788  13.311   6.290  0.2323 -0.1559  0.0830
 1055YOPC   D3B15087   2.943  13.031   6.573  0.1170  0.5066  0.0620
 1055YOPC   C4B15088   3.168  13.057   6.934  0.1160  0.4192 -0.0631
 1056YOPC   NC315089  10.478   6.948   4.771  0.2274  0.1270  0.1396
 1056YOPC   PO415090  10.229   7.058   5.161  0.0411  0.0653  0.6612
 1056YOPC   GL115091  10.232   6.927   5.529 -0.1922  0.0346 -0.0707
 1056YOPC   GL215092  10.012   7.027   5.856  0.0387 -0.2988  0.1751
 1056YOPC   C1A15093  10.537   6.847   5.851  0.1161  0.1315  0.0696
 1056YOPC   D2A15094  10.616   6.525   6.187 -0.5128  0.0556  0.0093
 1056YOPC   C3A15095  10.427   6.141   6.158 -0.0858 -0.1759 -0.3158
 1056YOPC   C4A15096  10.314   5.694   6.287  0.1185 -0.1733 -0.1926
 1056YOPC   C1B15097  10.143   6.585   6.051 -0.1185  0.0757 -0.0864
 1056YOPC   C2B15098  10.217   6.461   6.526 -0.0319  0.0081 -0.5471
 1056YOPC   D3B15099  10.410   6.167   6.690  0.0655  0.1120 -0.1694
 1056YOPC   C4B15100  10.427   5.681   6.751 -0.1454 -0.0113  0.3781
 1057YOPC   NC315101   6.847  15.177   5.354 -0.3286  0.1636 -0.1177
 1057YOPC   PO415102   6.842  15.608   5.398  0.3286 -0.0572  0.2195
 1057YOPC   GL115103   6.571  15.527   5.688 -0.1074 -0.2955  0.2640
 1057YOPC   GL215104   6.420  15.842   5.845 -0.0530 -0.0792 -0.1636
 1057YOPC   C1A15105   6.391  15.249   5.982  0.1570 -0.0912 -0.1383
 1057YOPC   D2A15106   6.015  15.083   6.186 -0.2860  0.0228 -0.0621
 1057YOPC   C3A15107   5.943  15.125   6.665 -0.1402  0.1291 -0.0687
 1057YOPC   C4A15108   5.873  15.347   6.978  0.1319 -0.1998  0.1408
 1057YOPC   C1B15109   6.044  15.625   6.031  0.0144 -0.0963  0.1193
 1057YOPC   C2B15110   5.625  15.422   6.044 -0.0307  0.1379  0.1355
 1057YOPC   D3B15111   5.627  15.477   6.430  0.2915 -0.1905 -0.2104
 1057YOPC   C4B15112   5.615  15.737   6.780  0.1954  0.1419  0.2799
 1058YOPC   NC315113   8.714  12.515   5.192  0.0091  0.1883  0.0106
 1058YOPC   PO415114   9.198  12.478   5.381 -0.0118  0.2709  0.2602
 1058YOPC   GL115115   8.848  12.611   5.723 -0.2983  0.2171  0.2378
 1058YOPC   GL215116   8.711  12.934   5.682 -0.1807 -0.0610  0.0712
 1058YOPC   C1A15117   8.886  12.707   6.096  0.1027  0.3060 -0.2105
 1058YOPC   D2A15118   9.237  12.638   6.345  0.1998  0.1688  0.0985
 1058YOPC   C3A15119   9.535  12.273   6.304  0.2128  0.3386 -0.0289
 1058YOPC   C4A15120   9.740  11.917   6.251  0.0674 -0.1581  0.2332
 1058YOPC   C1B15121   8.717  13.168   6.083  0.0500  0.1037  0.2687
 1058YOPC   C2B15122   8.564  13.164   6.541 -0.0475 -0.2004  0.2531
 1058YOPC   D3B15123   8.608  13.275   6.924  0.1187  0.1185  0.2814
 1058YOPC   C4B15124   8.652  13.055   7.421 -0.2054 -0.1308 -0.3122
 1059YOPC   NC315125  13.101  18.524   5.209  0.0202  0.3934 -0.0318
 1059YOPC   PO415126  13.449  18.854   5.191 -0.0481  0.0068 -0.4374
 1059YOPC   GL115127  13.495  18.596   5.676  0.1401 -0.2484  0.0720
 1059YOPC   GL215128  13.368  18.769   5.967 -0.1900  0.2372  0.0157
 1059YOPC   C1A15129  13.847  18.597   5.989 -0.2328 -0.2386 -0.0458
 1059YOPC   D2A15130  14.217  18.727   6.177  0.0026  0.1685  0.0959
 1059YOPC   C3A15131  14.252  19.106   6.371 -0.2257  0.3760  0.0405
 1059YOPC   C4A15132  14.062  19.428   6.635 -0.3762 -0.0305 -0.0609
 1059YOPC   C1B15133  13.224  18.674   6.427 -0.0804  0.2659  0.0102
 1059YOPC   C2B15134  13.297  18.876   6.796 -0.0246 -0.2054  0.2398
 1059YOPC   D3B15135  13.815  19.048   6.849 -0.1683 -0.0677 -0.4732
 1059YOPC   C4B15136  14.225  18.929   6.892  0.3203  0.1685  0.2584
 1060YOPC   NC315137  13.976   7.076   4.589  0.0391 -0.2228  0.1114
 1060YOPC   PO415138  13.795   7.132   4.975  0.0629 -0.1054  0.0060
 1060YOPC   GL115139  13.713   7.039   5.383  0.1593  0.3707  0.1155
 1060YOPC   GL215140  13.599   7.247   5.507  0.0872 -0.0064 -0.0223
 1060YOPC   C1A15141  13.784   6.857   5.864  0.2067 -0.0100  0.2119
 1060YOPC   D2A15142  13.763   6.857   6.373  0.0525 -0.1662  0.2083
 1060YOPC   C3A15143  14.056   6.613   6.579  0.0494  0.0491  0.1162
 1060YOPC   C4A15144  14.349   6.279   6.592 -0.0386  0.4164  0.2447
 1060YOPC   C1B15145  13.772   7.434   5.854 -0.0332 -0.1052  0.1098
 1060YOPC   C2B15146  13.697   7.428   6.301 -0.0646 -0.0422 -0.0488
 1060YOPC   D3B15147  13.937   7.550   6.633 -0.0396 -0.2147 -0.0950
 1060YOPC   C4B15148  13.842   7.782   7.048  0.1870  0.2247 -0.0336
 1061YOPC   NC315149   1.486   9.459   5.311 -0.0501 -0.0690  0.0339
 1061YOPC   PO415150   1.900   9.347   5.445  0.0245  0.0204  0.1660
 1061YOPC   GL115151   2.065   9.330   5.829 -0.1355  0.1787  0.1869
 1061YOPC   GL215152   2.157   9.607   6.001  0.0006 -0.0249  0.1895
 1061YOPC   C1A15153   2.264   9.108   6.197  0.0370  0.1253  0.0783
 1061YOPC   D2A15154   2.277   9.092   6.748  0.1963 -0.0578 -0.1171
 1061YOPC   C3A15155   2.372   8.764   7.000  0.1015  0.2143 -0.1072
 1061YOPC   C4A15156   2.467   8.302   7.092  0.1862 -0.1108  0.1040
 1061YOPC   C1B15157   2.210   9.523   6.470  0.0445  0.0170  0.1791
 1061YOPC   C2B15158   2.319   9.613   6.902  0.1242  0.0872 -0.0613
 1061YOPC   D3B15159   2.106  10.010   7.170 -0.0014 -0.1139 -0.1463
 1061YOPC   C4B15160   1.663  10.103   7.223 -0.0353  0.0285  0.0469
 1062YOPC   NC315161   1.226  10.971   4.829 -0.1334  0.2236 -0.1520
 1062YOPC   PO415162   0.992  10.958   5.250 -0.0977 -0.1118 -0.0025
 1062YOPC   GL115163   1.023  10.856   5.701  0.0116  0.0163 -0.0428
 1062YOPC   GL215164   0.831  10.611   5.805  0.2680  0.1518 -0.2760
 1062YOPC   C1A15165   1.038  10.815   6.143  0.2369  0.0126  0.3391
 1062YOPC   D2A15166   0.976  10.879   6.635 -0.0877  0.1205  0.0293
 1062YOPC   C3A15167   1.088  10.669   6.901  0.0234  0.0409  0.0634
 1062YOPC   C4A15168   1.198  10.339   6.979  0.1549  0.2368 -0.2309
 1062YOPC   C1B15169   0.865  10.400   6.292 -0.1496 -0.1391 -0.0465
 1062YOPC   C2B15170   0.795  10.248   6.620 -0.2099  0.1270 -0.2524
 1062YOPC   D3B15171   0.935   9.791   6.772  0.4142  0.0193 -0.1035
 1062YOPC   C4B15172   1.311   9.679   7.050  0.3872  0.2066  0.2003
 1063YOPC   NC315173  15.633  17.669   4.907  0.1172 -0.2213 -0.0615
 1063YOPC   PO415174  15.700  17.289   5.205 -0.1024 -0.0243  0.1989
 1063YOPC   GL115175  15.809  17.480   5.445 -0.1293  0.3740 -0.0187
 1063YOPC   GL215176  16.056  17.372   5.603  0.1404  0.1215 -0.2279
 1063YOPC   C1A15177  15.799  17.789   5.743  0.0178  0.3084  0.1051
 1063YOPC   D2A15178  15.569  17.859   6.129 -0.0108 -0.0648  0.1191
 1063YOPC   C3A15179  15.588  17.521   6.543  0.0419 -0.4036 -0.0797
 1063YOPC   C4A15180  15.751  17.231   6.683 -0.0017  0.3453 -0.2844
 1063YOPC   C1B15181  15.781  17.350   6.053  0.2185  0.1210 -0.1356
 1063YOPC   C2B15182  15.317  17.494   5.951  0.0681 -0.2221 -0.0927
 1063YOPC   D3B15183  14.962  17.399   6.235 -0.1244  0.1647  0.0588
 1063YOPC   C4B15184  14.716  17.297   6.603 -0.1544 -0.1007  0.1326
 1064YOPC   NC315185   1.035  12.475   5.615  0.0408 -0.1341 -0.0415
 1064YOPC   PO415186   1.219  12.130   5.596  0.0787 -0.0724 -0.0367
 1064YOPC   GL115187   1.415  12.170   5.980  0.2108  0.2517 -0.0647
 1064YOPC   GL215188   1.753  12.025   6.022 -0.2957  0.0532 -0.2941
 1064YOPC   C1A15189   1.483  12.409   6.375 -0.0509  0.4116  0.0818
 1064YOPC   D2A15190   1.509  12.447   6.751 -0.3020  0.3189 -0.1806
 1064YOPC   C3A15191   1.527  12.075   6.899 -0.3436  0.0014  0.1773
 1064YOPC   C4A15192   1.616  12.052   7.199 -0.1340  0.3194  0.0880
 1064YOPC   C1B15193   1.633  11.794   6.303 -0.0526 -0.0818  0.0232
 1064YOPC   C2B15194   1.609  11.596   6.751  0.0214  0.0207  0.2050
 1064YOPC   D3B15195   1.277  11.662   7.111 -0.5457 -0.1112  0.0069
 1064YOPC   C4B15196   1.316  11.712   7.571 -0.3701 -0.0389 -0.4404
 1065YOPC   NC315197   9.203  14.876   5.721  0.1661 -0.1774  0.0251
 1065YOPC   PO415198   9.226  14.499   5.726 -0.2339 -0.4191 -0.3028
 1065YOPC   GL115199   9.319  14.146   5.845  0.1173  0.0900 -0.1422
 1065YOPC   GL215200   9.663  14.127   5.810 -0.0124  0.1704 -0.1574
 1065YOPC   C1A15201   9.147  14.051   6.266  0.0443  0.0587  0.0167
 1065YOPC   D2A15202   8.816  13.706   6.281 -0.0774 -0.2772 -0.0213
 1065YOPC   C3A15203   8.482  13.644   6.634 -0.1808  0.0104 -0.2431
 1065YOPC   C4A15204   8.562  13.753   7.041  0.4254 -0.3000 -0.1473
 1065YOPC   C1B15205   9.630  13.958   6.191 -0.1370 -0.0366  0.0282
 1065YOPC   C2B15206   9.863  13.650   6.485 -0.2522 -0.2859  0.4187
 1065YOPC   D3B15207   9.971  13.735   6.899 -0.2977  0.3465 -0.1037
 1065YOPC   C4B15208  10.349  14.031   7.037  0.3699 -0.0140 -0.0089
 1066YOPC   NC315209   7.114   5.640   5.030 -0.0351 -0.0071  0.2633
 1066YOPC   PO415210   6.740   5.882   4.949 -0.2022 -0.1598 -0.1585
 1066YOPC   GL115211   6.670   5.429   5.151  0.2766  0.0106  0.3887
 1066YOPC   GL215212   6.863   5.509   5.391  0.0377  0.0889  0.1287
 1066YOPC   C1A15213   6.462   5.135   5.354 -0.2125  0.2933  0.1062
 1066YOPC   D2A15214   6.413   4.944   5.868  0.1867 -0.1768  0.1677
 1066YOPC   C3A15215   6.448   5.298   6.333  0.0604 -0.0419 -0.0856
 1066YOPC   C4A15216   6.646   5.130   6.679  0.1784 -0.4474  0.2595
 1066YOPC   C1B15217   6.997   5.466   5.909 -0.1522 -0.0583  0.5582
 1066YOPC   C2B15218   6.926   5.402   6.281  0.2842 -0.3745 -0.2946
 1066YOPC   D3B15219   7.192   5.035   6.443  0.0289 -0.1471  0.0313
 1066YOPC   C4B15220   7.396   4.652   6.422 -0.1283  0.2531  0.2505
 1067YOPC   NC315221   0.820   4.168   5.165 -0.4582  0.3526  0.2603
 1067YOPC   PO415222   0.476   4.160   5.260 -0.0378 -0.2232  0.1048
 1067YOPC   GL115223   0.630   4.307   5.668 -0.2634  0.1408 -0.2395
 1067YOPC   GL215224   0.997   4.212   5.765  0.0332  0.2871  0.1362
 1067YOPC   C1A15225   0.392   4.408   6.001  0.0621 -0.1492  0.3090
 1067YOPC   D2A15226   0.235   4.504   6.418  0.1196  0.0582  0.0985
 1067YOPC   C3A15227   0.466   4.668   6.780  0.3238  0.1839  0.1099
 1067YOPC   C4A15228   0.596   5.100   6.896 -0.1208  0.0870 -0.3194
 1067YOPC   C1B15229   0.825   4.367   6.211 -0.3489 -0.1306  0.0786
 1067YOPC   C2B15230   0.938   4.541   6.640  0.1105  0.2410 -0.1696
 1067YOPC   D3B15231   0.848   4.533   7.048 -0.2593 -0.1451  0.1129
 1067YOPC   C4B15232   0.630   4.819   7.351  0.0052  0.1429  0.0544
 1068YOPC   NC315233  17.323  13.967   5.203  0.2506  0.2883 -0.1039
 1068YOPC   PO415234  17.531  13.774   5.518  0.1747  0.0080  0.0629
 1068YOPC   GL115235  17.846  13.992   5.820 -0.0291  0.2744 -0.1342
 1068YOPC   GL215236  17.649  14.156   5.967 -0.0069 -0.0440  0.2050
 1068YOPC   C1A15237  18.109  14.357   6.149  0.2652  0.2637 -0.1889
 1068YOPC   D2A15238  18.211  14.454   6.617 -0.0369  0.0358 -0.1575
 1068YOPC   C3A15239  18.000  14.149   6.902  0.4331 -0.4081  0.3474
 1068YOPC   C4A15240  17.742  14.287   7.303  0.1800 -0.1044 -0.0890
 1068YOPC   C1B15241  17.234  14.155   6.179 -0.1752 -0.0269  0.3021
 1068YOPC   C2B15242  17.005  14.156   6.580 -0.0038 -0.2183  0.1510
 1068YOPC   D3B15243  16.942  13.881   6.877 -0.2121  0.0512 -0.2394
 1068YOPC   C4B15244  17.246  13.835   7.244 -0.1226  0.1791  0.0894
 1069YOPC   NC315245   8.539   3.430   5.010  0.0277 -0.2429 -0.1027
 1069YOPC   PO415246   8.668   3.033   5.294 -0.1678 -0.0250 -0.1164
 1069YOPC   GL115247   8.851   3.386   5.481 -0.0906  0.2265  0.0577
 1069YOPC   GL215248   9.149   3.343   5.680 -0.0294  0.2956 -0.0560
 1069YOPC   C1A15249   8.786   3.525   5.892 -0.0474  0.5086 -0.0554
 1069YOPC   D2A15250   8.841   3.748   6.294  0.3085  0.0883 -0.0181
 1069YOPC   C3A15251   8.931   4.124   6.486  0.2359 -0.2086 -0.1844
 1069YOPC   C4A15252   9.031   4.533   6.636 -0.1638  0.3233 -0.1348
 1069YOPC   C1B15253   9.251   3.693   5.964 -0.1939 -0.3464  0.2476
 1069YOPC   C2B15254   9.313   4.021   6.184 -0.0699 -0.1355 -0.1743
 1069YOPC   D3B15255   9.422   4.152   6.599  0.1952 -0.0702 -0.3733
 1069YOPC   C4B15256   9.525   4.344   7.002 -0.1666  0.3831 -0.2225
 1070YOPC   NC315257  13.627  12.014   5.101  0.1927  0.1533  0.1780
 1070YOPC   PO415258  13.474  11.486   5.067  0.0665  0.3182 -0.0120
 1070YOPC   GL115259  13.546  11.390   5.558  0.3707  0.0470 -0.0268
 1070YOPC   GL215260  13.689  11.681   5.721 -0.3953  0.0427  0.1277
 1070YOPC   C1A15261  13.929  11.236   5.895 -0.0224  0.3900  0.0083
 1070YOPC   D2A15262  14.028  11.556   6.240 -0.0141  0.2544  0.3809
 1070YOPC   C3A15263  14.403  11.466   6.348  0.0029 -0.1878 -0.0365
 1070YOPC   C4A15264  14.779  11.682   6.632  0.2122  0.2396  0.5313
 1070YOPC   C1B15265  13.526  11.457   6.103 -0.2652 -0.1094 -0.0265
 1070YOPC   C2B15266  13.576  11.043   6.282  0.1340 -0.0350  0.0444
 1070YOPC   D3B15267  13.925  11.068   6.536  0.0608 -0.2067 -0.1240
 1070YOPC   C4B15268  14.241  11.379   6.824  0.0886  0.3121 -0.0713
 1071YOPC   NC315269  16.165  18.766   5.306  0.4268  0.1391 -0.0700
 1071YOPC   PO415270  16.068  18.361   5.374 -0.0675 -0.2941 -0.0858
 1071YOPC   GL115271  16.057  18.340   5.822 -0.1405 -0.2971  0.0136
 1071YOPC   GL215272  16.182  18.651   5.842  0.0661 -0.0392  0.3779
 1071YOPC   C1A15273  15.932  18.196   6.235 -0.2089 -0.3114 -0.0713
 1071YOPC   D2A15274  15.557  18.177   6.633 -0.0539  0.2915  0.3958
 1071YOPC   C3A15275  15.477  17.954   6.937 -0.0801 -0.0768 -0.0718
 1071YOPC   C4A15276  15.258  17.840   7.362  0.0838  0.1731 -0.0114
 1071YOPC   C1B15277  16.190  18.594   6.322 -0.1393  0.0608  0.4117
 1071YOPC   C2B15278  16.093  18.361   6.734 -0.3832  0.2632 -0.3343
 1071YOPC   D3B15279  15.967  18.210   7.243  0.1571 -0.0467 -0.2047
 1071YOPC   C4B15280  15.785  17.815   7.469 -0.1231  0.1400  0.0329
 1072YOPC   NC315281  11.786   2.699   5.095  0.0915  0.1983  0.3074
 1072YOPC   PO415282  11.512   2.885   5.403  0.0088  0.1148 -0.0852
 1072YOPC   GL115283  11.652   3.068   5.805  0.0461  0.1069  0.1670
 1072YOPC   GL215284  11.916   3.277   5.838 -0.4386  0.1983  0.1800
 1072YOPC   C1A15285  12.036   2.894   6.092 -0.2295  0.0264  0.1063
 1072YOPC   D2A15286  12.010   2.906   6.541 -0.2367 -0.1443 -0.0755
 1072YOPC   C3A15287  11.967   3.374   6.593  0.0108  0.0974  0.1716
 1072YOPC   C4A15288  11.859   3.784   6.521 -0.0046 -0.2776 -0.1387
 1072YOPC   C1B15289  12.044   3.667   6.078 -0.2292 -0.2653  0.1216
 1072YOPC   C2B15290  12.333   3.953   6.389 -0.4025  0.1240  0.0590
 1072YOPC   D3B15291  12.087   4.262   6.537  0.0366  0.0823 -0.1658
 1072YOPC   C4B15292  11.615   4.232   6.550  0.3513 -0.0464 -0.0853
 1073YOPC   NC315293  15.976  12.707   5.370 -0.0663 -0.0790 -0.0227
 1073YOPC   PO415294  16.204  12.280   5.221  0.0310 -0.0757  0.0074
 1073YOPC   GL115295  16.190  11.977   5.573 -0.1358  0.1554 -0.2338
 1073YOPC   GL215296  16.058  12.204   5.701  0.0746 -0.2102  0.5049
 1073YOPC   C1A15297  16.277  11.600   5.916  0.1389 -0.0500  0.0955
 1073YOPC   D2A15298  16.701  11.614   6.159 -0.3367 -0.3136 -0.1553
 1073YOPC   C3A15299  16.618  11.608   6.617  0.4512  0.3046 -0.4392
 1073YOPC   C4A15300  16.449  11.233   6.954  0.0316  0.0532 -0.0172
 1073YOPC   C1B15301  15.932  12.102   6.170 -0.0848  0.4519  0.0604
 1073YOPC   C2B15302  15.683  11.722   6.359 -0.1782 -0.1990  0.1511
 1073YOPC   D3B15303  15.960  11.368   6.186 -0.0033 -0.0715 -0.0059
 1073YOPC   C4B15304  16.369  11.280   6.312 -0.0600 -0.0541 -0.0474
 1074YOPC   NC315305   6.733  16.148   5.546  0.1993  0.0722 -0.2146
 1074YOPC   PO415306   7.048  16.493   5.659  0.1153 -0.1630 -0.0379
 1074YOPC   GL115307   7.171  16.721   6.011  0.2058 -0.3829 -0.1782
 1074YOPC   GL215308   7.289  16.982   5.861  0.2499 -0.0638 -0.1131
 1074YOPC   C1A15309   7.351  16.696   6.491  0.0796 -0.0889 -0.1694
 1074YOPC   D2A15310   7.399  16.426   6.777  0.1812 -0.2871 -0.1394
 1074YOPC   C3A15311   7.070  16.155   6.661 -0.1520 -0.0186  0.0454
 1074YOPC   C4A15312   6.633  16.007   6.718  0.0795  0.1308 -0.0106
 1074YOPC   C1B15313   7.667  16.943   6.167  0.2318  0.0477 -0.1794
 1074YOPC   C2B15314   7.477  17.161   6.559 -0.3289 -0.1080  0.1761
 1074YOPC   D3B15315   7.622  17.433   6.919  0.0822 -0.0111 -0.0958
 1074YOPC   C4B15316   7.429  17.724   7.184  0.1303  0.1429  0.1614
 1075YOPC   NC315317   0.015  16.888   5.563  0.0920  0.0192 -0.1173
 1075YOPC   PO415318  -0.168  17.193   5.666  0.2167  0.0463 -0.0818
 1075YOPC   GL115319  -0.301  16.833   5.909 -0.0025  0.0886  0.0155
 1075YOPC   GL215320  -0.333  16.544   5.776  0.1877  0.1032 -0.0022
 1075YOPC   C1A15321  -0.418  16.481   6.271 -0.2485  0.0365 -0.0420
 1075YOPC   D2A15322  -0.229  16.478   6.703  0.0384  0.0825  0.0651
 1075YOPC   C3A15323  -0.198  16.089   6.985  0.4348 -0.1130 -0.3278
 1075YOPC   C4A15324  -0.450  15.839   7.329  0.1629  0.1019 -0.0244
 1075YOPC   C1B15325   0.022  16.520   6.165 -0.0064 -0.3221  0.4080
 1075YOPC   C2B15326   0.304  16.401   6.504  0.3564  0.1682  0.0162
 1075YOPC   D3B15327   0.448  16.003   6.567 -0.1623  0.1008  0.0247
 1075YOPC   C4B15328   0.875  15.934   6.712 -0.0595  0.5317  0.2107
 1076YOPC   NC315329   6.768  10.366   5.510 -0.0719 -0.2063 -0.3810
 1076YOPC   PO415330   7.309  10.529   5.637 -0.0961  0.2320 -0.1900
 1076YOPC   GL115331   7.466  10.790   5.868 -0.2780  0.0781  0.0483
 1076YOPC   GL215332   7.257  10.975   5.942  0.1158 -0.1324  0.0098
 1076YOPC   C1A15333   7.577  10.784   6.373 -0.2623  0.0645 -0.1127
 1076YOPC   D2A15334   7.791  10.664   6.775 -0.0348  0.0036 -0.1303
 1076YOPC   C3A15335   7.945  10.790   7.090  0.1914 -0.1693 -0.0356
 1076YOPC   C4A15336   8.297  10.938   7.044 -0.1743  0.0282 -0.1253
 1076YOPC   C1B15337   7.427  11.218   6.247  0.0062 -0.1100  0.0828
 1076YOPC   C2B15338   7.744  11.411   6.377 -0.3658 -0.3873 -0.2951
 1076YOPC   D3B15339   7.968  11.224   6.806  0.3588  0.0083  0.1482
 1076YOPC   C4B15340   8.159  11.607   7.061  0.1136  0.0877  0.0241
 1077YOPC   NC315341  10.460  13.995   5.420 -0.1249  0.0222 -0.1540
 1077YOPC   PO415342  10.480  14.406   5.457 -0.0191  0.0676 -0.0426
 1077YOPC   GL115343  10.288  14.295   5.875 -0.0210 -0.2133 -0.1952
 1077YOPC   GL215344  10.064  14.447   5.902  0.2965  0.3075 -0.1044
 1077YOPC   C1A15345  10.080  14.060   6.322 -0.1927  0.1089  0.0987
 1077YOPC   D2A15346  10.080  14.278   6.686  0.3727 -0.1414 -0.3597
 1077YOPC   C3A15347   9.720  14.365   6.762  0.3354 -0.1541 -0.1497
 1077YOPC   C4A15348   9.369  14.522   6.483  0.1862 -0.0938 -0.5340
 1077YOPC   C1B15349   9.899  14.583   6.297  0.2427  0.3179 -0.0468
 1077YOPC   C2B15350   9.999  14.817   6.628  0.0820  0.2403 -0.0711
 1077YOPC   D3B15351   9.940  14.675   7.137 -0.1907 -0.0548 -0.2568
 1077YOPC   C4B15352  10.081  14.395   7.455  0.2721 -0.1525  0.2144
 1078YOPC   NC315353   4.733   1.447   5.144  0.1290 -0.3570  0.1796
 1078YOPC   PO415354   5.145   1.235   5.209  0.0963 -0.1832  0.1930
 1078YOPC   GL115355   5.400   1.164   5.547  0.0105 -0.0218  0.2856
 1078YOPC   GL215356   5.242   1.136   5.890 -0.0469  0.1485 -0.1178
 1078YOPC   C1A15357   5.728   1.281   5.857  0.2389  0.2871  0.1971
 1078YOPC   D2A15358   6.007   1.260   6.208  0.0021 -0.2093  0.0653
 1078YOPC   C3A15359   5.907   1.365   6.580  0.0321 -0.2320  0.0358
 1078YOPC   C4A15360   5.844   1.355   7.113 -0.0951 -0.2606  0.0739
 1078YOPC   C1B15361   5.549   1.032   6.305 -0.2235 -0.2042  0.1361
 1078YOPC   C2B15362   5.822   0.817   6.604  0.4151 -0.3527  0.0468
 1078YOPC   D3B15363   5.682   0.434   6.880 -0.2457 -0.0309  0.2423
 1078YOPC   C4B15364   5.848   0.016   6.806 -0.0084 -0.1270 -0.1331
 1079YOPC   NC315365   1.378  15.503   4.859  0.1584  0.1755 -0.0982
 1079YOPC   PO415366   1.360  15.304   5.234  0.0496 -0.1530 -0.0078
 1079YOPC   GL115367   1.275  15.508   5.697 -0.1032 -0.0821 -0.0885
 1079YOPC   GL215368   1.374  15.838   5.735 -0.0634  0.0745  0.0256
 1079YOPC   C1A15369   1.289  15.548   6.138 -0.1718 -0.0392 -0.0244
 1079YOPC   D2A15370   1.243  15.677   6.552  0.0119 -0.1550 -0.1546
 1079YOPC   C3A15371   1.035  15.502   6.990  0.1365  0.1772  0.0979
 1079YOPC   C4A15372   0.717  15.636   7.143 -0.3956 -0.2223 -0.0417
 1079YOPC   C1B15373   1.705  15.892   6.154  0.3037  0.2149 -0.0863
 1079YOPC   C2B15374   1.700  15.845   6.497 -0.1667  0.3607  0.0158
 1079YOPC   D3B15375   1.993  15.984   6.830  0.2035  0.2698 -0.3383
 1079YOPC   C4B15376   2.242  16.339   6.731  0.1216 -0.0528 -0.3153
 1080YOPC   NC315377  12.236  11.612   5.259  0.1804  0.0388 -0.1309
 1080YOPC   PO415378  11.882  11.925   5.609  0.3585  0.2071  0.0070
 1080YOPC   GL115379  12.181  12.173   5.774 -0.1029  0.1954  0.3343
 1080YOPC   GL215380  12.373  11.985   5.724 -0.1237 -0.0270 -0.1095
 1080YOPC   C1A15381  12.171  12.283   6.157  0.1154 -0.0965 -0.0274
 1080YOPC   D2A15382  12.293  12.085   6.595 -0.1738  0.0482  0.0891
 1080YOPC   C3A15383  12.588  12.213   6.938  0.2895 -0.2248  0.0728
 1080YOPC   C4A15384  12.629  12.509   7.167 -0.0615  0.1357  0.0214
 1080YOPC   C1B15385  12.309  11.784   6.152 -0.0791  0.1104 -0.2149
 1080YOPC   C2B15386  12.159  11.558   6.544  0.1098 -0.1177 -0.1874
 1080YOPC   D3B15387  11.963  11.564   6.941 -0.0562 -0.1883  0.2693
 1080YOPC   C4B15388  11.725  11.401   7.271  0.2924  0.1147  0.2369
 1081YOPC   NC315389   6.462  17.134   5.377 -0.1542  0.3252  0.1186
 1081YOPC   PO415390   6.642  16.776   5.610 -0.1093 -0.1404  0.0256
 1081YOPC   GL115391   6.573  16.870   6.012  0.2639 -0.0787  0.0087
 1081YOPC   GL215392   6.307  17.132   6.013  0.0991  0.0801 -0.1276
 1081YOPC   C1A15393   6.451  16.767   6.475 -0.0024 -0.1159  0.1208
 1081YOPC   D2A15394   6.512  17.059   6.887 -0.0148 -0.1198  0.0418
 1081YOPC   C3A15395   6.039  17.032   7.095  0.0397  0.0821 -0.1079
 1081YOPC   C4A15396   5.711  17.180   7.406 -0.1016 -0.0827  0.0695
 1081YOPC   C1B15397   6.220  17.312   6.450  0.2026 -0.2030  0.0377
 1081YOPC   C2B15398   6.094  17.477   6.806 -0.3558 -0.0696 -0.0125
 1081YOPC   D3B15399   5.736  17.557   6.988  0.0084 -0.1881  0.3971
 1081YOPC   C4B15400   5.513  17.668   7.218  0.5207 -0.2387  0.1165
 1082YOPC   NC315401   0.588   0.900   5.470  0.0488 -0.0789  0.2035
 1082YOPC   PO415402   1.007   1.069   5.554  0.0003  0.4123 -0.2400
 1082YOPC   GL115403   1.196   0.976   6.018 -0.2056  0.0383 -0.0236
 1082YOPC   GL215404   1.467   1.042   6.208  0.3375  0.0982 -0.7170
 1082YOPC   C1A15405   1.095   0.707   6.332 -0.0961  0.1029  0.1175
 1082YOPC   D2A15406   0.956   0.410   6.709  0.1656 -0.2529  0.0120
 1082YOPC   C3A15407   0.909  -0.065   6.600  0.0782  0.2761  0.1159
 1082YOPC   C4A15408   1.089  -0.513   6.714  0.0769 -0.1193  0.1282
 1082YOPC   C1B15409   1.706   0.722   6.420  0.1000 -0.0507 -0.2130
 1082YOPC   C2B15410   1.859   0.621   6.819 -0.3567  0.2571 -0.0028
 1082YOPC   D3B15411   1.694   0.800   7.283  0.1571 -0.1699 -0.2018
 1082YOPC   C4B15412   1.857   1.251   7.413 -0.0913  0.0511  0.0995
 1083YOPC   NC315413  16.365  18.450   4.928  0.2197 -0.0742  0.3437
 1083YOPC   PO415414  16.437  17.980   5.102  0.0025 -0.3435  0.1175
 1083YOPC   GL115415  16.459  18.041   5.554 -0.0858 -0.1822  0.2190
 1083YOPC   GL215416  16.506  18.390   5.609 -0.1222 -0.2225  0.1059
 1083YOPC   C1A15417  16.254  17.861   5.945 -0.0162  0.1912  0.1506
 1083YOPC   D2A15418  16.073  17.662   6.280 -0.2839  0.1762  0.1448
 1083YOPC   C3A15419  16.042  17.828   6.725 -0.0316 -0.0319  0.1340
 1083YOPC   C4A15420  16.008  17.497   7.051  0.3425  0.0762 -0.1149
 1083YOPC   C1B15421  16.557  18.294   6.077  0.2072 -0.1379  0.1508
 1083YOPC   C2B15422  16.498  17.998   6.474  0.0245 -0.2084  0.1796
 1083YOPC   D3B15423  16.632  18.114   6.877 -0.3606 -0.0480  0.0074
 1083YOPC   C4B15424  16.853  18.520   7.066  0.2366  0.1116 -0.1085
 1084YOPC   NC315425   1.675   5.146   5.064  0.1559  0.2968  0.0126
 1084YOPC   PO415426   1.718   4.734   5.315  0.1655  0.0238 -0.2825
 1084YOPC   GL115427   1.976   4.771   5.750 -0.2650  0.1880  0.2299
 1084YOPC   GL215428   2.132   4.450   5.709  0.1536  0.2524  0.2128
 1084YOPC   C1A15429   2.079   4.899   6.167  0.1429 -0.3209 -0.0382
 1084YOPC   D2A15430   2.491   5.065   6.295  0.3759  0.1716  0.3913
 1084YOPC   C3A15431   2.604   4.956   6.657  0.0118  0.0893 -0.1012
 1084YOPC   C4A15432   2.635   4.919   7.120 -0.0648  0.1298 -0.0156
 1084YOPC   C1B15433   1.964   4.374   6.105  0.1069 -0.1164  0.1899
 1084YOPC   C2B15434   1.920   4.202   6.562 -0.3306  0.1620 -0.1583
 1084YOPC   D3B15435   1.695   3.998   7.007 -0.0135 -0.1044 -0.3851
 1084YOPC   C4B15436   1.370   3.689   7.126 -0.1234 -0.1576 -0.0202
 1085YOPC   NC315437  16.863   3.530   4.991  0.1389  0.1169 -0.1242
 1085YOPC   PO415438  16.890   4.045   5.053 -0.0619  0.0921  0.1598
 1085YOPC   GL115439  17.023   4.153   5.510  0.0687 -0.0571 -0.1482
 1085YOPC   GL215440  16.874   4.012   5.821 -0.0812  0.3195  0.1058
 1085YOPC   C1A15441  17.187   4.518   5.804  0.0019 -0.0845 -0.1656
 1085YOPC   D2A15442  17.138   4.792   6.203 -0.3553  0.0558 -0.2527
 1085YOPC   C3A15443  17.035   4.428   6.498  0.0088 -0.1406  0.2283
 1085YOPC   C4A15444  17.079   4.290   6.934 -0.3231 -0.4829  0.0889
 1085YOPC   C1B15445  16.691   4.169   6.213 -0.0317  0.1942  0.0577
 1085YOPC   C2B15446  16.485   4.556   6.405 -0.2982  0.0005 -0.3992
 1085YOPC   D3B15447  16.670   4.911   6.261 -0.1755  0.3763 -0.0741
 1085YOPC   C4B15448  16.813   5.147   5.874  0.1804  0.1184 -0.0679
 1086YOPC   NC315449  15.405   6.407   5.457  0.1537 -0.3199 -0.2210
 1086YOPC   PO415450  15.681   6.594   5.283 -0.3410  0.1074 -0.0381
 1086YOPC   GL115451  15.798   6.564   5.721  0.2868  0.0596 -0.1876
 1086YOPC   GL215452  15.945   6.227   5.772 -0.0318 -0.0439 -0.2165
 1086YOPC   C1A15453  16.171   6.649   5.912  0.0025 -0.0805  0.2577
 1086YOPC   D2A15454  16.408   6.404   6.175 -0.2757  0.0912 -0.0327
 1086YOPC   C3A15455  16.615   6.507   6.483 -0.2843  0.5058 -0.1869
 1086YOPC   C4A15456  16.543   6.783   6.799 -0.0680  0.3251  0.1485
 1086YOPC   C1B15457  15.868   6.336   6.167 -0.2176 -0.1059 -0.1845
 1086YOPC   C2B15458  15.552   6.394   6.407  0.1837 -0.0317  0.1781
 1086YOPC   D3B15459  15.540   5.998   6.526  0.0320  0.0083  0.1362
 1086YOPC   C4B15460  15.453   5.618   6.369  0.0365  0.0055  0.0204
 1087YOPC   NC315461  14.065   6.675   5.060 -0.0160  0.0482  0.0625
 1087YOPC   PO415462  14.445   6.697   5.122 -0.2733  0.3748 -0.2710
 1087YOPC   GL115463  14.704   6.955   5.498  0.1096  0.1645 -0.2976
 1087YOPC   GL215464  14.665   6.674   5.592  0.0246  0.1617 -0.0929
 1087YOPC   C1A15465  14.856   7.045   5.996 -0.0445 -0.1912 -0.4081
 1087YOPC   D2A15466  14.798   7.022   6.414  0.2142 -0.1976  0.1665
 1087YOPC   C3A15467  14.613   6.639   6.481  0.1758  0.0431  0.1619
 1087YOPC   C4A15468  14.702   6.224   6.281 -0.3420 -0.0740 -0.3492
 1087YOPC   C1B15469  14.463   6.664   5.951  0.1567 -0.3442 -0.4278
 1087YOPC   C2B15470  14.135   6.604   6.108 -0.1380 -0.2161 -0.0656
 1087YOPC   D3B15471  13.863   6.392   6.121 -0.1140  0.3583 -0.1535
 1087YOPC   C4B15472  13.906   6.048   6.503  0.0121 -0.0555  0.2882
 1088YOPC   NC315473   1.647   7.167   5.154  0.0344  0.0420 -0.1312
 1088YOPC   PO415474   2.091   7.091   5.345 -0.0727  0.1391  0.0432
 1088YOPC   GL115475   1.910   7.226   5.694 -0.2072 -0.0326  0.0537
 1088YOPC   GL215476   1.620   7.259   5.624  0.0399  0.1152  0.2703
 1088YOPC   C1A15477   1.978   7.185   6.098  0.1849 -0.2194 -0.2697
 1088YOPC   D2A15478   2.155   7.085   6.455 -0.2782 -0.0549 -0.1345
 1088YOPC   C3A15479   1.951   7.185   6.939  0.1535  0.2448  0.2236
 1088YOPC   C4A15480   1.435   7.220   7.058  0.3193 -0.1109  0.1328
 1088YOPC   C1B15481   1.499   7.195   6.010  0.3090  0.0823 -0.1488
 1088YOPC   C2B15482   1.465   7.428   6.282  0.1937 -0.0790 -0.1264
 1088YOPC   D3B15483   1.739   7.482   6.590 -0.1261  0.0298  0.0523
 1088YOPC   C4B15484   1.755   7.646   6.982 -0.0021  0.1280  0.1397
 1089YOPC   NC315485   3.719   6.276   4.951  0.0232  0.0188 -0.4858
 1089YOPC   PO415486   4.232   6.346   4.695  0.5496 -0.3881 -0.1323
 1089YOPC   GL115487   4.259   6.183   5.072 -0.0875  0.2667 -0.0931
 1089YOPC   GL215488   4.063   5.862   5.243  0.0700 -0.1251 -0.0737
 1089YOPC   C1A15489   4.339   6.573   5.447 -0.0153  0.0518 -0.0257
 1089YOPC   D2A15490   4.757   6.881   5.528 -0.0631 -0.1247  0.2586
 1089YOPC   C3A15491   4.974   6.891   5.995 -0.2742  0.2994 -0.3107
 1089YOPC   C4A15492   5.012   6.718   6.368 -0.3755 -0.2409  0.2753
 1089YOPC   C1B15493   4.229   6.045   5.622  0.0362 -0.0155  0.3649
 1089YOPC   C2B15494   4.086   6.243   5.947 -0.2073  0.0470 -0.1453
 1089YOPC   D3B15495   3.777   6.069   6.182 -0.1078 -0.1172 -0.0053
 1089YOPC   C4B15496   3.563   5.944   6.510  0.0832 -0.1173 -0.3376
 1090YOPC   NC315497  15.694   9.006   5.083  0.0259  0.1414  0.0751
 1090YOPC   PO415498  15.810   8.571   5.189 -0.0748 -0.2634 -0.0171
 1090YOPC   GL115499  15.637   8.660   5.541  0.0371 -0.3839 -0.0696
 1090YOPC   GL215500  15.545   8.889   5.720  0.1070 -0.4900 -0.2420
 1090YOPC   C1A15501  15.844   8.585   5.921 -0.0314  0.1409  0.2276
 1090YOPC   D2A15502  15.972   8.329   6.299 -0.5041 -0.0511  0.3698
 1090YOPC   C3A15503  15.775   7.940   6.407  0.2215 -0.0899  0.1202
 1090YOPC   C4A15504  15.586   7.640   6.088 -0.0428 -0.1176 -0.2573
 1090YOPC   C1B15505  15.343   8.596   5.976  0.2509  0.0528  0.4029
 1090YOPC   C2B15506  15.236   8.384   6.278 -0.1070 -0.1566  0.5135
 1090YOPC   D3B15507  15.430   8.421   6.583  0.1169 -0.0153  0.1392
 1090YOPC   C4B15508  15.816   8.346   6.826 -0.0942 -0.2188  0.1370
 1091YOPC   NC315509   9.275   8.630   5.329 -0.2418  0.2455 -0.0950
 1091YOPC   PO415510   9.628   8.377   5.509 -0.1116 -0.0447 -0.1681
 1091YOPC   GL115511   9.650   8.409   5.949  0.0372 -0.0355  0.0134
 1091YOPC   GL215512   9.469   8.443   6.170  0.2473  0.1299 -0.2894
 1091YOPC   C1A15513  10.002   8.529   6.107  0.3714  0.4045  0.2218
 1091YOPC   D2A15514  10.176   8.895   6.323 -0.1587 -0.4055 -0.0729
 1091YOPC   C3A15515   9.990   9.130   6.579 -0.0331  0.0187 -0.0235
 1091YOPC   C4A15516   9.674   9.016   6.861 -0.1796 -0.1404  0.0936
 1091YOPC   C1B15517   9.501   8.055   6.472  0.0212 -0.2826 -0.0767
 1091YOPC   C2B15518   9.670   7.783   6.793 -0.3564 -0.1510  0.2450
 1091YOPC   D3B15519   9.685   7.884   7.274 -0.1039 -0.1359 -0.3247
 1091YOPC   C4B15520   9.900   7.788   7.554  0.0669  0.0552 -0.0312
 1092YOPC   NC315521   8.331  18.742   5.238  0.2470  0.0326  0.0489
 1092YOPC   PO415522   8.725  18.793   5.117 -0.1108  0.0121 -0.1449
 1092YOPC   GL115523   8.534  19.134   5.508 -0.1325  0.1383  0.1390
 1092YOPC   GL215524   8.195  19.038   5.667  0.0002  0.0719 -0.0547
 1092YOPC   C1A15525   8.405  19.467   5.689 -0.1045 -0.2488 -0.1538
 1092YOPC   D2A15526   8.386  19.909   5.991  0.2396  0.0972  0.1392
 1092YOPC   C3A15527   8.095  19.890   6.235  0.3847  0.0839  0.2092
 1092YOPC   C4A15528   8.030  20.136   6.637  0.3323  0.0257 -0.1311
 1092YOPC   C1B15529   8.413  18.966   6.052 -0.4916  0.0467 -0.0052
 1092YOPC   C2B15530   8.784  18.756   6.188  0.0734  0.0144 -0.1337
 1092YOPC   D3B15531   8.859  18.824   6.495  0.3789 -0.0307 -0.2988
 1092YOPC   C4B15532   8.900  18.997   6.862  0.0342 -0.0291 -0.4374
 1093YOPC   NC315533   5.026   4.216   4.882 -0.0838 -0.2457 -0.3233
 1093YOPC   PO415534   4.773   4.207   5.079  0.2508 -0.0213  0.0424
 1093YOPC   GL115535   4.695   3.948   5.471 -0.0285  0.2695  0.2253
 1093YOPC   GL215536   4.405   4.222   5.623  0.3052 -0.1647 -0.1071
 1093YOPC   C1A15537   4.770   3.856   5.970 -0.1458  0.3186  0.0645
 1093YOPC   D2A15538   4.857   3.603   6.287 -0.2943  0.0793 -0.3305
 1093YOPC   C3A15539   4.527   3.363   6.495  0.0536  0.0239  0.0648
 1093YOPC   C4A15540   4.176   3.350   6.429 -0.2425  0.1048  0.3428
 1093YOPC   C1B15541   4.581   4.318   6.014  0.0298 -0.0604  0.4197
 1093YOPC   C2B15542   4.594   4.201   6.487  0.0089 -0.0055 -0.3227
 1093YOPC   D3B15543   4.699   3.839   6.781 -0.1685 -0.1800  0.1487
 1093YOPC   C4B15544   5.014   3.464   6.783  0.0843  0.0203  0.0103
 1094YOPC   NC315545   8.181   7.624   4.503 -0.0801  0.1961 -0.1329
 1094YOPC   PO415546   7.801   7.439   4.864  0.0667  0.0808 -0.0468
 1094YOPC   GL115547   7.806   7.386   5.370  0.1026 -0.1213 -0.2330
 1094YOPC   GL215548   8.050   7.228   5.435 -0.3241 -0.1541 -0.2463
 1094YOPC   C1A15549   7.626   7.461   5.772 -0.0595  0.1509  0.2591
 1094YOPC   D2A15550   7.465   7.369   6.101  0.1868 -0.3082 -0.2321
 1094YOPC   C3A15551   7.102   7.460   6.181  0.1731 -0.0271 -0.1131
 1094YOPC   C4A15552   6.843   7.828   6.170 -0.0798  0.2694 -0.0576
 1094YOPC   C1B15553   7.934   6.984   5.757  0.1793 -0.1005  0.2335
 1094YOPC   C2B15554   7.724   6.926   5.944 -0.2721 -0.0359  0.3414
 1094YOPC   D3B15555   7.270   7.142   5.757  0.2162 -0.0712  0.0949
 1094YOPC   C4B15556   6.923   7.506   5.724  0.0983  0.0656  0.0807
 1095YOPC   NC315557   0.325   6.601   5.034 -0.0767 -0.1306  0.0874
 1095YOPC   PO415558   0.107   6.243   5.158 -0.2350  0.2445 -0.0090
 1095YOPC   GL115559   0.113   6.414   5.551  0.0693  0.1779  0.1953
 1095YOPC   GL215560  -0.111   6.424   5.685  0.2745 -0.1456  0.4090
 1095YOPC   C1A15561   0.505   6.391   5.870 -0.3085 -0.1699  0.0739
 1095YOPC   D2A15562   0.865   6.550   6.069  0.0785 -0.1545  0.0856
 1095YOPC   C3A15563   0.750   6.514   6.487 -0.0839 -0.0649 -0.3129
 1095YOPC   C4A15564   0.818   6.534   6.944  0.0133 -0.0586  0.0577
 1095YOPC   C1B15565   0.027   6.589   6.027 -0.1528 -0.0935  0.1304
 1095YOPC   C2B15566   0.278   6.491   6.510 -0.3110  0.0168  0.2249
 1095YOPC   D3B15567   0.467   6.253   6.811  0.0975  0.2100 -0.0274
 1095YOPC   C4B15568   0.557   5.994   7.070  0.0531 -0.1091 -0.2544
 1096YOPC   NC315569  14.522   7.440   5.345  0.1070 -0.2169  0.0902
 1096YOPC   PO415570  13.969   7.512   5.254 -0.2896  0.1493 -0.0801
 1096YOPC   GL115571  14.133   7.656   5.642 -0.1431  0.1174 -0.1239
 1096YOPC   GL215572  14.366   7.871   5.635 -0.2366  0.0242 -0.2701
 1096YOPC   C1A15573  14.089   7.659   6.118 -0.2796 -0.0290  0.1424
 1096YOPC   D2A15574  14.314   7.834   6.425 -0.0148 -0.0173  0.1982
 1096YOPC   C3A15575  14.667   8.026   6.665 -0.1732  0.1004 -0.1378
 1096YOPC   C4A15576  14.877   8.357   6.764 -0.0864 -0.1362  0.1041
 1096YOPC   C1B15577  14.555   7.805   6.021  0.2684  0.1438  0.2150
 1096YOPC   C2B15578  14.718   7.520   6.241 -0.2486  0.1437  0.2837
 1096YOPC   D3B15579  14.627   7.476   6.617 -0.3507  0.1133 -0.2131
 1096YOPC   C4B15580  14.622   7.228   6.828  0.1258  0.3601 -0.1027
 1097YOPC   NC315581   7.198  11.874   5.383 -0.1851 -0.1584 -0.0897
 1097YOPC   PO415582   7.643  11.628   5.598 -0.0815  0.0380  0.0343
 1097YOPC   GL115583   7.419  11.709   5.975  0.2080 -0.0880  0.3477
 1097YOPC   GL215584   7.089  11.695   6.065  0.1528  0.3928  0.2200
 1097YOPC   C1A15585   7.393  11.725   6.441 -0.1472 -0.0644  0.4222
 1097YOPC   D2A15586   6.989  11.832   6.657  0.2754 -0.1874  0.0521
 1097YOPC   C3A15587   7.040  12.246   6.947 -0.1205 -0.0004 -0.0186
 1097YOPC   C4A15588   6.826  12.428   7.363 -0.1627  0.3157 -0.1642
 1097YOPC   C1B15589   6.959  11.360   6.324  0.0976  0.2928 -0.2914
 1097YOPC   C2B15590   6.685  11.378   6.679 -0.1898  0.2803  0.3083
 1097YOPC   D3B15591   6.612  11.386   7.035  0.2199 -0.1077 -0.0910
 1097YOPC   C4B15592   6.729  11.044   7.315  0.2942  0.1918  0.2739
 1098YOPC   NC315593   9.041   4.832   4.773 -0.1275  0.1998  0.2972
 1098YOPC   PO415594   9.213   4.528   5.041 -0.0572  0.1057 -0.0721
 1098YOPC   GL115595   9.056   4.658   5.465  0.1217  0.0293 -0.0596
 1098YOPC   GL215596   8.717   4.774   5.534  0.2627  0.0295 -0.2017
 1098YOPC   C1A15597   9.088   4.988   5.782  0.3358  0.2518  0.3469
 1098YOPC   D2A15598   8.911   5.470   5.648  0.0581 -0.2277  0.2626
 1098YOPC   C3A15599   8.876   5.866   5.992 -0.0654  0.0738  0.1450
 1098YOPC   C4A15600   8.921   6.056   6.336 -0.1930  0.0370  0.0723
 1098YOPC   C1B15601   8.579   4.869   5.869  0.2464 -0.1544 -0.2948
 1098YOPC   C2B15602   8.209   4.790   6.115 -0.0953  0.0333  0.1154
 1098YOPC   D3B15603   8.281   4.967   6.620  0.2917  0.0037 -0.2514
 1098YOPC   C4B15604   8.420   5.367   6.531  0.1118  0.0344  0.3613
 1099YOPC   NC315605   0.200   3.802   4.908 -0.1964 -0.0788 -0.1386
 1099YOPC   PO415606   0.373   3.367   5.118  0.2701  0.1939 -0.0432
 1099YOPC   GL115607   0.316   3.228   5.524 -0.2014  0.0977 -0.1005
 1099YOPC   GL215608  -0.011   3.047   5.688  0.0589 -0.2131 -0.0933
 1099YOPC   C1A15609   0.550   3.053   5.908  0.1913 -0.1252 -0.1879
 1099YOPC   D2A15610   0.762   2.762   6.231  0.2973  0.1401 -0.2001
 1099YOPC   C3A15611   0.839   2.695   6.568 -0.0634  0.1777  0.1518
 1099YOPC   C4A15612   0.604   2.419   6.769  0.1000  0.0186  0.2468
 1099YOPC   C1B15613  -0.259   3.022   6.078 -0.1459  0.1362  0.0728
 1099YOPC   C2B15614  -0.323   3.031   6.548  0.0037 -0.0452  0.1753
 1099YOPC   D3B15615  -0.255   2.622   6.621 -0.1112 -0.0182  0.0009
 1099YOPC   C4B15616   0.018   2.509   6.996  0.1497 -0.0046  0.3664
 1100YOPC   NC315617   9.335  18.537   5.013  0.2801  0.0175 -0.2947
 1100YOPC   PO415618   9.201  18.714   5.359 -0.0284  0.3142 -0.1272
 1100YOPC   GL115619   8.905  18.836   5.649 -0.1122 -0.4887 -0.1893
 1100YOPC   GL215620   8.573  18.661   5.691 -0.2942  0.4064 -0.1353
 1100YOPC   C1A15621   8.813  19.135   5.870 -0.2723  0.1780  0.1192
 1100YOPC   D2A15622   8.927  19.242   6.262 -0.0431  0.0838 -0.0387
 1100YOPC   C3A15623   9.239  19.469   6.324 -0.4189 -0.1821 -0.0397
 1100YOPC   C4A15624   9.383  19.387   6.644  0.1015 -0.1118  0.2040
 1100YOPC   C1B15625   8.421  18.461   6.083 -0.0879 -0.1522  0.0928
 1100YOPC   C2B15626   8.176  18.220   6.253 -0.2421 -0.0189  0.1370
 1100YOPC   D3B15627   7.897  18.168   6.598 -0.0381  0.2340  0.0278
 1100YOPC   C4B15628   7.693  18.016   6.880 -0.0301 -0.1792 -0.0935
 1101YOPC   NC315629  16.303   7.458   4.960 -0.1925 -0.0381  0.0294
 1101YOPC   PO415630  16.156   7.937   4.999  0.1874 -0.1685 -0.2063
 1101YOPC   GL115631  15.991   7.692   5.364 -0.0942  0.1329 -0.2073
 1101YOPC   GL215632  15.949   7.857   5.675 -0.0692 -0.0250 -0.2594
 1101YOPC   C1A15633  15.768   7.391   5.671 -0.0366 -0.1609 -0.1962
 1101YOPC   D2A15634  15.881   7.098   5.879 -0.2886  0.1715  0.2724
 1101YOPC   C3A15635  15.949   7.283   6.255  0.5124 -0.1516  0.0116
 1101YOPC   C4A15636  15.843   7.461   6.777 -0.0522  0.1634 -0.0232
 1101YOPC   C1B15637  16.165   7.919   6.070 -0.1140  0.2204  0.2094
 1101YOPC   C2B15638  16.265   7.674   6.423 -0.2240 -0.0422 -0.2284
 1101YOPC   D3B15639  16.105   7.949   6.764 -0.1352 -0.1791  0.0820
 1101YOPC   C4B15640  16.341   8.252   6.962 -0.0081  0.0362  0.1663
 1102YOPC   NC315641  12.058  16.670   5.394 -0.3269 -0.2965 -0.0560
 1102YOPC   PO415642  11.971  16.895   5.776 -0.2059  0.3026 -0.1746
 1102YOPC   GL115643  11.914  16.490   5.820  0.2726  0.1548 -0.0357
 1102YOPC   GL215644  11.604  16.375   5.963 -0.1227  0.0743 -0.2712
 1102YOPC   C1A15645  12.048  16.187   6.140 -0.0784  0.1092  0.0667
 1102YOPC   D2A15646  12.222  15.881   6.480  0.1156  0.1630  0.0528
 1102YOPC   C3A15647  12.089  15.985   6.835  0.0244 -0.1504 -0.2517
 1102YOPC   C4A15648  12.036  16.409   7.050  0.2026  0.1320 -0.0298
 1102YOPC   C1B15649  11.586  16.049   6.294 -0.0934  0.1565 -0.2015
 1102YOPC   C2B15650  11.372  15.598   6.318  0.1776 -0.1055 -0.1806
 1102YOPC   D3B15651  11.022  15.380   6.153  0.0811  0.0293  0.5335
 1102YOPC   C4B15652  10.668  15.170   6.050  0.5817 -0.0137 -0.0112
 1103YOPC   NC315653  10.485  15.346   5.061  0.0011 -0.2195 -0.1493
 1103YOPC   PO415654  10.294  15.673   5.226  0.1036  0.4667  0.0969
 1103YOPC   GL115655  10.227  15.475   5.732  0.0018 -0.1296  0.0266
 1103YOPC   GL215656  10.164  15.055   5.819 -0.1115 -0.0853 -0.2767
 1103YOPC   C1A15657  10.061  15.673   5.984 -0.3485  0.0949  0.3748
 1103YOPC   D2A15658  10.043  16.006   6.338 -0.2597 -0.0003 -0.1230
 1103YOPC   C3A15659  10.386  16.021   6.630 -0.0629 -0.3384  0.1714
 1103YOPC   C4A15660  10.735  16.194   6.814 -0.2636  0.0629  0.0240
 1103YOPC   C1B15661  10.040  15.158   6.196  0.0129 -0.0648 -0.2542
 1103YOPC   C2B15662   9.934  15.520   6.490  0.1542  0.0048  0.1552
 1103YOPC   D3B15663  10.220  15.639   6.848 -0.2083 -0.2040  0.2721
 1103YOPC   C4B15664  10.380  15.599   7.227  0.1509 -0.0526 -0.1350
 1104YOPC   NC315665   9.739   4.350   4.891 -0.1733 -0.0361 -0.0480
 1104YOPC   PO415666   9.904   4.084   5.010 -0.1912  0.1320  0.3601
 1104YOPC   GL115667   9.804   4.236   5.389  0.0321  0.2796  0.1749
 1104YOPC   GL215668   9.483   4.291   5.405 -0.0334 -0.0787  0.3796
 1104YOPC   C1A15669  10.017   4.540   5.805 -0.0053 -0.2370  0.2180
 1104YOPC   D2A15670  10.333   4.813   6.072 -0.3122 -0.0364  0.0980
 1104YOPC   C3A15671  10.753   4.704   6.253  0.0521 -0.2312 -0.2193
 1104YOPC   C4A15672  10.849   4.452   6.449  0.1095 -0.0759  0.0510
 1104YOPC   C1B15673   9.467   4.556   5.782 -0.0867  0.2610  0.0909
 1104YOPC   C2B15674   9.682   4.890   6.001 -0.0163 -0.1644 -0.3011
 1104YOPC   D3B15675   9.858   4.876   6.259  0.0057  0.0331 -0.1284
 1104YOPC   C4B15676   9.947   4.766   6.753 -0.2846  0.0483  0.1154
 1105YOPC   NC315677   9.545   0.522   5.551  0.1624  0.3370  0.0378
 1105YOPC   PO415678   9.950   0.516   5.392  0.1422 -0.0757 -0.1309
 1105YOPC   GL115679   9.894   0.867   5.725 -0.0486  0.0358  0.1144
 1105YOPC   GL215680   9.825   0.702   5.906 -0.0142  0.2129  0.2457
 1105YOPC   C1A15681   9.783   1.210   5.964  0.0930 -0.2977 -0.1488
 1105YOPC   D2A15682  10.012   1.600   6.179 -0.0197 -0.0779 -0.1737
 1105YOPC   C3A15683  10.004   1.626   6.630  0.2254  0.0400  0.0250
 1105YOPC   C4A15684  10.132   1.423   7.028  0.2548  0.0280  0.2404
 1105YOPC   C1B15685  10.220   0.735   6.136  0.3371 -0.0240  0.0940
 1105YOPC   C2B15686  10.541   0.639   6.407 -0.0698 -0.1508 -0.1172
 1105YOPC   D3B15687  10.725   0.222   6.528  0.1763 -0.1045 -0.0507
 1105YOPC   C4B15688  10.913   0.152   6.940 -0.5354 -0.3523  0.1279
 1106YOPC   NC315689   2.355   8.580   5.395 -0.2409 -0.1828 -0.1831
 1106YOPC   PO415690   2.770   8.336   5.301  0.3204  0.1632 -0.1098
 1106YOPC   GL115691   2.515   8.199   5.700  0.3175  0.1375  0.0196
 1106YOPC   GL215692   2.204   8.227   5.775  0.2086  0.1622 -0.1602
 1106YOPC   C1A15693   2.359   8.118   6.270 -0.0318  0.1779 -0.1029
 1106YOPC   D2A15694   2.636   7.854   6.512 -0.1563  0.2106  0.1046
 1106YOPC   C3A15695   2.629   7.896   6.930 -0.1139  0.0339 -0.0160
 1106YOPC   C4A15696   2.583   7.704   7.303 -0.1271 -0.1088 -0.1076
 1106YOPC   C1B15697   1.992   8.406   6.048  0.0285  0.0467  0.1807
 1106YOPC   C2B15698   1.660   8.333   6.399  0.2590 -0.1220 -0.1537
 1106YOPC   D3B15699   2.026   8.006   6.623  0.1861  0.3229 -0.2383
 1106YOPC   C4B15700   2.148   7.952   7.098 -0.0807 -0.2739  0.1435
 1107YOPC   NC315701  14.172   4.904   5.120  0.0711  0.0427 -0.1994
 1107YOPC   PO415702  14.487   4.542   5.125  0.0508  0.1833  0.0119
 1107YOPC   GL115703  14.469   4.541   5.569  0.1798 -0.3909  0.0619
 1107YOPC   GL215704  14.777   4.762   5.723  0.0116  0.0198 -0.2115
 1107YOPC   C1A15705  14.220   4.338   5.911  0.0562 -0.0893  0.0741
 1107YOPC   D2A15706  14.402   3.947   6.171 -0.1611 -0.0119 -0.2020
 1107YOPC   C3A15707  14.428   3.984   6.561  0.0155  0.1006  0.0041
 1107YOPC   C4A15708  14.180   3.920   6.925  0.3994 -0.1471  0.0014
 1107YOPC   C1B15709  14.781   4.473   6.042 -0.0179 -0.0997 -0.0084
 1107YOPC   C2B15710  14.885   4.224   6.381  0.1899  0.1805 -0.1340
 1107YOPC   D3B15711  15.217   3.927   6.502  0.0208 -0.3995 -0.1779
 1107YOPC   C4B15712  15.541   3.683   6.420 -0.0657 -0.1163  0.0191
 1108YOPC   NC315713  12.695  12.975   5.514 -0.2125 -0.1770  0.1376
 1108YOPC   PO415714  12.281  12.753   5.407 -0.1699 -0.1003 -0.1845
 1108YOPC   GL115715  12.155  12.806   5.793  0.6247 -0.0313  0.0057
 1108YOPC   GL215716  12.404  12.959   5.967 -0.0523 -0.2001  0.0956
 1108YOPC   C1A15717  11.831  12.562   5.879  0.0549  0.0540  0.1845
 1108YOPC   D2A15718  11.488  12.334   6.195  0.2962  0.0831 -0.4490
 1108YOPC   C3A15719  11.401  12.711   6.262  0.1881 -0.0788 -0.1632
 1108YOPC   C4A15720  11.348  13.143   6.366  0.0566 -0.4304  0.2896
 1108YOPC   C1B15721  12.401  12.646   6.389  0.2247 -0.0540  0.0279
 1108YOPC   C2B15722  12.254  12.675   6.830  0.0720 -0.1561  0.2612
 1108YOPC   D3B15723  12.145  12.416   7.156 -0.2352  0.1588 -0.0194
 1108YOPC   C4B15724  12.243  12.201   7.560 -0.0935 -0.1876 -0.0207
 1109YOPC   NC315725   2.931   1.660   5.249 -0.0439  0.0134 -0.2039
 1109YOPC   PO415726   3.011   1.963   5.433  0.2195  0.1620 -0.1395
 1109YOPC   GL115727   2.934   2.232   5.860  0.1644 -0.3474 -0.0882
 1109YOPC   GL215728   2.586   2.468   5.829  0.0598 -0.1685  0.1425
 1109YOPC   C1A15729   2.837   2.394   6.258 -0.2049  0.0374 -0.0593
 1109YOPC   D2A15730   2.786   2.523   6.663 -0.0426 -0.1087  0.2748
 1109YOPC   C3A15731   2.732   2.178   7.054  0.2600 -0.0305 -0.0471
 1109YOPC   C4A15732   3.012   2.284   7.469 -0.2902 -0.1651 -0.0900
 1109YOPC   C1B15733   2.532   2.031   6.055  0.3141  0.0641  0.0881
 1109YOPC   C2B15734   2.443   1.975   6.463 -0.1649 -0.1254  0.2330
 1109YOPC   D3B15735   2.184   1.696   6.560 -0.2329  0.1230  0.1016
 1109YOPC   C4B15736   2.215   1.266   6.840 -0.1960  0.1293  0.0008
 1110YOPC   NC315737  14.827   3.292   4.602  0.2973  0.0997  0.1595
 1110YOPC   PO415738  14.861   3.610   4.827  0.0379  0.1486  0.4913
 1110YOPC   GL115739  15.006   3.491   5.131 -0.0211  0.0066  0.0912
 1110YOPC   GL215740  15.071   3.712   5.357 -0.0309  0.1240 -0.1015
 1110YOPC   C1A15741  14.855   3.261   5.511 -0.2701  0.1502  0.3188
 1110YOPC   D2A15742  14.896   2.928   5.857  0.1639 -0.0243 -0.2248
 1110YOPC   C3A15743  15.096   2.469   5.736 -0.0467  0.2087  0.0794
 1110YOPC   C4A15744  15.322   2.212   5.952  0.2550  0.0727 -0.0645
 1110YOPC   C1B15745  14.815   3.601   5.805  0.2404  0.1022 -0.2746
 1110YOPC   C2B15746  14.864   3.679   6.299  0.0495  0.0668  0.2328
 1110YOPC   D3B15747  15.040   3.446   6.541 -0.2893  0.1021 -0.1452
 1110YOPC   C4B15748  15.267   3.261   6.966  0.0643 -0.1360 -0.1608
 1111YOPC   NC315749  15.697  15.980   5.556  0.0255  0.0110  0.1098
 1111YOPC   PO415750  15.342  15.913   5.810 -0.2916 -0.4142  0.2119
 1111YOPC   GL115751  15.128  16.076   6.094 -0.2426 -0.2899 -0.0449
 1111YOPC   GL215752  14.804  16.354   6.132 -0.0386  0.3544  0.2462
 1111YOPC   C1A15753  15.107  16.291   6.528  0.1047  0.3582  0.0532
 1111YOPC   D2A15754  15.221  16.411   6.836  0.0405 -0.1792 -0.1268
 1111YOPC   C3A15755  15.157  16.102   7.187  0.0153 -0.0767 -0.0896
 1111YOPC   C4A15756  14.829  15.833   7.113 -0.1068  0.0706  0.2089
 1111YOPC   C1B15757  14.915  16.733   6.326 -0.1552  0.7097 -0.1086
 1111YOPC   C2B15758  14.692  16.839   6.769 -0.0601 -0.1210 -0.1460
 1111YOPC   D3B15759  14.830  17.015   7.076  0.1627 -0.1016 -0.1585
 1111YOPC   C4B15760  15.001  17.206   7.445 -0.2732 -0.0711 -0.1303
 1112YOPC   NC315761  13.230   3.913   4.558 -0.0956  0.0517  0.3918
 1112YOPC   PO415762  13.547   4.043   4.780 -0.1556  0.0865  0.2585
 1112YOPC   GL115763  13.680   4.115   5.217  0.0911 -0.4199 -0.2672
 1112YOPC   GL215764  13.372   4.000   5.484 -0.1950 -0.3102 -0.2029
 1112YOPC   C1A15765  13.925   4.044   5.603 -0.0537  0.1061 -0.0788
 1112YOPC   D2A15766  14.070   3.868   5.857  0.2336 -0.1237 -0.0838
 1112YOPC   C3A15767  13.958   3.400   5.806  0.1358 -0.1606 -0.3520
 1112YOPC   C4A15768  13.937   2.995   6.021  0.2201 -0.0781 -0.3098
 1112YOPC   C1B15769  13.304   4.219   5.857  0.0910 -0.0896 -0.2755
 1112YOPC   C2B15770  13.310   4.671   5.970 -0.1337 -0.0489 -0.2966
 1112YOPC   D3B15771  13.356   4.725   6.348  0.2970  0.0652 -0.3702
 1112YOPC   C4B15772  13.469   4.651   6.700 -0.1671  0.2147 -0.1002
 1113YOPC   NC315773  18.632  18.587   5.694  0.1211  0.1792 -0.0071
 1113YOPC   PO415774  18.721  18.935   5.664 -0.0781  0.2476 -0.0674
 1113YOPC   GL115775  18.389  19.051   5.908  0.2021  0.1951  0.1703
 1113YOPC   GL215776  18.448  18.818   6.226 -0.2646  0.1590  0.0989
 1113YOPC   C1A15777  18.124  19.117   6.349  0.0767 -0.0372 -0.3519
 1113YOPC   D2A15778  18.099  19.151   6.794  0.0562  0.2134 -0.3649
 1113YOPC   C3A15779  18.112  19.153   7.209 -0.0896 -0.3185  0.0543
 1113YOPC   C4A15780  18.420  19.397   7.360  0.3540 -0.1031 -0.0916
 1113YOPC   C1B15781  18.658  19.018   6.457 -0.0674  0.0182 -0.0858
 1113YOPC   C2B15782  18.903  19.363   6.378  0.1049  0.1779 -0.0403
 1113YOPC   D3B15783  19.267  19.523   6.563  0.1159 -0.3223 -0.0340
 1113YOPC   C4B15784  19.287  19.534   7.063 -0.0644  0.1383 -0.2129
 1114YOPC   NC315785  13.422   0.625   5.305  0.0831 -0.1814  0.1196
 1114YOPC   PO415786  13.471   1.069   5.246  0.2513  0.3860  0.0668
 1114YOPC   GL115787  13.540   1.135   5.639 -0.2586 -0.0283  0.0203
 1114YOPC   GL215788  13.264   1.053   5.880  0.1622  0.1153  0.1252
 1114YOPC   C1A15789  13.757   1.197   6.046  0.1027  0.0464 -0.0799
 1114YOPC   D2A15790  13.699   1.110   6.481  0.0894 -0.0253 -0.2145
 1114YOPC   C3A15791  13.878   1.315   6.816 -0.0264  0.1526  0.4438
 1114YOPC   C4A15792  13.940   1.686   6.964 -0.0326  0.0753  0.2245
 1114YOPC   C1B15793  13.031   1.033   6.326  0.1613 -0.1645  0.1128
 1114YOPC   C2B15794  12.648   0.929   6.452 -0.2162 -0.0957  0.0431
 1114YOPC   D3B15795  12.484   0.593   6.442 -0.1554  0.0668  0.1790
 1114YOPC   C4B15796  12.140   0.280   6.312 -0.2526 -0.0020  0.1766
 1115YOPC   NC315797  19.262  11.248   5.058 -0.2718 -0.2321 -0.1454
 1115YOPC   PO415798  19.582  11.458   5.121 -0.0683 -0.0012  0.0276
 1115YOPC   GL115799  19.515  11.314   5.520 -0.3719 -0.1156  0.1656
 1115YOPC   GL215800  19.108  11.374   5.644 -0.5094 -0.1099 -0.0439
 1115YOPC   C1A15801  19.610  11.183   5.976 -0.1671  0.0887 -0.1677
 1115YOPC   D2A15802  19.463  10.957   6.382 -0.0846  0.0229  0.2234
 1115YOPC   C3A15803  19.790  10.976   6.578  0.0266 -0.0263 -0.3848
 1115YOPC   C4A15804  19.971  10.645   6.788  0.0260  0.1112  0.2118
 1115YOPC   C1B15805  19.157  11.053   5.989  0.2123 -0.0269  0.3367
 1115YOPC   C2B15806  18.910  10.740   6.144 -0.1065  0.0836  0.0513
 1115YOPC   D3B15807  18.424  10.903   6.243  0.1527 -0.0498  0.0074
 1115YOPC   C4B15808  18.235  11.293   6.196  0.1249 -0.0047  0.0650
 1116YOPC   NC315809  12.154   0.643   5.210  0.1797  0.1023  0.0068
 1116YOPC   PO415810  11.967   0.941   5.379 -0.1013  0.1016  0.1263
 1116YOPC   GL115811  11.745   0.949   5.756 -0.0187 -0.2841 -0.0409
 1116YOPC   GL215812  11.725   1.214   5.815  0.0977  0.2722 -0.1317
 1116YOPC   C1A15813  11.884   0.750   6.156 -0.0027  0.1720  0.0386
 1116YOPC   D2A15814  12.026   0.780   6.479 -0.0972  0.2105  0.2386
 1116YOPC   C3A15815  12.095   0.523   6.796 -0.0159 -0.2367  0.2958
 1116YOPC   C4A15816  12.180   0.324   7.169 -0.0868  0.1415 -0.2183
 1116YOPC   C1B15817  11.789   1.214   6.272  0.1947 -0.2630  0.0523
 1116YOPC   C2B15818  11.944   1.618   6.191 -0.1048  0.0418  0.0163
 1116YOPC   D3B15819  11.836   1.988   6.168  0.0026 -0.3136  0.2773
 1116YOPC   C4B15820  11.776   2.313   6.418 -0.2823  0.0087 -0.2512
 1117YOPC   NC315821  13.680  16.356   5.325  0.2463 -0.1983 -0.2539
 1117YOPC   PO415822  13.946  15.954   5.495 -0.1080  0.0437 -0.2509
 1117YOPC   GL115823  14.074  15.968   5.955 -0.2290 -0.1081  0.2269
 1117YOPC   GL215824  13.817  16.045   6.177 -0.2240 -0.1848 -0.1087
 1117YOPC   C1A15825  14.455  16.030   6.273  0.1938  0.3057  0.1190
 1117YOPC   D2A15826  14.726  15.910   6.572 -0.2315  0.0512 -0.2758
 1117YOPC   C3A15827  15.101  15.791   6.527 -0.0891 -0.1504 -0.0190
 1117YOPC   C4A15828  15.254  15.337   6.408 -0.0051  0.0842  0.0279
 1117YOPC   C1B15829  13.541  15.814   6.494  0.0624  0.4434  0.0557
 1117YOPC   C2B15830  13.419  15.783   6.835  0.1792  0.0915 -0.2932
 1117YOPC   D3B15831  13.554  15.414   6.974 -0.1433 -0.2089  0.0329
 1117YOPC   C4B15832  13.803  15.101   7.114 -0.3990 -0.1379 -0.1159
 1118YOPC   NC315833   1.083   4.717   5.618  0.1439  0.1131  0.0022
 1118YOPC   PO415834   0.804   4.651   5.330 -0.1358  0.0898 -0.3897
 1118YOPC   GL115835   0.653   4.853   5.805  0.3776  0.0059 -0.0815
 1118YOPC   GL215836   0.817   5.144   5.972  0.3851  0.1179  0.0900
 1118YOPC   C1A15837   0.453   4.898   6.261 -0.3500  0.1220  0.0449
 1118YOPC   D2A15838   0.194   5.130   6.475  0.2067  0.0949 -0.2633
 1118YOPC   C3A15839   0.127   4.971   6.883 -0.1063 -0.2931  0.2977
 1118YOPC   C4A15840   0.165   4.719   7.249 -0.0132 -0.2732 -0.0135
 1118YOPC   C1B15841   1.229   5.082   6.226  0.0864  0.0795  0.4106
 1118YOPC   C2B15842   1.545   5.145   6.487 -0.1664  0.0313 -0.0368
 1118YOPC   D3B15843   1.755   5.500   6.724  0.0146  0.0604 -0.2619
 1118YOPC   C4B15844   1.951   5.721   7.106 -0.0563  0.0806  0.0598
 1119YOPC   NC315845  10.807  14.790   4.946  0.2782 -0.0588  0.0721
 1119YOPC   PO415846  11.230  14.767   5.107 -0.3445  0.2024 -0.2466
 1119YOPC   GL115847  11.271  14.903   5.525 -0.2508 -0.0530  0.3037
 1119YOPC   GL215848  10.954  14.914   5.673 -0.1860  0.2560  0.0312
 1119YOPC   C1A15849  11.460  15.156   5.980  0.1174 -0.1660 -0.0626
 1119YOPC   D2A15850  11.603  15.127   6.346 -0.0593  0.1131 -0.1026
 1119YOPC   C3A15851  11.402  15.271   6.712 -0.1575 -0.2681 -0.2520
 1119YOPC   C4A15852  11.166  15.348   7.087 -0.0246 -0.0549 -0.1007
 1119YOPC   C1B15853  11.055  14.809   6.102 -0.1743  0.2248  0.0485
 1119YOPC   C2B15854  10.970  14.998   6.478 -0.0896  0.4233 -0.1455
 1119YOPC   D3B15855  10.917  15.407   6.662  0.0837 -0.0774 -0.1799
 1119YOPC   C4B15856  10.770  15.706   6.914  0.1145 -0.0295 -0.3035
 1120YOPC   NC315857  17.341   5.191   5.047  0.2357  0.2383 -0.0469
 1120YOPC   PO415858  17.161   5.606   5.219 -0.0855 -0.0039 -0.0101
 1120YOPC   GL115859  17.540   5.525   5.523  0.4419 -0.0207 -0.1129
 1120YOPC   GL215860  17.487   5.420   5.790 -0.0818  0.1190 -0.2651
 1120YOPC   C1A15861  17.906   5.447   5.558 -0.2976  0.1584 -0.3972
 1120YOPC   D2A15862  17.949   5.121   5.712 -0.0116 -0.2258 -0.2446
 1120YOPC   C3A15863  18.112   4.903   6.069  0.2250  0.1945 -0.2334
 1120YOPC   C4A15864  17.886   4.830   6.462  0.3042  0.0270 -0.1278
 1120YOPC   C1B15865  17.144   5.417   6.146 -0.4391  0.0022 -0.2728
 1120YOPC   C2B15866  17.065   5.301   6.549 -0.0498  0.0927  0.0700
 1120YOPC   D3B15867  17.253   5.050   6.689  0.3800 -0.0282 -0.1619
 1120YOPC   C4B15868  17.495   4.704   6.959 -0.4067 -0.0709 -0.0317
 1121YOPC   NC315869   2.333   5.948   4.927  0.1961 -0.0980 -0.1866
 1121YOPC   PO415870   2.629   6.122   5.223  0.2794 -0.0946 -0.2582
 1121YOPC   GL115871   2.592   6.314   5.610 -0.1195  0.0344  0.3167
 1121YOPC   GL215872   2.917   6.129   5.698  0.2284 -0.3671 -0.0436
 1121YOPC   C1A15873   2.089   6.279   5.732 -0.0058 -0.1298  0.0803
 1121YOPC   D2A15874   1.776   6.188   6.069  0.1242 -0.1054 -0.1983
 1121YOPC   C3A15875   1.628   6.285   6.361  0.2387  0.3087 -0.0095
 1121YOPC   C4A15876   1.432   6.035   6.748 -0.1949 -0.0593  0.0898
 1121YOPC   C1B15877   2.844   5.886   6.046 -0.2078 -0.1350 -0.0200
 1121YOPC   C2B15878   3.106   5.836   6.500  0.1479  0.0546 -0.2020
 1121YOPC   D3B15879   2.990   5.966   6.903  0.0232 -0.0111 -0.0136
 1121YOPC   C4B15880   2.991   5.748   7.284  0.0347  0.6583  0.5450
 1122YOPC   NC315881  11.349  16.581   5.125 -0.1903  0.1046 -0.0691
 1122YOPC   PO415882  11.646  16.389   5.400 -0.0518  0.2821  0.0280
 1122YOPC   GL115883  11.237  16.260   5.491  0.0338  0.2024 -0.3124
 1122YOPC   GL215884  11.222  15.944   5.427  0.1458  0.0669 -0.1419
 1122YOPC   C1A15885  10.932  16.261   5.787 -0.2214  0.1442  0.1449
 1122YOPC   D2A15886  10.557  16.156   6.148  0.2582 -0.0891 -0.0090
 1122YOPC   C3A15887  10.458  16.494   6.460 -0.0393 -0.2229 -0.0625
 1122YOPC   C4A15888  10.332  16.858   6.360  0.0341  0.2309 -0.2611
 1122YOPC   C1B15889  11.170  15.881   5.966  0.1180  0.5152 -0.3192
 1122YOPC   C2B15890  10.862  15.822   6.323  0.1609  0.1932  0.0784
 1122YOPC   D3B15891  11.129  15.937   6.581  0.0612 -0.4608  0.1019
 1122YOPC   C4B15892  11.330  15.752   6.809 -0.2791  0.0396  0.1756
 1123ERGO   ROH15893   2.462   7.280   5.717  0.1429  0.1489  0.1479
 1123ERGO    R115894   2.433   7.265   5.998  0.1448  0.0010  0.1416
 1123ERGO    R215895   2.611   7.129   6.159  0.2032 -0.0002  0.0794
 1123ERGO    R315896   2.626   7.367   6.289  0.0972 -0.0547  0.1922
 1123ERGO    R415897   2.767   7.177   6.464  0.1945 -0.0694  0.0948
 1123ERGO    R515898   2.603   7.309   6.521  0.1359 -0.1742  0.1659
 1123ERGO    C115899   2.872   7.429   6.763  0.0900 -0.1608  0.2095
 1123ERGO    C215900   2.967   7.534   7.111  0.0577  0.1602 -0.2873
 1124ERGO   ROH15901  17.377   4.558   9.126  0.0356 -0.1582  0.0288
 1124ERGO    R115902  17.329   4.601   8.850 -0.0790 -0.1460  0.0505
 1124ERGO    R215903  17.470   4.788   8.702 -0.1594 -0.1214  0.0072
 1124ERGO    R315904  17.520   4.575   8.541 -0.1992 -0.1044 -0.0282
 1124ERGO    R415905  17.490   4.802   8.358 -0.3148 -0.0949 -0.0018
 1124ERGO    R515906  17.382   4.613   8.348 -0.2916 -0.1116  0.0347
 1124ERGO    C115907  17.549   4.611   8.005 -0.4425 -0.0635 -0.0402
 1124ERGO    C215908  17.594   4.577   7.728  0.1887 -0.1661 -0.3015
 1125ERGO   ROH15909   8.769   9.315   5.915  0.0723  0.1835 -0.0607
 1125ERGO    R115910   8.751   9.316   6.197  0.3820  0.1548 -0.0385
 1125ERGO    R215911   8.533   9.215   6.333  0.2889  0.6148  0.1658
 1125ERGO    R315912   8.722   9.068   6.462  0.1036  0.1449 -0.0738
 1125ERGO    R415913   8.487   9.063   6.639  0.2272  0.5532  0.1265
 1125ERGO    R515914   8.690   9.123   6.694  0.4152  0.1014 -0.0131
 1125ERGO    C115915   8.637   8.835   6.939  0.0173  0.0761 -0.1213
 1125ERGO    C215916   8.541   8.562   7.057  0.0485 -0.3554 -0.1085
 1126ERGO   ROH15917  12.993   9.522   5.714 -0.2765 -0.1467 -0.1260
 1126ERGO    R115918  12.933   9.401   5.962 -0.2861 -0.2605 -0.1836
 1126ERGO    R215919  12.961   9.129   6.006  0.2621 -0.2068 -0.1400
 1126ERGO    R315920  13.114   9.212   6.214 -0.1382  0.1509  0.0283
 1126ERGO    R415921  13.034   8.939   6.285  0.3497 -0.0224 -0.0351
 1126ERGO    R515922  13.008   9.117   6.407 -0.1656 -0.0481 -0.0801
 1126ERGO    C115923  13.220   8.905   6.643  0.0248  0.4208  0.1839
 1126ERGO    C215924  13.237   8.725   6.890  0.0986  0.2084  0.1339
 1127ERGO   ROH15925  14.564  10.311   5.633 -0.1274 -0.2440 -0.1020
 1127ERGO    R115926  14.483  10.399   5.889  0.0174 -0.0934 -0.1045
 1127ERGO    R215927  14.323  10.621   5.928 -0.0685 -0.1416 -0.1519
 1127ERGO    R315928  14.168  10.445   6.066  0.1212 -0.1220  0.0896
 1127ERGO    R415929  14.071  10.709   6.148 -0.0303 -0.1107 -0.1226
 1127ERGO    R515930  14.137  10.548   6.279  0.1460  0.0622  0.0044
 1127ERGO    C115931  13.780  10.596   6.405  0.1699 -0.0744  0.1211
 1127ERGO    C215932  13.525  10.543   6.472  0.0939 -0.1780 -0.0810
 1128ERGO   ROH15933   9.547  17.950   5.807  0.0353  0.1195 -0.1669
 1128ERGO    R115934   9.544  17.920   6.089 -0.1125  0.0806 -0.1714
 1128ERGO    R215935   9.775  17.904   6.239 -0.1881 -0.1156 -0.0690
 1128ERGO    R315936   9.662  18.110   6.376 -0.0957 -0.0483 -0.0930
 1128ERGO    R415937   9.902  18.043   6.530 -0.0475 -0.0365 -0.1672
 1128ERGO    R515938   9.699  18.056   6.606 -0.0131  0.0261 -0.0894
 1128ERGO    C115939   9.869  18.316   6.827  0.1211  0.0730 -0.2468
 1128ERGO    C215940  10.105  18.354   7.127 -0.2906  0.0656  0.2457
 1129ERGO   ROH15941   0.549  12.234   9.512  0.1792  0.5601  0.0920
 1129ERGO    R115942   0.510  12.147   9.245  0.1761  0.3091  0.1711
 1129ERGO    R215943   0.267  12.169   9.115  0.1880  0.2387  0.1349
 1129ERGO    R315944   0.414  12.300   8.929  0.2299  0.0261  0.0150
 1129ERGO    R415945   0.190  12.186   8.779  0.0984  0.1065  0.1479
 1129ERGO    R515946   0.402  12.161   8.734  0.0678 -0.0748  0.0954
 1129ERGO    C115947   0.285  12.319   8.408  0.0856 -0.1701  0.0430
 1129ERGO    C215948   0.229  12.507   8.117 -0.0656  0.5026  0.1227
 1130ERGO   ROH15949  17.162   2.920   5.755  0.2331 -0.1403 -0.0010
 1130ERGO    R115950  17.247   2.859   6.018  0.1166 -0.0835  0.0503
 1130ERGO    R215951  17.195   3.025   6.233  0.1065  0.0111 -0.0257
 1130ERGO    R315952  17.088   2.800   6.340 -0.0205  0.0902  0.0170
 1130ERGO    R415953  17.125   2.979   6.568  0.1482  0.0911 -0.0057
 1130ERGO    R515954  17.199   2.775   6.551  0.0107  0.0381 -0.0038
 1130ERGO    C115955  16.983   2.741   6.863  0.0536  0.2119  0.0460
 1130ERGO    C215956  16.973   2.885   7.212  0.1345  0.0969  0.0195
 1131ERGO   ROH15957  13.779  12.746   6.162  0.0064 -0.0281  0.0535
 1131ERGO    R115958  13.968  12.598   6.314  0.0268  0.0452  0.0991
 1131ERGO    R215959  14.190  12.714   6.429  0.0166  0.1092  0.0497
 1131ERGO    R315960  14.092  12.600   6.655  0.0389  0.1774  0.0949
 1131ERGO    R415961  14.383  12.595   6.689  0.0434  0.1864  0.0666
 1131ERGO    R515962  14.248  12.425   6.705  0.0437  0.1908  0.1316
 1131ERGO    C115963  14.404  12.418   7.053  0.0799  0.2956  0.1189
 1131ERGO    C215964  14.497  12.374   7.355 -0.7021 -0.3774  0.0926
 1132ERGO   ROH15965  16.011   4.830   8.851 -0.2275 -0.0983 -0.1940
 1132ERGO    R115966  16.146   4.738   8.620 -0.1253 -0.1434 -0.1174
 1132ERGO    R215967  16.253   4.484   8.601 -0.0053 -0.1052  0.0260
 1132ERGO    R315968  16.101   4.472   8.375  0.0581 -0.2758 -0.0090
 1132ERGO    R415969  16.342   4.317   8.312  0.2069 -0.0814  0.0757
 1132ERGO    R515970  16.260   4.483   8.196  0.0917 -0.1719  0.0271
 1132ERGO    C115971  16.251   4.208   7.932  0.3900 -0.2277  0.0719
 1132ERGO    C215972  16.284   4.111   7.513  0.0474  0.1525 -0.1045
 1133ERGO   ROH15973  13.411   6.643   5.518  0.0646  0.0200  0.0292
 1133ERGO    R115974  13.310   6.681   5.780 -0.0516 -0.1975  0.0184
 1133ERGO    R215975  13.271   6.471   5.956  0.4118 -0.2925  0.0253
 1133ERGO    R315976  13.427   6.621   6.119  0.0606  0.0842  0.0309
 1133ERGO    R415977  13.361   6.384   6.278  0.6001 -0.0758  0.0332
 1133ERGO    R515978  13.332   6.592   6.337  0.1123 -0.1317  0.0253
 1133ERGO    C115979  13.560   6.475   6.619  0.3800  0.4040  0.0431
 1133ERGO    C215980  13.683   6.439   6.887 -0.0198  0.1574  0.1479
 1134ERGO   ROH15981  11.241   4.055   8.921 -0.1198  0.1951  0.0706
 1134ERGO    R115982  11.080   4.121   8.698 -0.0200  0.1132 -0.0265
 1134ERGO    R215983  11.117   4.351   8.551 -0.0204  0.1106 -0.0313
 1134ERGO    R315984  11.132   4.178   8.342  0.1577  0.0921 -0.0046
 1134ERGO    R415985  11.104   4.441   8.217  0.1451  0.0680 -0.0504
 1134ERGO    R515986  10.980   4.266   8.180  0.2234  0.0241 -0.1040
 1134ERGO    C115987  11.110   4.331   7.828  0.4087  0.0259 -0.0364
 1134ERGO    C215988  11.156   4.525   7.461  0.3442  0.3124 -0.0231
 1135ERGO   ROH15989  12.608  18.773   6.228  0.3068  0.0207 -0.0038
 1135ERGO    R115990  12.578  18.744   6.508 -0.0967  0.1552 -0.0283
 1135ERGO    R215991  12.791  18.760   6.683 -0.2823 -0.1635  0.2336
 1135ERGO    R315992  12.637  18.950   6.802 -0.1108  0.1444 -0.0171
 1135ERGO    R415993  12.846  18.889   6.999 -0.4332 -0.1487  0.2555
 1135ERGO    R515994  12.631  18.885   7.033 -0.4929  0.2281  0.0054
 1135ERGO    C115995  12.734  19.142   7.295 -0.3602  0.1489  0.0329
 1135ERGO    C215996  12.900  19.314   7.530  0.3749 -0.1062  0.0752
 1136ERGO   ROH15997  19.249  16.745   9.495  0.2844 -0.1068 -0.0561
 1136ERGO    R115998  19.301  17.023   9.492 -0.0667 -0.0367 -0.0092
 1136ERGO    R215999  19.550  17.128   9.431 -0.0875  0.2722  0.3958
 1136ERGO    R316000  19.408  17.269   9.247  0.0362  0.0588  0.1307
 1136ERGO    R416001  19.657  17.419   9.279 -0.0496  0.1765  0.2370
 1136ERGO    R516002  19.455  17.498   9.297 -0.0970  0.1224 -0.0281
 1136ERGO    C116003  19.587  17.721   9.018  0.0886 -0.0798 -0.1045
 1136ERGO    C216004  19.773  17.840   8.897  0.1529  0.1000 -0.1829
 1137ERGO   ROH16005  14.159   7.152   5.512 -0.0348 -0.0131 -0.1105
 1137ERGO    R116006  14.246   7.087   5.774  0.0087 -0.0233 -0.1279
 1137ERGO    R216007  14.319   7.279   5.959  0.0221 -0.0307 -0.1282
 1137ERGO    R316008  14.135   7.153   6.114  0.0551 -0.0536 -0.1063
 1137ERGO    R416009  14.338   7.247   6.302 -0.0185  0.1230 -0.1107
 1137ERGO    R516010  14.264   7.043   6.283  0.0806  0.0777 -0.0381
 1137ERGO    C116011  14.175   7.111   6.648 -0.0113  0.1911 -0.0800
 1137ERGO    C216012  14.114   7.181   6.913 -0.1378  0.0244  0.3310
 1138ERGO   ROH16013   7.762  18.083   5.772  0.0495  0.0353 -0.1151
 1138ERGO    R116014   7.686  17.948   6.009  0.1744  0.1424 -0.0123
 1138ERGO    R216015   7.736  17.679   6.049 -0.0284  0.1039 -0.0278
 1138ERGO    R316016   7.855  17.769   6.277  0.2958  0.0295 -0.1605
 1138ERGO    R416017   7.849  17.478   6.307 -0.3840  0.0429  0.0854
 1138ERGO    R516018   7.772  17.624   6.449  0.0214  0.3610  0.0037
 1138ERGO    C116019   8.025  17.445   6.671 -0.2866 -0.0624  0.0268
 1138ERGO    C216020   8.365  17.367   7.009  0.2424  0.1027 -0.0678
 1139ERGO   ROH16021  14.678   4.486   8.626 -0.0494 -0.0870  0.0096
 1139ERGO    R116022  14.797   4.537   8.375 -0.1597 -0.0483 -0.0359
 1139ERGO    R216023  14.710   4.417   8.141 -0.2361 -0.0453 -0.0117
 1139ERGO    R316024  14.691   4.674   8.055 -0.3139 -0.0409  0.0183
 1139ERGO    R416025  14.806   4.528   7.828  0.2623  0.1251  0.1926
 1139ERGO    R516026  14.888   4.707   7.922 -0.0843  0.1812  0.3987
 1139ERGO    C116027  14.845   4.833   7.565  0.4795  0.2284  0.3395
 1139ERGO    C216028  14.690   4.874   7.111  0.2226  0.1297  0.0868
 1140ERGO   ROH16029   3.536  12.793   8.907  0.0518 -0.0559  0.1193
 1140ERGO    R116030   3.391  12.768   8.665 -0.0343 -0.0687  0.1714
 1140ERGO    R216031   3.335  12.983   8.502  0.0479 -0.1004  0.0995
 1140ERGO    R316032   3.454  12.829   8.312 -0.0988 -0.2506  0.1272
 1140ERGO    R416033   3.220  12.946   8.179 -0.0175 -0.0926  0.1220
 1140ERGO    R516034   3.271  12.734   8.191 -0.1912 -0.1327  0.1726
 1140ERGO    C116035   3.264  12.779   7.812 -0.1933 -0.2290  0.1610
 1140ERGO    C216036   3.090  12.943   7.570  0.3303  0.1503 -0.0742
 1141ERGO   ROH16037  10.781  12.936   5.620 -0.0835  0.2026  0.0477
 1141ERGO    R116038  10.845  12.794   5.856  0.0237  0.1054 -0.0384
 1141ERGO    R216039  10.928  12.920   6.087 -0.0361  0.0245  0.0272
 1141ERGO    R316040  10.722  12.781   6.199  0.0585 -0.1680 -0.0331
 1141ERGO    R416041  10.899  12.846   6.424 -0.1472  0.1533  0.0464
 1141ERGO    R516042  10.825  12.648   6.369  0.1196  0.0350  0.0940
 1141ERGO    C116043  10.688  12.673   6.724 -0.1230  0.0476  0.0009
 1141ERGO    C216044  10.627  12.683   7.086  0.5018  0.1727 -0.2424
 1142ERGO   ROH16045  15.828  16.156   6.067 -0.0138 -0.3918 -0.0647
 1142ERGO    R116046  15.736  16.219   6.327  0.0285 -0.1781 -0.0998
 1142ERGO    R216047  15.556  16.060   6.463  0.1162 -0.1098  0.0920
 1142ERGO    R316048  15.747  16.065   6.656  0.1578  0.1352  0.0483
 1142ERGO    R416049  15.506  15.968   6.793  0.2435  0.0368  0.1534
 1142ERGO    R516050  15.631  16.136   6.853  0.1420  0.1657  0.0331
 1142ERGO    C116051  15.657  15.919   7.166  0.3568  0.3519  0.1480
 1142ERGO    C216052  15.530  15.811   7.418  0.1273  0.1070 -0.0148
 1143ERGO   ROH16053  12.434  18.700   9.263 -0.2045 -0.0811  0.0411
 1143ERGO    R116054  12.393  18.581   9.009 -0.0437 -0.1415  0.0423
 1143ERGO    R216055  12.142  18.554   8.897  0.0181 -0.2530 -0.0691
 1143ERGO    R316056  12.258  18.684   8.687  0.0670 -0.2486 -0.0396
 1143ERGO    R416057  12.012  18.568   8.576 -0.0498 -0.0190 -0.0336
 1143ERGO    R516058  12.214  18.542   8.499 -0.0841 -0.1374 -0.0913
 1143ERGO    C116059  12.046  18.697   8.194 -0.0434  0.1219  0.0149
 1143ERGO    C216060  12.099  18.656   7.797  0.1873  0.2618 -0.1615
 1144ERGO   ROH16061  16.301   6.926   8.631  0.3528 -0.3949 -0.2372
 1144ERGO    R116062  16.109   6.939   8.423  0.2147 -0.2871 -0.1051
 1144ERGO    R216063  16.039   7.176   8.300  0.0396 -0.2036  0.1476
 1144ERGO    R316064  16.104   7.041   8.074 -0.0474  0.0212 -0.0161
 1144ERGO    R416065  15.971   7.284   7.979 -0.0534  0.1339  0.2758
 1144ERGO    R516066  15.920   7.079   7.926 -0.0909  0.1925  0.0806
 1144ERGO    C116067  15.994   7.220   7.579 -0.1893  0.5415  0.1967
 1144ERGO    C216068  15.966   7.563   7.392  0.1957 -0.2537 -0.1394
 1145ERGO   ROH16069  14.843  17.568   7.147 -0.2402 -0.1529 -0.0969
 1145ERGO    R116070  14.946  17.740   6.947 -0.2717 -0.0193  0.0006
 1145ERGO    R216071  15.130  17.656   6.759  0.0519  0.2247  0.1956
 1145ERGO    R316072  14.946  17.752   6.583  0.0918 -0.0493 -0.0034
 1145ERGO    R416073  15.202  17.772   6.441  0.1615  0.0040  0.1374
 1145ERGO    R516074  15.059  17.933   6.473  0.0319 -0.0663 -0.0892
 1145ERGO    C116075  15.072  17.931   6.092  0.2627 -0.3816 -0.0833
 1145ERGO    C216076  15.226  17.951   5.707 -0.0284  0.3499 -0.2365
 1146ERGO   ROH16077   6.119   5.671   5.540 -0.0035 -0.0837  0.1567
 1146ERGO    R116078   6.098   5.721   5.818 -0.0246 -0.0731  0.1528
 1146ERGO    R216079   5.876   5.650   5.966 -0.0139 -0.1126  0.1472
 1146ERGO    R316080   6.059   5.522   6.120  0.0070 -0.0646  0.1630
 1146ERGO    R416081   5.809   5.506   6.273  0.0023 -0.1042  0.1550
 1146ERGO    R516082   6.000   5.582   6.344 -0.0145 -0.0597  0.1571
 1146ERGO    C116083   5.942   5.302   6.597  0.0315 -0.0543  0.1745
 1146ERGO    C216084   6.049   5.140   6.804  0.1720  0.1781  0.3133
 1147ERGO   ROH16085   6.910  13.634   5.915  0.0670  0.2922 -0.0957
 1147ERGO    R116086   6.769  13.777   6.114 -0.0176  0.2037 -0.0897
 1147ERGO    R216087   6.508  13.860   6.080 -0.1082 -0.0367 -0.0454
 1147ERGO    R316088   6.468  13.726   6.313  0.0730 -0.0337 -0.0131
 1147ERGO    R416089   6.295  13.962   6.332  0.0344 -0.0807  0.0935
 1147ERGO    R516090   6.445  13.900   6.477  0.1397 -0.0386 -0.0042
 1147ERGO    C116091   6.133  13.896   6.697  0.2876 -0.1034  0.2048
 1147ERGO    C216092   5.964  13.826   6.886 -0.6159 -0.3974  0.0626
 1148ERGO   ROH16093   8.167   9.562   9.085  0.5203 -0.0345  0.2114
 1148ERGO    R116094   8.389   9.482   8.928  0.2466 -0.3659 -0.0242
 1148ERGO    R216095   8.364   9.318   8.707 -0.2658 -0.1211 -0.1697
 1148ERGO    R316096   8.496   9.520   8.583  0.0696 -0.2713 -0.0679
 1148ERGO    R416097   8.557   9.282   8.423 -0.2848 -0.2921 -0.1616
 1148ERGO    R516098   8.701   9.421   8.509 -0.0759 -0.5569 -0.0876
 1148ERGO    C116099   8.794   9.451   8.140  0.0191 -0.5328 -0.0614
 1148ERGO    C216100   8.774   9.295   7.747  0.0266  0.1008  0.2573
 1149ERGO   ROH16101   0.087   8.431   5.840  0.0493  0.0190  0.0625
 1149ERGO    R116102   0.046   8.200   5.998  0.1071 -0.0281  0.0107
 1149ERGO    R216103   0.251   8.076   6.136  0.1430 -0.0118 -0.0151
 1149ERGO    R316104   0.084   8.109   6.348  0.1330 -0.0932 -0.0110
 1149ERGO    R416105   0.309   7.956   6.455  0.1571 -0.0487 -0.0323
 1149ERGO    R516106   0.099   7.903   6.469  0.1780 -0.1031 -0.0444
 1149ERGO    C116107   0.187   7.917   6.840  0.1560 -0.1467 -0.0385
 1149ERGO    C216108   0.247   7.834   7.090 -0.0969 -0.0946  0.1495
 1150ERGO   ROH16109  12.710  13.327   9.373  0.1498  0.1460 -0.0956
 1150ERGO    R116110  12.892  13.336   9.156  0.0684  0.1855 -0.1655
 1150ERGO    R216111  12.926  13.124   8.982  0.2531  0.0756 -0.0154
 1150ERGO    R316112  12.873  13.313   8.794 -0.0388 -0.1258 -0.1406
 1150ERGO    R416113  13.046  13.120   8.658  0.3407  0.1132  0.0181
 1150ERGO    R516114  13.078  13.335   8.672 -0.0503  0.1766 -0.0995
 1150ERGO    C116115  13.067  13.295   8.293  0.1177 -0.0540 -0.0800
 1150ERGO    C216116  12.916  13.416   7.957  0.1927  0.0908 -0.0300
 1151ERGO   ROH16117   9.385  19.052   5.642 -0.0377  0.0239  0.0671
 1151ERGO    R116118   9.304  19.030   5.913 -0.0238  0.1158  0.0803
 1151ERGO    R216119   9.296  18.788   6.047 -0.1343  0.1383  0.1304
 1151ERGO    R316120   9.454  18.919   6.225 -0.0468  0.0970  0.0818
 1151ERGO    R416121   9.293  18.738   6.389 -0.0596  0.1818  0.1368
 1151ERGO    R516122   9.314  18.953   6.416  0.0225  0.1675  0.1121
 1151ERGO    C116123   9.440  18.832   6.755  0.0662  0.1682  0.0949
 1151ERGO    C216124   9.611  18.815   7.083  0.1413  0.1608  0.3924
 1152ERGO   ROH16125  10.487  18.194   5.690 -0.2920  0.0222  0.0152
 1152ERGO    R116126  10.671  18.141   5.898 -0.1945 -0.0940 -0.1006
 1152ERGO    R216127  10.793  18.341   6.044 -0.0376 -0.1748 -0.1251
 1152ERGO    R316128  10.692  18.204   6.256  0.0334 -0.1835 -0.0953
 1152ERGO    R416129  10.942  18.318   6.355 -0.1462  0.1902 -0.0408
 1152ERGO    R516130  10.884  18.109   6.363  0.1099  0.1144  0.0482
 1152ERGO    C116131  10.934  18.176   6.735 -0.1428  0.3948  0.0361
 1152ERGO    C216132  11.074  18.022   7.010  0.0532 -0.3054 -0.3808
 1153ERGO   ROH16133   8.403  13.270   9.582  0.0202  0.1829 -0.0039
 1153ERGO    R116134   8.590  13.177   9.391 -0.0050 -0.0886  0.1007
 1153ERGO    R216135   8.577  12.923   9.281 -0.3868 -0.0315  0.0078
 1153ERGO    R316136   8.580  13.060   9.046  0.0322  0.0498  0.0503
 1153ERGO    R416137   8.655  12.787   8.973 -0.6746 -0.1557 -0.0133
 1153ERGO    R516138   8.765  12.968   8.926 -0.1677 -0.4165  0.0695
 1153ERGO    C116139   8.702  12.835   8.574 -0.4487 -0.1517  0.0143
 1153ERGO    C216140   8.413  12.773   8.329 -0.0951 -0.4240  0.2534
 1154ERGO   ROH16141  19.250  11.591   6.120 -0.2795  0.1587  0.0239
 1154ERGO    R116142  19.318  11.391   6.308 -0.3470  0.0756 -0.0406
 1154ERGO    R216143  19.504  11.431   6.509 -0.1185 -0.1446 -0.2071
 1154ERGO    R316144  19.301  11.351   6.670 -0.0722  0.0917 -0.0228
 1154ERGO    R416145  19.535  11.360   6.845  0.0015  0.2808 -0.1207
 1154ERGO    R516146  19.401  11.190   6.817 -0.0397  0.2599  0.1458
 1154ERGO    C116147  19.361  11.242   7.192  0.1148  0.7505  0.1027
 1154ERGO    C216148  19.403  11.299   7.516  0.2655 -0.3084  0.3871
 1155ERGO   ROH16149  16.955  18.291   5.494  0.2677 -0.1103  0.0265
 1155ERGO    R116150  16.949  18.093   5.697  0.2123 -0.2149 -0.0752
 1155ERGO    R216151  17.179  17.981   5.801  0.2026 -0.0220  0.1709
 1155ERGO    R316152  17.071  18.060   6.038 -0.1955 -0.2441  0.0717
 1155ERGO    R416153  17.215  17.812   6.101  0.0179 -0.0966  0.1517
 1155ERGO    R516154  17.006  17.855   6.145 -0.0920 -0.3635 -0.0945
 1155ERGO    C116155  17.134  17.788   6.498 -0.4634 -0.3489  0.0472
 1155ERGO    C216156  16.984  17.846   6.732 -0.2667 -0.3299  0.0789
 1156ERGO   ROH16157  17.219  10.513   9.214  0.0560 -0.1734 -0.1332
 1156ERGO    R116158  17.082  10.577   8.974 -0.0159  0.0111 -0.0460
 1156ERGO    R216159  17.154  10.791   8.815  0.0294  0.0534  0.0172
 1156ERGO    R316160  17.165  10.602   8.621 -0.1525  0.1300 -0.0683
 1156ERGO    R416161  17.106  10.851   8.478 -0.1239  0.1975  0.0637
 1156ERGO    R516162  16.994  10.665   8.466 -0.2028  0.2563  0.0463
 1156ERGO    C116163  17.089  10.707   8.099 -0.3842  0.3532  0.0105
 1156ERGO    C216164  17.075  10.752   7.805  0.0344 -0.1439 -0.0329
 1157ERGO   ROH16165   9.609   3.931   5.740  0.1930  0.0729 -0.1192
 1157ERGO    R116166   9.804   4.041   5.912 -0.0102  0.3959 -0.0843
 1157ERGO    R216167   9.757   4.265   6.068 -0.5186  0.1441  0.1551
 1157ERGO    R316168   9.838   4.101   6.270 -0.0431  0.1288 -0.0348
 1157ERGO    R416169   9.830   4.369   6.389 -0.3337  0.0369  0.1489
 1157ERGO    R516170   9.999   4.231   6.391 -0.1127  0.2967 -0.1240
 1157ERGO    C116171   9.947   4.276   6.766  0.2202 -0.0399 -0.0330
 1157ERGO    C216172   9.974   4.258   7.062  0.3975  0.2957  0.1275
 1158ERGO   ROH16173  13.272  10.503   9.269 -0.3456  0.0184 -0.1693
 1158ERGO    R116174  13.250  10.582   8.998 -0.2559  0.0149 -0.1784
 1158ERGO    R216175  13.317  10.836   8.911 -0.2399  0.0208 -0.1581
 1158ERGO    R316176  13.475  10.699   8.737 -0.1704  0.0259 -0.0987
 1158ERGO    R416177  13.401  10.945   8.594 -0.0636  0.0471 -0.1030
 1158ERGO    R516178  13.376  10.740   8.522 -0.0533  0.0645 -0.1425
 1158ERGO    C116179  13.599  10.880   8.246  0.1043  0.0672 -0.0152
 1158ERGO    C216180  13.502  10.945   7.994  0.3651 -0.1307 -0.1809
 1159ERGO   ROH16181   7.191   4.225   5.124  0.1334  0.0240  0.2086
 1159ERGO    R116182   7.030   4.171   5.350 -0.0607  0.1330  0.1015
 1159ERGO    R216183   7.112   4.005   5.555 -0.3801 -0.0701  0.0866
 1159ERGO    R316184   7.054   4.221   5.710 -0.1790 -0.0500  0.1328
 1159ERGO    R416185   7.106   4.004   5.901 -0.2382 -0.0799  0.0878
 1159ERGO    R516186   6.928   4.130   5.893 -0.1538  0.0258  0.1767
 1159ERGO    C116187   7.048   4.206   6.247  0.0332 -0.0667  0.1318
 1159ERGO    C216188   7.144   4.150   6.580 -0.0262  0.3369  0.2242
 1160ERGO   ROH16189  10.701   3.522   5.511  0.0617 -0.2556  0.0045
 1160ERGO    R116190  10.576   3.482   5.762 -0.0073 -0.2112 -0.0215
 1160ERGO    R216191  10.679   3.313   5.956 -0.0509 -0.1689  0.0464
 1160ERGO    R316192  10.662   3.535   6.111 -0.1052 -0.1346 -0.0099
 1160ERGO    R416193  10.656   3.313   6.300 -0.0132 -0.0777  0.0485
 1160ERGO    R516194  10.511   3.474   6.287 -0.0632 -0.1314  0.0221
 1160ERGO    C116195  10.626   3.521   6.647 -0.0422  0.0076 -0.0031
 1160ERGO    C216196  10.578   3.269   7.016  0.0849  0.2315  0.1745
 1161ERGO   ROH16197   6.844   3.981   8.426 -0.2104  0.2407  0.0912
 1161ERGO    R116198   6.775   3.843   8.189 -0.0592  0.0734  0.1444
 1161ERGO    R216199   6.527   3.727   8.150 -0.0438  0.0850  0.0543
 1161ERGO    R316200   6.528   3.878   7.924  0.1366 -0.0891 -0.0666
 1161ERGO    R416201   6.304   3.693   7.888 -0.0886  0.1307  0.0850
 1161ERGO    R516202   6.469   3.725   7.749 -0.0413 -0.1688  0.0540
 1161ERGO    C116203   6.175   3.814   7.524  0.0545 -0.0061 -0.0104
 1161ERGO    C216204   6.193   3.999   7.220  0.0382 -0.0185 -0.1451
 1162ERGO   ROH16205  13.031   2.875   5.521  0.4050  0.2063 -0.0375
 1162ERGO    R116206  12.885   2.961   5.747  0.3416 -0.0166  0.0075
 1162ERGO    R216207  13.006   3.012   5.991  0.3379  0.1302 -0.0229
 1162ERGO    R316208  12.884   3.253   5.965 -0.0109 -0.0327  0.0314
 1162ERGO    R416209  12.992   3.254   6.237  0.2058  0.1603 -0.0571
 1162ERGO    R516210  12.785   3.294   6.179  0.1025 -0.1262  0.1014
 1162ERGO    C116211  12.868   3.622   6.355 -0.1987  0.0249 -0.0262
 1162ERGO    C216212  12.831   3.861   6.627  0.0069  0.1436  0.4611
 1163ERGO   ROH16213  19.275  15.330   9.710 -0.2378  0.2589 -0.0355
 1163ERGO    R116214  19.385  15.310   9.451 -0.1938 -0.0728  0.0031
 1163ERGO    R216215  19.280  15.145   9.256 -0.4173 -0.0158  0.0687
 1163ERGO    R316216  19.273  15.374   9.110  0.0019 -0.0786 -0.0629
 1163ERGO    R416217  19.192  15.164   8.922 -0.3174 -0.0485  0.0408
 1163ERGO    R516218  19.352  15.309   8.894 -0.0622 -0.3333 -0.0113
 1163ERGO    C116219  19.135  15.390   8.591  0.1344 -0.1265 -0.0992
 1163ERGO    C216220  19.027  15.478   8.246  0.3738 -0.0280 -0.0258
 1164ERGO   ROH16221   8.542   6.954   5.659  0.1133  0.2715 -0.1466
 1164ERGO    R116222   8.497   7.122   5.882  0.0757  0.2802 -0.1614
 1164ERGO    R216223   8.292   7.306   5.891 -0.1318  0.0443 -0.0707
 1164ERGO    R316224   8.229   7.176   6.122  0.1758  0.0351  0.0130
 1164ERGO    R416225   8.034   7.395   6.104 -0.0956 -0.1849  0.0731
 1164ERGO    R516226   8.165   7.351   6.273  0.0767  0.0136  0.0025
 1164ERGO    C116227   7.825   7.325   6.444  0.2144 -0.3270  0.2354
 1164ERGO    C216228   7.554   7.213   6.539 -0.1043  0.0829  0.0115
 1165ERGO   ROH16229  16.813  11.048   5.750 -0.0954  0.1448  0.0680
 1165ERGO    R116230  16.766  11.133   6.016  0.0646  0.1690  0.0886
 1165ERGO    R216231  16.668  10.964   6.212 -0.1665  0.2791  0.0669
 1165ERGO    R316232  16.889  11.046   6.347 -0.0243 -0.0755  0.0601
 1165ERGO    R416233  16.690  10.994   6.555 -0.1517  0.3458  0.0608
 1165ERGO    R516234  16.804  11.177   6.528  0.1886  0.1413  0.0118
 1165ERGO    C116235  16.911  11.087   6.882 -0.0096  0.0520  0.0509
 1165ERGO    C216236  16.873  10.997   7.147 -0.0796 -0.1532 -0.0281
 1166ERGO   ROH16237  17.167   0.024   9.070  0.0405  0.0702  0.0865
 1166ERGO    R116238  17.292  -0.004   8.818 -0.0792  0.1543  0.0179
 1166ERGO    R216239  17.552   0.076   8.771 -0.0509  0.0195 -0.0323
 1166ERGO    R316240  17.581  -0.180   8.683 -0.2427  0.0567 -0.2161
 1166ERGO    R416241  17.761  -0.022   8.514  0.1886  0.0051  0.1636
 1166ERGO    R516242  17.605  -0.159   8.446  0.1058  0.2466 -0.1731
 1166ERGO    C116243  17.910  -0.319   8.282  0.1481  0.0316  0.1051
 1166ERGO    C216244  18.011  -0.493   8.199  0.0797 -0.3448  0.1700
 1167ERGO   ROH16245  11.227  17.989   9.369  0.3150  0.0452 -0.0905
 1167ERGO    R116246  11.275  18.123   9.125  0.1460 -0.0144 -0.1584
 1167ERGO    R216247  11.346  17.990   8.893  0.0788 -0.0632 -0.1541
 1167ERGO    R316248  11.132  18.122   8.790 -0.0212 -0.1727 -0.0873
 1167ERGO    R416249  11.277  18.022   8.556  0.1194  0.1589 -0.1422
 1167ERGO    R516250  11.217  18.228   8.593 -0.0779  0.0726  0.0190
 1167ERGO    C116251  11.036  18.165   8.263  0.0491  0.1853 -0.0725
 1167ERGO    C216252  10.953  18.119   7.954 -0.2070  0.0818 -0.0074
 1168ERGO   ROH16253   4.000   8.689   9.411  0.1564  0.2407  0.0152
 1168ERGO    R116254   4.094   8.621   9.152  0.1438 -0.0287  0.0788
 1168ERGO    R216255   4.014   8.392   9.019 -0.1498  0.0182  0.1723
 1168ERGO    R316256   3.948   8.568   8.823  0.1710  0.0194  0.0583
 1168ERGO    R416257   4.037   8.328   8.681 -0.3239 -0.2633  0.2094
 1168ERGO    R516258   4.111   8.531   8.652  0.0779 -0.4240  0.0558
 1168ERGO    C116259   3.988   8.456   8.299 -0.1242 -0.4261  0.1239
 1168ERGO    C216260   4.029   8.511   8.075  0.0727 -0.0630 -0.3302
 1169ERGO   ROH16261  13.986  15.022   9.544 -0.1000 -0.2080  0.0529
 1169ERGO    R116262  14.025  14.870   9.309  0.1107 -0.1887  0.0735
 1169ERGO    R216263  13.822  14.728   9.188  0.2934 -0.4452  0.0626
 1169ERGO    R316264  13.895  14.871   8.969  0.1510 -0.3811  0.0557
 1169ERGO    R416265  13.695  14.680   8.870 -0.1004 -0.1921  0.1743
 1169ERGO    R516266  13.896  14.710   8.791 -0.1614 -0.2937 -0.0343
 1169ERGO    C116267  13.690  14.786   8.479 -0.4634  0.0154  0.2329
 1169ERGO    C216268  13.506  14.826   8.146  0.2228  0.1019  0.0279
 1170ERGO   ROH16269  18.004  11.342   9.211  0.1012  0.1956 -0.0461
 1170ERGO    R116270  18.100  11.360   8.946 -0.0937  0.1808 -0.1188
 1170ERGO    R216271  18.116  11.141   8.778  0.0499  0.1167 -0.0229
 1170ERGO    R316272  17.968  11.298   8.612 -0.2434 -0.1324 -0.0046
 1170ERGO    R416273  18.018  11.053   8.459 -0.0918 -0.1668  0.0958
 1170ERGO    R516274  18.059  11.257   8.395 -0.3580 -0.1534 -0.0499
 1170ERGO    C116275  17.821  11.148   8.117 -0.4495 -0.5657  0.1820
 1170ERGO    C216276  17.648  11.327   7.824  0.0367 -0.0125 -0.1142
 1171ERGO   ROH16277  12.717   5.482   8.754  0.1721 -0.1637 -0.1644
 1171ERGO    R116278  12.716   5.495   8.472  0.0527 -0.0306 -0.1591
 1171ERGO    R216279  12.485   5.535   8.326 -0.0135  0.0222 -0.0448
 1171ERGO    R316280  12.627   5.741   8.218 -0.0722  0.0836 -0.0053
 1171ERGO    R416281  12.421   5.678   8.018  0.0488 -0.0356 -0.0851
 1171ERGO    R516282  12.637   5.690   7.984  0.0546  0.0698  0.0050
 1171ERGO    C116283  12.517   5.955   7.738  0.0300 -0.0116 -0.0715
 1171ERGO    C216284  12.485   6.191   7.434 -0.0436 -0.1704 -0.4290
 1172ERGO   ROH16285  17.154   7.956   5.470 -0.0228 -0.1231 -0.0798
 1172ERGO    R116286  17.104   8.028   5.739  0.1068 -0.0104 -0.0875
 1172ERGO    R216287  16.858   7.995   5.858  0.1336  0.1909 -0.0101
 1172ERGO    R316288  17.000   7.858   6.045  0.0849  0.1569  0.0055
 1172ERGO    R416289  16.730   7.891   6.162  0.0870  0.3649  0.0325
 1172ERGO    R516290  16.921   7.947   6.254  0.1528  0.2823 -0.0059
 1172ERGO    C116291  16.789   7.701   6.514  0.0144  0.4342  0.0719
 1172ERGO    C216292  16.685   7.803   6.810  0.1887  0.3011  0.0486
 1173ERGO   ROH16293   2.342   8.784   5.857 -0.0484  0.0175  0.0154
 1173ERGO    R116294   2.523   8.739   6.070  0.0435  0.2414 -0.0129
 1173ERGO    R216295   2.608   8.487   6.142 -0.1578  0.2863  0.4021
 1173ERGO    R316296   2.855   8.595   6.110 -0.0678 -0.0076  0.0379
 1173ERGO    R416297   2.902   8.339   6.245 -0.2538  0.2536  0.6372
 1173ERGO    R516298   2.972   8.535   6.310 -0.0469  0.3595  0.1442
 1173ERGO    C116299   3.306   8.354   6.275 -0.2252 -0.0411  0.4322
 1173ERGO    C216300   3.437   8.062   6.220 -0.0233 -0.1417  0.4588
 1174ERGO   ROH16301   1.300  15.057   9.605 -0.0919  0.0689 -0.0185
 1174ERGO    R116302   1.358  14.883   9.390 -0.1432  0.0820 -0.0431
 1174ERGO    R216303   1.221  14.890   9.150 -0.1111  0.1859 -0.0577
 1174ERGO    R316304   1.470  14.915   9.045 -0.0875  0.0947 -0.0242
 1174ERGO    R416305   1.290  14.930   8.814 -0.0457  0.0136 -0.0652
 1174ERGO    R516306   1.460  14.795   8.839 -0.0708 -0.0037  0.0306
 1174ERGO    C116307   1.565  14.976   8.520  0.0147 -0.1722 -0.0382
 1174ERGO    C216308   1.702  14.946   8.163 -0.1652 -0.1764 -0.1614
 1175ERGO   ROH16309   2.039  17.226   6.152  0.0235 -0.0022 -0.1513
 1175ERGO    R116310   2.294  17.230   6.030  0.0643 -0.2910 -0.0820
 1175ERGO    R216311   2.443  17.462   6.002  0.1560 -0.3847 -0.4073
 1175ERGO    R316312   2.634  17.316   6.129  0.0645 -0.2552 -0.1133
 1175ERGO    R416313   2.760  17.576   6.078  0.1139 -0.3194 -0.3264
 1175ERGO    R516314   2.838  17.380   6.023  0.1396 -0.3906 -0.0529
 1175ERGO    C116315   3.124  17.505   6.243  0.0034 -0.1598 -0.0033
 1175ERGO    C216316   3.362  17.534   6.485 -0.1239 -0.0842 -0.1177
 1176ERGO   ROH16317  16.239   0.215   8.605  0.1751  0.2124 -0.0897
 1176ERGO    R116318  16.385   0.110   8.387  0.3306  0.1503  0.0418
 1176ERGO    R216319  16.363   0.212   8.131  0.0668 -0.2829 -0.1227
 1176ERGO    R316320  16.634   0.233   8.151  0.0406  0.2795 -0.2022
 1176ERGO    R416321  16.590   0.075   7.908  0.2957 -0.4969  0.2300
 1176ERGO    R516322  16.716   0.021   8.077  0.4297  0.2060  0.3829
 1176ERGO    C116323  16.975   0.016   7.797  0.4046 -0.0934  0.3607
 1176ERGO    C216324  17.150  -0.145   7.557 -0.0751 -0.2410  0.0836
 1177ERGO   ROH16325   4.033   7.042   5.580 -0.0196  0.3227  0.2122
 1177ERGO    R116326   4.244   7.014   5.767  0.2000  0.0836 -0.0643
 1177ERGO    R216327   4.208   6.900   6.015  0.3735  0.2099  0.0142
 1177ERGO    R316328   4.413   6.739   5.936  0.0516 -0.1058 -0.2148
 1177ERGO    R416329   4.356   6.657   6.212  0.6251  0.4247  0.0975
 1177ERGO    R516330   4.550   6.717   6.131  0.5056  0.1269 -0.4837
 1177ERGO    C116331   4.635   6.365   6.252  0.4694  0.2534 -0.0689
 1177ERGO    C216332   4.641   6.043   6.335  0.1392  0.0718  0.2711
 1178ERGO   ROH16333   5.007   3.521   5.612 -0.0013  0.1455 -0.0826
 1178ERGO    R116334   5.094   3.496   5.880 -0.2043  0.2829  0.0008
 1178ERGO    R216335   5.356   3.438   5.947 -0.3704 -0.3803  0.2062
 1178ERGO    R316336   5.334   3.663   6.097  0.1819 -0.0682 -0.1491
 1178ERGO    R416337   5.537   3.502   6.234 -0.1964 -0.3092  0.0821
 1178ERGO    R516338   5.356   3.587   6.323  0.0197  0.2633 -0.0271
 1178ERGO    C116339   5.621   3.750   6.543  0.4233  0.0252 -0.3238
 1178ERGO    C216340   5.986   3.822   6.809 -0.1145  0.3033 -0.2088
 1179ERGO   ROH16341   3.993   5.217   5.544  0.1910 -0.0162 -0.0361
 1179ERGO    R116342   4.077   5.090   5.783  0.0104 -0.0349  0.0182
 1179ERGO    R216343   4.278   5.192   5.943  0.2107 -0.2894 -0.0693
 1179ERGO    R316344   4.088   5.174   6.137  0.2042  0.1364 -0.0255
 1179ERGO    R416345   4.340   5.212   6.283  0.2693  0.0166 -0.0943
 1179ERGO    R516346   4.195   5.052   6.313  0.0883  0.2064  0.0981
 1179ERGO    C116347   4.197   5.206   6.662  0.2973  0.5943 -0.0679
 1179ERGO    C216348   4.107   5.380   7.073  0.1908  0.0251 -0.1237
 1180ERGO   ROH16349  18.426   5.914   8.929  0.1706  0.0426 -0.0361
 1180ERGO    R116350  18.328   5.829   8.677  0.0718 -0.1067  0.0519
 1180ERGO    R216351  18.383   5.965   8.443 -0.2247 -0.1064 -0.0162
 1180ERGO    R316352  18.472   5.722   8.360 -0.0513 -0.0406 -0.0285
 1180ERGO    R416353  18.487   5.892   8.121 -0.2116 -0.0202 -0.0324
 1180ERGO    R516354  18.386   5.699   8.138 -0.0668 -0.1011 -0.0198
 1180ERGO    C116355  18.631   5.621   7.857 -0.0414  0.0918 -0.0533
 1180ERGO    C216356  18.807   5.569   7.539  0.1475 -0.0498  0.0144
 1181ERGO   ROH16357   7.760  15.709   5.967  0.1557 -0.1580 -0.1211
 1181ERGO    R116358   7.807  15.549   6.196  0.1215  0.0078  0.0025
 1181ERGO    R216359   7.726  15.625   6.449 -0.1470  0.0743 -0.1019
 1181ERGO    R316360   7.603  15.383   6.447  0.0735 -0.0404 -0.0673
 1181ERGO    R416361   7.600  15.464   6.728 -0.3034  0.1593 -0.1219
 1181ERGO    R516362   7.676  15.277   6.649 -0.0453  0.1678  0.0903
 1181ERGO    C116363   7.411  15.142   6.888 -0.1875  0.1010 -0.1010
 1181ERGO    C216364   7.164  14.994   6.955  0.0278 -0.1211  0.1389
 1182ERGO   ROH16365   6.192  15.625   9.175 -0.2440 -0.1970 -0.0343
 1182ERGO    R116366   6.140  15.533   8.912 -0.0832 -0.1444 -0.0851
 1182ERGO    R216367   5.978  15.670   8.734 -0.0709 -0.1709 -0.1133
 1182ERGO    R316368   6.197  15.653   8.574  0.0077 -0.0172 -0.0259
 1182ERGO    R416369   5.970  15.622   8.392  0.0980 -0.1904 -0.1160
 1182ERGO    R516370   6.140  15.488   8.411  0.1915 -0.0677 -0.0437
 1182ERGO    C116371   6.171  15.579   8.042  0.2700 -0.0574 -0.0356
 1182ERGO    C216372   6.215  15.401   7.770  0.2253  0.0130 -0.1055
 1183ERGO   ROH16373   8.291  14.708   9.159  0.1826  0.1662 -0.0120
 1183ERGO    R116374   8.140  14.679   8.922  0.1373 -0.0793  0.0445
 1183ERGO    R216375   8.134  14.873   8.725 -0.1675 -0.1334 -0.0005
 1183ERGO    R316376   8.208  14.667   8.564  0.0342 -0.0823  0.0238
 1183ERGO    R416377   8.056  14.845   8.389 -0.0961 -0.2179 -0.0107
 1183ERGO    R516378   8.021  14.633   8.420  0.0804 -0.2506 -0.0023
 1183ERGO    C116379   8.081  14.636   8.043  0.1349 -0.2190  0.0061
 1183ERGO    C216380   8.133  14.745   7.790 -0.4132  0.2469 -0.0531
 1184ERGO   ROH16381   1.874  13.096   5.782 -0.0403  0.0236  0.1315
 1184ERGO    R116382   1.957  13.172   6.041  0.0514  0.0382  0.0982
 1184ERGO    R216383   1.976  12.991   6.250  0.1197  0.0510  0.1027
 1184ERGO    R316384   2.230  13.087   6.266  0.1279  0.0469  0.0092
 1184ERGO    R416385   2.143  13.059   6.545  0.1565  0.2428  0.0394
 1184ERGO    R516386   2.224  13.239   6.452  0.1580  0.1750 -0.0928
 1184ERGO    C116387   2.478  13.189   6.732  0.1856  0.3504 -0.0852
 1184ERGO    C216388   2.659  13.083   6.984  0.1026 -0.0464 -0.1721
 1185ERGO   ROH16389  11.419   5.377   8.787  0.0706  0.0313  0.0687
 1185ERGO    R116390  11.510   5.330   8.523  0.0685  0.1087  0.0541
 1185ERGO    R216391  11.341   5.248   8.320  0.0998 -0.0067  0.0768
 1185ERGO    R316392  11.443   5.465   8.192 -0.0775  0.0735  0.0678
 1185ERGO    R416393  11.308   5.311   7.982  0.3078 -0.2159  0.0147
 1185ERGO    R516394  11.514   5.380   7.979  0.2245  0.0627  0.1671
 1185ERGO    C116395  11.384   5.551   7.664  0.2624 -0.2623 -0.0298
 1185ERGO    C216396  11.232   5.681   7.385  0.0820  0.0855 -0.0212
 1186ERGO   ROH16397   9.370  10.346   9.487  0.0118 -0.1964 -0.2521
 1186ERGO    R116398   9.393  10.186   9.254  0.0629 -0.0899 -0.3218
 1186ERGO    R216399   9.208  10.195   9.050 -0.0750 -0.2367 -0.2108
 1186ERGO    R316400   9.427  10.244   8.897 -0.2195  0.0807 -0.3237
 1186ERGO    R416401   9.254  10.077   8.728  0.0412 -0.3829 -0.1405
 1186ERGO    R516402   9.464  10.039   8.778  0.1380  0.0600 -0.1851
 1186ERGO    C116403   9.488  10.054   8.397 -0.0268 -0.1700 -0.2057
 1186ERGO    C216404   9.562   9.963   7.947  0.1742  0.2415  0.4759
 1187ERGO   ROH16405  15.883  17.052   9.665  0.1262  0.0489 -0.0520
 1187ERGO    R116406  15.897  16.947   9.402  0.2400  0.0004 -0.0274
 1187ERGO    R216407  15.679  16.942   9.232  0.2783 -0.1560 -0.0738
 1187ERGO    R316408  15.848  17.072   9.064  0.2424 -0.0982 -0.0648
 1187ERGO    R416409  15.680  16.909   8.888  0.0747  0.1067 -0.1028
 1187ERGO    R516410  15.898  16.912   8.894  0.0810  0.0091 -0.2173
 1187ERGO    C116411  15.839  17.012   8.530 -0.0776  0.3140 -0.1111
 1187ERGO    C216412  15.821  16.937   8.127  0.1809  0.0316 -0.1574
 1188ERGO   ROH16413  15.619   4.184   5.860 -0.2658  0.0629 -0.1704
 1188ERGO    R116414  15.558   4.185   6.136 -0.1473  0.0116 -0.1436
 1188ERGO    R216415  15.752   4.176   6.332 -0.0626  0.0148 -0.2295
 1188ERGO    R316416  15.626   4.400   6.422 -0.0614 -0.0198 -0.1396
 1188ERGO    R416417  15.695   4.250   6.664  0.0904 -0.0389 -0.1903
 1188ERGO    R516418  15.498   4.324   6.609  0.0463 -0.0695 -0.0833
 1188ERGO    C116419  15.544   4.503   6.943  0.1804 -0.1026 -0.0831
 1188ERGO    C216420  15.731   4.630   7.233  0.1786  0.0641  0.1449
 1189ERGO   ROH16421   7.318   7.708   8.762  0.1709 -0.2433  0.0215
 1189ERGO    R116422   7.373   7.860   8.530  0.1153 -0.2470  0.0066
 1189ERGO    R216423   7.317   7.769   8.275 -0.0643 -0.1965  0.0312
 1189ERGO    R316424   7.181   8.003   8.256  0.0337 -0.1303  0.1221
 1189ERGO    R416425   7.330   7.983   8.005 -0.4704 -0.4222 -0.1776
 1189ERGO    R516426   7.333   8.151   8.143 -0.0896 -0.3075 -0.3033
 1189ERGO    C116427   7.210   8.329   7.829 -0.6148 -0.4916 -0.2139
 1189ERGO    C216428   7.184   8.533   7.504  0.0334 -0.1837  0.2651
 1190ERGO   ROH16429  11.860  17.586   6.366 -0.0172 -0.0073  0.1006
 1190ERGO    R116430  11.918  17.528   6.636 -0.1350 -0.0525  0.1176
 1190ERGO    R216431  11.857  17.702   6.843  0.0777  0.0683  0.0861
 1190ERGO    R316432  11.729  17.484   6.944 -0.2448  0.2561  0.0968
 1190ERGO    R416433  11.792  17.650   7.178  0.2758  0.0388  0.1208
 1190ERGO    R516434  11.843  17.440   7.150 -0.1416 -0.0512 -0.0226
 1190ERGO    C116435  11.634  17.415   7.469  0.0883  0.1981  0.1511
 1190ERGO    C216436  11.567  17.378   7.740 -0.1712 -0.2415  0.2045
 1191ERGO   ROH16437   6.151  10.003   9.212 -0.3826  0.1417  0.2568
 1191ERGO    R116438   6.008   9.914   8.984 -0.0422 -0.0779  0.1204
 1191ERGO    R216439   5.849  10.082   8.834 -0.3218 -0.3536  0.0970
 1191ERGO    R316440   6.002   9.991   8.629  0.0252  0.0733  0.1515
 1191ERGO    R416441   5.812  10.176   8.503 -0.4446 -0.4275  0.0890
 1191ERGO    R516442   5.849   9.969   8.446  0.1505 -0.3370  0.0865
 1191ERGO    C116443   5.935  10.145   8.118 -0.1905 -0.0696  0.1356
 1191ERGO    C216444   5.863  10.299   7.804  0.1756 -0.0095  0.1198
 1192ERGO   ROH16445   3.595  10.585   5.927  0.0248  0.0252 -0.1131
 1192ERGO    R116446   3.554  10.843   6.036 -0.0687 -0.0898  0.1311
 1192ERGO    R216447   3.529  10.887   6.308  0.2079 -0.3227  0.1993
 1192ERGO    R316448   3.731  11.064   6.265  0.0135 -0.1169  0.0955
 1192ERGO    R416449   3.565  11.190   6.471 -0.0012 -0.2921  0.1926
 1192ERGO    R516450   3.627  11.279   6.282 -0.1919 -0.2185  0.1608
 1192ERGO    C116451   3.775  11.532   6.525 -0.3054 -0.0810  0.0914
 1192ERGO    C216452   3.912  11.701   6.758  0.1302 -0.3133  0.0542
 1193ERGO   ROH16453  18.457   0.240   5.799  0.0674 -0.0537  0.0169
 1193ERGO    R116454  18.491   0.144   6.063  0.2364  0.1723  0.0815
 1193ERGO    R216455  18.531   0.312   6.279 -0.2369  0.4052  0.0039
 1193ERGO    R316456  18.317   0.178   6.381  0.0526 -0.0749  0.0101
 1193ERGO    R416457  18.417   0.340   6.604 -0.3188  0.1749 -0.0031
 1193ERGO    R516458  18.382   0.125   6.605  0.1663  0.0882  0.0151
 1193ERGO    C116459  18.150   0.231   6.889 -0.0950 -0.4098 -0.0013
 1193ERGO    C216460  18.198   0.410   7.142  0.0814  0.1921 -0.2106
 1194ERGO   ROH16461  16.851   0.845   9.042 -0.0674 -0.2879 -0.1388
 1194ERGO    R116462  16.827   1.008   8.812 -0.0801 -0.1849 -0.0647
 1194ERGO    R216463  17.028   1.031   8.624 -0.0685 -0.0544 -0.0340
 1194ERGO    R316464  16.831   0.959   8.452 -0.0362 -0.0137 -0.0891
 1194ERGO    R416465  17.032   1.091   8.284 -0.1662  0.3597  0.0318
 1194ERGO    R516466  16.820   1.140   8.295 -0.2095  0.1713  0.1269
 1194ERGO    C116467  16.850   1.058   7.924 -0.1929  0.6389  0.0183
 1194ERGO    C216468  16.834   0.917   7.579  0.3769 -0.1605  0.1351
 1195ERGO   ROH16469   8.267  18.309   7.120  0.3529 -0.1867 -0.0087
 1195ERGO    R116470   8.342  18.175   6.882  0.2336 -0.1577 -0.0637
 1195ERGO    R216471   8.454  17.921   6.883  0.1648 -0.1885 -0.1566
 1195ERGO    R316472   8.249  17.866   6.712  0.0907 -0.0975 -0.0974
 1195ERGO    R416473   8.462  17.680   6.635  0.0612 -0.0631 -0.2836
 1195ERGO    R516474   8.357  17.819   6.504  0.0048  0.0083 -0.1691
 1195ERGO    C116475   8.276  17.488   6.331 -0.0687  0.0955 -0.3022
 1195ERGO    C216476   8.278  17.329   6.122  0.1228  0.0173 -0.0103
 1196ERGO   ROH16477  10.206  16.237   9.232 -0.2065 -0.0567  0.1703
 1196ERGO    R116478  10.247  16.259   8.953 -0.3276  0.3813  0.1774
 1196ERGO    R216479  10.293  16.038   8.792  0.5489  0.6796 -0.0465
 1196ERGO    R316480  10.082  16.137   8.652  0.0877 -0.0191  0.1020
 1196ERGO    R416481  10.229  15.977   8.458  0.5285  0.5161 -0.0133
 1196ERGO    R516482  10.170  16.185   8.435 -0.2154  0.3325  0.0508
 1196ERGO    C116483   9.995  16.035   8.132  0.0837 -0.2355  0.1456
 1196ERGO    C216484   9.787  15.853   7.970  0.2748  0.2072 -0.0229
 1197ERGO   ROH16485   7.744  10.170   6.197  0.0121 -0.0370  0.0954
 1197ERGO    R116486   7.728  10.066   6.460  0.0026  0.0592  0.1335
 1197ERGO    R216487   7.951  10.028   6.619  0.0090  0.0225  0.1197
 1197ERGO    R316488   7.812  10.181   6.795  0.0919  0.1417  0.0825
 1197ERGO    R416489   8.055  10.105   6.939  0.0303  0.0195  0.1133
 1197ERGO    R516490   7.850  10.077   7.007  0.0107  0.1596  0.1040
 1197ERGO    C116491   7.986  10.293   7.291  0.1205  0.1297  0.0747
 1197ERGO    C216492   8.166  10.444   7.417  0.1525 -0.2191 -0.0407
 1198ERGO   ROH16493   3.385   2.814   5.461  0.1975  0.1662  0.0564
 1198ERGO    R116494   3.282   2.928   5.699 -0.0079  0.1758 -0.0349
 1198ERGO    R216495   3.019   3.010   5.723 -0.1169 -0.1221 -0.1581
 1198ERGO    R316496   3.022   2.846   5.940  0.0167 -0.0034 -0.0682
 1198ERGO    R416497   2.799   3.030   5.989 -0.0886 -0.1149 -0.1348
 1198ERGO    R516498   2.965   2.990   6.124 -0.0431  0.0609 -0.1371
 1198ERGO    C116499   2.673   2.888   6.347  0.0534  0.0007 -0.0368
 1198ERGO    C216500   2.520   2.987   6.498 -0.1915  0.0618  0.0447
 1199ERGO   ROH16501   6.310  17.208   9.460 -0.0428  0.0157  0.1057
 1199ERGO    R116502   6.166  17.271   9.224  0.0548  0.0228  0.0454
 1199ERGO    R216503   5.956  17.451   9.222  0.0403  0.0179 -0.0354
 1199ERGO    R316504   6.102  17.569   9.025  0.1292  0.0331  0.0412
 1199ERGO    R416505   5.824  17.637   8.962  0.1874  0.1656 -0.0043
 1199ERGO    R516506   5.968  17.543   8.829  0.1755  0.1630  0.0007
 1199ERGO    C116507   5.885  17.856   8.627  0.3565  0.2658  0.0855
 1199ERGO    C216508   5.668  18.104   8.479 -0.1408 -0.0089  0.2179
 1200ERGO   ROH16509   9.391   7.262   5.589 -0.1944 -0.1205  0.1525
 1200ERGO    R116510   9.527   7.143   5.807  0.0288 -0.1263  0.0139
 1200ERGO    R216511   9.395   7.005   6.006  0.2089  0.0221  0.2398
 1200ERGO    R316512   9.570   6.807   5.941  0.0049 -0.1074  0.0703
 1200ERGO    R416513   9.476   6.737   6.210  0.2506 -0.0038  0.1894
 1200ERGO    R516514   9.683   6.758   6.146  0.1997 -0.1539 -0.0444
 1200ERGO    C116515   9.687   6.396   6.267  0.0833 -0.1405  0.0011
 1200ERGO    C216516   9.513   6.236   6.429 -0.0938  0.3501 -0.1955
 1201ERGO   ROH16517  18.536   6.996   8.817 -0.2656 -0.2826 -0.1044
 1201ERGO    R116518  18.497   7.178   8.603 -0.1093 -0.1779 -0.0452
 1201ERGO    R216519  18.704   7.325   8.494  0.0047 -0.2679  0.0516
 1201ERGO    R316520  18.618   7.214   8.261 -0.0201 -0.1252 -0.0092
 1201ERGO    R416521  18.758   7.459   8.180 -0.2133  0.0425  0.1410
 1201ERGO    R516522  18.554   7.401   8.126 -0.2011 -0.0453  0.1784
 1201ERGO    C116523  18.708   7.432   7.778 -0.3636  0.3574  0.1360
 1201ERGO    C216524  18.950   7.526   7.484  0.5386  0.0409 -0.1236
 1202ERGO   ROH16525   9.158   8.266   9.024  0.0707  0.0712  0.1295
 1202ERGO    R116526   9.421   8.373   9.017  0.0455  0.1284  0.0169
 1202ERGO    R216527   9.599   8.314   8.814 -0.0035  0.1135 -0.0272
 1202ERGO    R316528   9.613   8.585   8.792 -0.0760  0.1107 -0.1036
 1202ERGO    R416529   9.822   8.486   8.613 -0.1072  0.1216 -0.1353
 1202ERGO    R516530   9.847   8.631   8.773 -0.0969  0.1677 -0.1843
 1202ERGO    C116531   9.965   8.840   8.476 -0.2356  0.1240 -0.2699
 1202ERGO    C216532  10.024   8.975   8.115  0.1405  0.1298  0.0086
 1203ERGO   ROH16533   3.811  16.264   5.948 -0.1466  0.3209 -0.1833
 1203ERGO    R116534   3.875  16.347   6.211 -0.1263  0.1589 -0.1367
 1203ERGO    R216535   4.125  16.445   6.280 -0.1178  0.0980 -0.0923
 1203ERGO    R316536   3.980  16.656   6.372 -0.0944  0.0557  0.0454
 1203ERGO    R416537   4.248  16.699   6.480 -0.0237  0.0753 -0.1204
 1203ERGO    R516538   4.063  16.694   6.593  0.0470  0.0216  0.0021
 1203ERGO    C116539   4.185  17.044   6.683  0.0531  0.0225 -0.0077
 1203ERGO    C216540   4.354  17.263   6.690 -0.2593 -0.6944 -0.0182
 1204ERGO   ROH16541  19.369   5.681   9.359  0.0797 -0.5076  0.1802
 1204ERGO    R116542  19.496   5.723   9.109  0.0507 -0.2488  0.2073
 1204ERGO    R216543  19.593   5.516   8.954  0.1689 -0.0777  0.0520
 1204ERGO    R316544  19.436   5.628   8.763  0.1012 -0.0281  0.1358
 1204ERGO    R416545  19.656   5.507   8.615 -0.0220 -0.1163  0.0159
 1204ERGO    R516546  19.590   5.713   8.601  0.0444 -0.0904  0.0458
 1204ERGO    C116547  19.546   5.607   8.238 -0.1967 -0.0922  0.0735
 1204ERGO    C216548  19.731   5.465   7.923 -0.4351 -0.4611  0.2594
 1205ERGO   ROH16549  12.078  13.378   5.920  0.1915  0.1079 -0.0204
 1205ERGO    R116550  11.988  13.542   6.132  0.1650  0.0532  0.0096
 1205ERGO    R216551  11.804  13.455   6.319  0.1229  0.0156 -0.0548
 1205ERGO    R316552  11.996  13.531   6.496  0.0920 -0.0516  0.0097
 1205ERGO    R416553  11.743  13.567   6.640  0.0465  0.0767 -0.0894
 1205ERGO    R516554  11.900  13.717   6.612  0.1272  0.0066 -0.0478
 1205ERGO    C116555  11.889  13.704   6.994 -0.0270  0.0494 -0.0490
 1205ERGO    C216556  11.784  13.688   7.433  0.0086  0.1405  0.1261
 1206ERGO   ROH16557  17.222  15.422   5.888  0.0302  0.2556 -0.0304
 1206ERGO    R116558  17.119  15.354   6.143  0.0389  0.2987 -0.0149
 1206ERGO    R216559  17.240  15.169   6.308 -0.1281  0.0869 -0.1196
 1206ERGO    R316560  17.233  15.373   6.488  0.1939  0.0414 -0.0512
 1206ERGO    R416561  17.203  15.130   6.650 -0.3161  0.0406 -0.1443
 1206ERGO    R516562  17.071  15.304   6.650  0.0076  0.2897 -0.1303
 1206ERGO    C116563  17.175  15.299   7.017 -0.1234 -0.0292 -0.0946
 1206ERGO    C216564  17.270  15.310   7.346 -0.1083 -0.0413  0.2694
 1207ERGO   ROH16565  14.743  18.649   8.815 -0.1587  0.0729 -0.0686
 1207ERGO    R116566  14.818  18.462   8.617  0.0409  0.0233  0.0512
 1207ERGO    R216567  14.697  18.451   8.369  0.0253 -0.2866  0.0682
 1207ERGO    R316568  14.953  18.474   8.279 -0.0072 -0.0473  0.0295
 1207ERGO    R416569  14.800  18.381   8.046  0.0488 -0.2143  0.0596
 1207ERGO    R516570  14.979  18.289   8.129  0.1507 -0.0347  0.0414
 1207ERGO    C116571  15.099  18.362   7.774  0.0319  0.0525  0.0182
 1207ERGO    C216572  14.984  18.352   7.409 -0.0228  0.1462 -0.0345
 1208ERGO   ROH16573   4.477   6.407   9.118 -0.0782  0.1423 -0.1583
 1208ERGO    R116574   4.475   6.472   8.843 -0.1116 -0.0173 -0.1965
 1208ERGO    R216575   4.646   6.354   8.661 -0.1155 -0.1034 -0.1434
 1208ERGO    R316576   4.415   6.296   8.530 -0.1213 -0.2058 -0.0904
 1208ERGO    R416577   4.627   6.228   8.340 -0.1349  0.0411 -0.2003
 1208ERGO    R516578   4.458   6.359   8.303 -0.2453 -0.0613 -0.0756
 1208ERGO    C116579   4.399   6.100   8.030 -0.1517  0.0290 -0.1835
 1208ERGO    C216580   4.460   5.839   7.858 -0.1868 -0.3874  0.0384
 1209ERGO   ROH16581   3.911   0.887   5.968 -0.0537 -0.0588  0.0418
 1209ERGO    R116582   3.793   0.873   6.225 -0.0010 -0.1725  0.0601
 1209ERGO    R216583   3.840   0.663   6.399  0.2631 -0.1085  0.0690
 1209ERGO    R316584   3.911   0.863   6.569  0.0631 -0.0131  0.0443
 1209ERGO    R416585   3.830   0.642   6.744  0.2831 -0.0769  0.0718
 1209ERGO    R516586   3.755   0.846   6.750  0.0766 -0.1488  0.0461
 1209ERGO    C116587   3.892   0.817   7.104  0.1070  0.0311  0.0504
 1209ERGO    C216588   3.887   0.735   7.437  0.0371  0.3425  0.1269
 1210ERGO   ROH16589   4.924   8.980   9.049 -0.0366 -0.5255 -0.0455
 1210ERGO    R116590   4.833   9.092   8.806 -0.1021 -0.5104 -0.0131
 1210ERGO    R216591   4.991   9.253   8.647 -0.2181 -0.3211  0.0666
 1210ERGO    R316592   4.925   9.073   8.454 -0.0480 -0.3016 -0.0132
 1210ERGO    R416593   4.997   9.316   8.307 -0.1826 -0.1853  0.0915
 1210ERGO    R516594   4.811   9.203   8.288 -0.1044 -0.3137  0.0095
 1210ERGO    C116595   4.938   9.184   7.929 -0.0022 -0.0881  0.0308
 1210ERGO    C216596   4.941   9.254   7.585  0.0003 -0.0569 -0.0201
 1211ERGO   ROH16597   6.692  18.903   5.482  0.0372  0.0508  0.0052
 1211ERGO    R116598   6.747  18.798   5.739  0.1409 -0.0160 -0.0453
 1211ERGO    R216599   7.001  18.723   5.818  0.2042  0.1822 -0.0923
 1211ERGO    R316600   6.951  18.891   6.025  0.0639  0.0363 -0.0025
 1211ERGO    R416601   7.094  18.664   6.145  0.4457  0.1533 -0.1637
 1211ERGO    R516602   6.902  18.745   6.209  0.3455 -0.1291 -0.0388
 1211ERGO    C116603   7.103  18.787   6.531  0.4545 -0.0003 -0.1210
 1211ERGO    C216604   7.193  18.499   6.750  0.0755 -0.1655  0.2143
 1212ERGO   ROH16605   2.378  17.239   9.255  0.1680  0.1450  0.0322
 1212ERGO    R116606   2.526  17.384   9.062  0.0691  0.1034 -0.0786
 1212ERGO    R216607   2.603  17.276   8.820  0.0958 -0.0096 -0.0272
 1212ERGO    R316608   2.478  17.494   8.719 -0.0359 -0.1381 -0.1413
 1212ERGO    R416609   2.627  17.382   8.493  0.3508  0.0668  0.0154
 1212ERGO    R516610   2.636  17.588   8.565  0.0333  0.0648  0.0554
 1212ERGO    C116611   2.524  17.650   8.206  0.3757 -0.0092 -0.0669
 1212ERGO    C216612   2.569  17.566   7.804 -0.0665  0.0905 -0.1742
 1213ERGO   ROH16613   2.710  14.503   5.914  0.0618  0.2189  0.0419
 1213ERGO    R116614   2.753  14.493   6.193 -0.0441  0.0366  0.0536
 1213ERGO    R216615   2.552  14.436   6.373 -0.0907 -0.1798 -0.0661
 1213ERGO    R316616   2.726  14.244   6.457 -0.0416 -0.1668 -0.1350
 1213ERGO    R416617   2.471  14.177   6.587 -0.0412 -0.3153 -0.2088
 1213ERGO    R516618   2.664  14.204   6.685 -0.0653 -0.3018 -0.1637
 1213ERGO    C116619   2.587  13.846   6.790  0.0338 -0.3820 -0.3565
 1213ERGO    C216620   2.485  13.621   7.070  0.0548  0.2398  0.0595
 1214ERGO   ROH16621   5.824  12.417   6.098  0.2052 -0.0745  0.1688
 1214ERGO    R116622   5.734  12.347   6.357  0.0915  0.0068  0.1520
 1214ERGO    R216623   5.500  12.205   6.400  0.0492  0.0582  0.0973
 1214ERGO    R316624   5.665  12.039   6.539 -0.0331  0.0644  0.2035
 1214ERGO    R416625   5.395  11.972   6.633 -0.0880  0.0787  0.0567
 1214ERGO    R516626   5.566  12.026   6.757 -0.1563  0.0834  0.1493
 1214ERGO    C116627   5.489  11.681   6.898 -0.2451  0.0965  0.1328
 1214ERGO    C216628   5.640  11.542   7.152 -0.0778  0.1833  0.0853
 1215ERGO   ROH16629   5.019  19.138   6.055 -0.0542  0.1174 -0.1599
 1215ERGO    R116630   5.004  19.154   6.337 -0.0936  0.0466 -0.1578
 1215ERGO    R216631   4.771  19.106   6.477 -0.1005 -0.0389 -0.1988
 1215ERGO    R316632   4.927  18.928   6.611 -0.0776 -0.0365 -0.2216
 1215ERGO    R416633   4.767  19.058   6.819  0.0859  0.0929 -0.1765
 1215ERGO    R516634   4.984  19.040   6.815  0.0779  0.0234 -0.2972
 1215ERGO    C116635   4.911  18.863   7.145  0.2160  0.1722 -0.1849
 1215ERGO    C216636   4.944  18.886   7.482  0.0768  0.2700 -0.1721
 1216ERGO   ROH16637   1.466   4.219   9.482 -0.0437  0.0006 -0.0329
 1216ERGO    R116638   1.447   4.070   9.242 -0.2508  0.1251 -0.0960
 1216ERGO    R216639   1.304   4.159   9.023 -0.1408  0.4125 -0.0553
 1216ERGO    R316640   1.539   4.119   8.893 -0.1945  0.1502 -0.0777
 1216ERGO    R416641   1.338   4.124   8.680 -0.2022  0.4667 -0.0673
 1216ERGO    R516642   1.485   3.967   8.716 -0.3966  0.2673 -0.1189
 1216ERGO    C116643   1.578   4.066   8.359 -0.2883  0.2521 -0.0954
 1216ERGO    C216644   1.607   4.118   8.098  0.1670  0.1754 -0.0943
 1217ERGO   ROH16645   0.266   6.878   5.691  0.0811  0.0455  0.1213
 1217ERGO    R116646   0.428   6.945   5.914 -0.1184  0.2712  0.2012
 1217ERGO    R216647   0.332   7.088   6.130 -0.5128 -0.1123  0.2929
 1217ERGO    R316648   0.428   6.877   6.271 -0.0300 -0.0017  0.1514
 1217ERGO    R416649   0.392   7.090   6.470 -0.4988 -0.2045  0.2923
 1217ERGO    R516650   0.574   6.976   6.433 -0.2372  0.2217  0.2065
 1217ERGO    C116651   0.517   6.893   6.801 -0.0375 -0.1544  0.1592
 1217ERGO    C216652   0.550   6.989   7.124 -0.2952  0.2239 -0.0722
 1218ERGO   ROH16653   3.858   4.552   8.963  0.1836 -0.1871  0.0160
 1218ERGO    R116654   3.778   4.692   8.731  0.0236 -0.1172  0.1119
 1218ERGO    R216655   3.857   4.617   8.476 -0.0395  0.0390  0.0463
 1218ERGO    R316656   3.589   4.618   8.429 -0.0595 -0.0674  0.1508
 1218ERGO    R416657   3.712   4.642   8.164 -0.1700 -0.0339  0.0998
 1218ERGO    R516658   3.561   4.774   8.250 -0.1889 -0.0868  0.1518
 1218ERGO    C116659   3.376   4.658   7.937 -0.2648 -0.1764  0.2291
 1218ERGO    C216660   3.239   4.715   7.665  0.1154 -0.1331 -0.1077
 1219ERGO   ROH16661  19.189  12.959   6.126 -0.1598  0.0488  0.2134
 1219ERGO    R116662  19.321  12.824   6.337 -0.0546 -0.1104  0.0495
 1219ERGO    R216663  19.405  12.562   6.316 -0.0209 -0.0846 -0.2048
 1219ERGO    R316664  19.645  12.667   6.389 -0.0095 -0.1061 -0.2132
 1219ERGO    R416665  19.682  12.378   6.412 -0.0842 -0.0972 -0.0442
 1219ERGO    R516666  19.721  12.526   6.567 -0.0798 -0.0240 -0.1204
 1219ERGO    C116667  20.068  12.371   6.537 -0.1103 -0.1246  0.0415
 1219ERGO    C216668  20.315  12.199   6.323 -0.2759 -0.2209  0.1968
 1220ERGO   ROH16669   5.593  14.801   9.209 -0.2247  0.1274 -0.1059
 1220ERGO    R116670   5.577  14.641   8.976 -0.1714  0.0659 -0.0666
 1220ERGO    R216671   5.346  14.511   8.900 -0.1918  0.1642 -0.1594
 1220ERGO    R316672   5.387  14.643   8.666  0.0096  0.0691 -0.1810
 1220ERGO    R416673   5.179  14.444   8.604 -0.2214  0.2889 -0.1719
 1220ERGO    R516674   5.368  14.473   8.498 -0.1595  0.0456 -0.1459
 1220ERGO    C116675   5.121  14.529   8.212 -0.0497  0.2721 -0.1995
 1220ERGO    C216676   5.000  14.542   7.848  0.3067 -0.2322  0.0845
 1221ERGO   ROH16677  11.042  18.789   9.257 -0.0570 -0.1670  0.1623
 1221ERGO    R116678  10.897  18.758   9.016 -0.0378  0.2778  0.0855
 1221ERGO    R216679  10.952  18.906   8.790  0.5755  0.0939  0.0962
 1221ERGO    R316680  10.972  18.661   8.673 -0.1521 -0.0066  0.1378
 1221ERGO    R416681  10.991  18.852   8.451  0.7783 -0.0504  0.1406
 1221ERGO    R516682  10.852  18.684   8.467  0.1489  0.4184 -0.0037
 1221ERGO    C116683  11.032  18.590   8.144  0.2132 -0.2286  0.2056
 1221ERGO    C216684  11.114  18.633   7.902 -0.0076 -0.2282  0.0122
 1222ERGO   ROH16685  19.354   6.799   9.130 -0.6146 -0.1786 -0.1972
 1222ERGO    R116686  19.433   6.655   8.899 -0.3453 -0.1253 -0.1418
 1222ERGO    R216687  19.259   6.600   8.692 -0.1245 -0.1382 -0.3276
 1222ERGO    R316688  19.452   6.720   8.541  0.0005 -0.0682 -0.1170
 1222ERGO    R416689  19.256   6.619   8.347  0.1888 -0.0334 -0.3283
 1222ERGO    R516690  19.471   6.580   8.347  0.1945 -0.0067 -0.1445
 1222ERGO    C116691  19.434   6.743   8.004  0.4886  0.0934 -0.1309
 1222ERGO    C216692  19.409   6.697   7.556  0.1243 -0.0830  0.1028
 1223ERGO   ROH16693   8.692   7.578   9.043 -0.3018  0.0372  0.1354
 1223ERGO    R116694   8.737   7.482   8.781 -0.0841  0.0678  0.1589
 1223ERGO    R216695   8.647   7.236   8.695  0.0838  0.0222  0.0851
 1223ERGO    R316696   8.533   7.383   8.497  0.1445 -0.0151  0.0239
 1223ERGO    R416697   8.599   7.127   8.370  0.0338 -0.0801  0.1271
 1223ERGO    R516698   8.657   7.325   8.301  0.1120 -0.1403  0.0472
 1223ERGO    C116699   8.465   7.202   7.995  0.0616 -0.1748  0.0942
 1223ERGO    C216700   8.500   7.192   7.628 -0.3466 -0.0963  0.0616
 1224ERGO   ROH16701  10.769  10.237   9.035 -0.2785  0.0046  0.2696
 1224ERGO    R116702  10.932  10.338   8.827 -0.1959  0.0145  0.3393
 1224ERGO    R216703  11.099  10.176   8.677 -0.0801  0.0327  0.4467
 1224ERGO    R316704  10.965  10.287   8.469 -0.0011 -0.0278  0.3621
 1224ERGO    R416705  11.208  10.178   8.349  0.0272 -0.0849  0.4800
 1224ERGO    R516706  11.135  10.382   8.331  0.0495 -0.0871  0.3856
 1224ERGO    C116707  11.145  10.284   7.962  0.1636 -0.2100  0.4198
 1224ERGO    C216708  10.991  10.006   7.732 -0.1593  0.5058 -0.1602
 1225ERGO   ROH16709   6.923   2.716   9.011 -0.1455 -0.1487  0.0399
 1225ERGO    R116710   7.060   2.812   8.782 -0.1034 -0.0184  0.1191
 1225ERGO    R216711   7.209   2.647   8.617 -0.0732  0.0762  0.0537
 1225ERGO    R316712   7.050   2.752   8.424 -0.0358  0.1854  0.0812
 1225ERGO    R416713   7.294   2.674   8.283 -0.1085  0.0122  0.0394
 1225ERGO    R516714   7.201   2.870   8.280  0.0249  0.0806  0.0549
 1225ERGO    C116715   7.195   2.788   7.907 -0.0940  0.0774  0.0571
 1225ERGO    C216716   7.120   2.919   7.589  0.0735 -0.4907  0.2009
 1226ERGO   ROH16717  13.671   5.251   8.717 -0.0281 -0.2319 -0.0333
 1226ERGO    R116718  13.882   5.216   8.533 -0.0269  0.1228 -0.1068
 1226ERGO    R216719  13.907   4.990   8.376  0.3843  0.0839  0.0031
 1226ERGO    R316720  13.915   5.171   8.173 -0.0918  0.0041 -0.0985
 1226ERGO    R416721  13.931   4.909   8.041  0.4278 -0.0451  0.0368
 1226ERGO    R516722  14.069   5.076   8.016  0.0596  0.2533 -0.1058
 1226ERGO    C116723  13.953   5.032   7.655  0.0061 -0.1949 -0.0390
 1226ERGO    C216724  13.852   4.902   7.448  0.2780 -0.0449  0.1258
 1227ERGO   ROH16725  11.193   1.279   5.871  0.0614 -0.0671  0.0307
 1227ERGO    R116726  11.341   1.361   6.099  0.0413 -0.0465  0.0358
 1227ERGO    R216727  11.363   1.626   6.174  0.0689 -0.0368 -0.0111
 1227ERGO    R316728  11.270   1.532   6.412  0.0227  0.0218 -0.0051
 1227ERGO    R416729  11.448   1.756   6.483 -0.1260  0.1511 -0.0338
 1227ERGO    R516730  11.458   1.552   6.560 -0.0462  0.1906  0.0635
 1227ERGO    C116731  11.411   1.744   6.886 -0.2826  0.3155 -0.0414
 1227ERGO    C216732  11.526   1.874   7.151  0.0792 -0.0059  0.4163
 1228ERGO   ROH16733  16.247   2.884   5.796 -0.0264 -0.2009  0.1127
 1228ERGO    R116734  16.029   2.867   5.975 -0.0391 -0.1662  0.1001
 1228ERGO    R216735  15.831   2.675   5.952 -0.0237 -0.1855  0.1369
 1228ERGO    R316736  15.899   2.621   6.210 -0.0412 -0.1108  0.1577
 1228ERGO    R416737  15.611   2.568   6.195 -0.0081 -0.2862  0.1072
 1228ERGO    R516738  15.712   2.698   6.337 -0.1143 -0.2057  0.1105
 1228ERGO    C116739  15.546   2.454   6.579 -0.0157 -0.2748  0.1095
 1228ERGO    C216740  15.494   2.475   6.908 -0.1900  0.2511 -0.1421
 1229ERGO   ROH16741   5.834   2.039   8.962  0.0366  0.0475 -0.0301
 1229ERGO    R116742   5.724   2.057   8.702  0.0350 -0.0540 -0.0371
 1229ERGO    R216743   5.856   1.965   8.478  0.0104 -0.1926  0.0029
 1229ERGO    R316744   5.626   1.825   8.439 -0.0218 -0.1608  0.0779
 1229ERGO    R416745   5.756   1.830   8.176 -0.1302 -0.1437  0.0269
 1229ERGO    R516746   5.552   1.892   8.222 -0.1035 -0.1260  0.1173
 1229ERGO    C116747   5.482   1.620   7.964 -0.2424 -0.0853  0.1114
 1229ERGO    C216748   5.390   1.731   7.661  0.3147  0.1807 -0.0361
 1230ERGO   ROH16749   0.120   4.817   5.961  0.1004  0.1356  0.0357
 1230ERGO    R116750  -0.124   4.794   6.102  0.0556  0.1265 -0.0439
 1230ERGO    R216751  -0.291   4.576   6.077  0.0072  0.1828 -0.2021
 1230ERGO    R316752  -0.268   4.568   6.348 -0.0732  0.0380 -0.1977
 1230ERGO    R416753  -0.480   4.375   6.285 -0.0495  0.0603 -0.3686
 1230ERGO    R516754  -0.493   4.541   6.425 -0.0981 -0.0135 -0.2807
 1230ERGO    C116755  -0.569   4.251   6.661 -0.1579 -0.1471 -0.4614
 1230ERGO    C216756  -0.531   4.124   7.011  0.0631 -0.2205  0.2328
 1231ERGO   ROH16757   0.527  13.864   6.316  0.0936 -0.1897  0.0730
 1231ERGO    R116758   0.571  13.775   6.581  0.1713 -0.0391  0.1116
 1231ERGO    R216759   0.757  13.580   6.643  0.1382 -0.0553  0.1588
 1231ERGO    R316760   0.850  13.769   6.815  0.2619  0.0239  0.0062
 1231ERGO    R416761   0.904  13.514   6.949  0.1830  0.0904  0.1693
 1231ERGO    R516762   0.796  13.685   7.032  0.2765  0.1961  0.0789
 1231ERGO    C116763   1.077  13.654   7.288  0.3252  0.2495  0.0321
 1231ERGO    C216764   1.347  13.487   7.465 -0.0701  0.0688  0.2647
 1232ERGO   ROH16765  15.140  14.285   6.331  0.3526 -0.0501  0.0517
 1232ERGO    R116766  15.096  14.275   6.610  0.1967 -0.0039  0.0301
 1232ERGO    R216767  14.872  14.159   6.721  0.1068  0.0658 -0.0779
 1232ERGO    R316768  15.055  14.014   6.861 -0.0048  0.0382  0.0421
 1232ERGO    R416769  14.796  13.933   6.971 -0.0817  0.1908 -0.0198
 1232ERGO    R516770  14.967  14.007   7.084 -0.0893  0.1590  0.0144
 1232ERGO    C116771  14.924  13.666   7.248 -0.2961  0.2375  0.1267
 1232ERGO    C216772  14.826  13.353   7.383  0.0699 -0.2148  0.1822
 1233ERGO   ROH16773   4.152   8.629   5.788 -0.0034  0.1924 -0.2303
 1233ERGO    R116774   4.069   8.645   6.059  0.1113  0.0739 -0.1859
 1233ERGO    R216775   3.814   8.719   6.132  0.1726  0.1652 -0.0388
 1233ERGO    R316776   3.819   8.484   6.269  0.1100  0.0766 -0.1882
 1233ERGO    R416777   3.634   8.654   6.420  0.3496  0.1106  0.0595
 1233ERGO    R516778   3.808   8.549   6.499  0.3330 -0.0622 -0.1391
 1233ERGO    C116779   3.535   8.397   6.717  0.3939 -0.0043 -0.0234
 1233ERGO    C216780   3.281   8.502   6.817  0.0918 -0.2435 -0.0250
 1234ERGO   ROH16781  16.459   5.698   8.663  0.0767 -0.2548  0.0068
 1234ERGO    R116782  16.386   5.725   8.390 -0.0678  0.1328  0.0770
 1234ERGO    R216783  16.408   5.964   8.253  0.4627  0.1893  0.2352
 1234ERGO    R316784  16.553   5.813   8.079 -0.0598 -0.0880  0.0180
 1234ERGO    R416785  16.468   6.047   7.923  0.3587  0.2049  0.2198
 1234ERGO    R516786  16.438   5.837   7.870 -0.2036  0.2943  0.1352
 1234ERGO    C116787  16.639   5.954   7.568 -0.1924 -0.0465  0.0070
 1234ERGO    C216788  16.894   5.869   7.328  0.0279  0.3930  0.2350
 1235ERGO   ROH16789   7.636  18.268   9.226 -0.0005 -0.5881  0.2020
 1235ERGO    R116790   7.628  18.179   8.958 -0.2190 -0.3205  0.1136
 1235ERGO    R216791   7.391  18.133   8.823 -0.3403  0.0720  0.1624
 1235ERGO    R316792   7.498  18.305   8.642 -0.2256  0.1372  0.2936
 1235ERGO    R416793   7.341  18.117   8.481 -0.0753  0.1786  0.1181
 1235ERGO    R516794   7.551  18.168   8.453 -0.0672  0.2106  0.2910
 1235ERGO    C116795   7.413  18.270   8.112  0.1867  0.3019  0.2154
 1235ERGO    C216796   7.546  18.343   7.783  0.2695  0.1755  0.0444
 1236ERGO   ROH16797   6.043   9.774   5.804 -0.0603 -0.1193  0.0465
 1236ERGO    R116798   6.158   9.680   6.045 -0.0505 -0.1049  0.0466
 1236ERGO    R216799   6.044   9.478   6.196  0.0683 -0.2419 -0.0508
 1236ERGO    R316800   6.289   9.364   6.169  0.1679 -0.0430 -0.0172
 1236ERGO    R416801   6.192   9.269   6.428  0.1204 -0.2669 -0.1054
 1236ERGO    R516802   6.382   9.368   6.389  0.0689 -0.0982  0.0301
 1236ERGO    C116803   6.508   9.040   6.538  0.2442 -0.0947 -0.1057
 1236ERGO    C216804   6.849   8.993   6.575 -0.0732 -0.0090  0.2706
 1237ERGO   ROH16805  12.457  10.828   5.897  0.0489 -0.0648  0.0784
 1237ERGO    R116806  12.428  10.894   6.171 -0.0161 -0.0203  0.0634
 1237ERGO    R216807  12.526  10.733   6.374 -0.0868 -0.0075  0.1226
 1237ERGO    R316808  12.651  10.962   6.450 -0.0779 -0.0099  0.1063
 1237ERGO    R416809  12.708  10.773   6.665  0.0705 -0.0309  0.0262
 1237ERGO    R516810  12.622  10.971   6.687  0.0592 -0.0584  0.1173
 1237ERGO    C116811  12.931  11.011   6.906  0.1703 -0.0467 -0.0452
 1237ERGO    C216812  12.999  11.189   7.223 -0.2781 -0.0849  0.2897
 1238ERGO   ROH16813  13.933   9.707   6.371  0.0650 -0.1399 -0.1157
 1238ERGO    R116814  13.976   9.606   6.632  0.0414 -0.3118 -0.1771
 1238ERGO    R216815  13.957   9.763   6.858  0.4323 -0.3590 -0.1013
 1238ERGO    R316816  13.782   9.571   6.937  0.1492 -0.0973 -0.0837
 1238ERGO    R416817  13.843   9.720   7.182  0.4627 -0.2396 -0.0750
 1238ERGO    R516818  13.860   9.505   7.154  0.1117 -0.2621 -0.1218
 1238ERGO    C116819  13.613   9.514   7.444  0.2147  0.0755 -0.0431
 1238ERGO    C216820  13.499   9.435   7.717 -0.0343  0.0768  0.1127
 1239ERGO   ROH16821   6.377  13.615   8.928 -0.2066 -0.0438 -0.1594
 1239ERGO    R116822   6.557  13.631   8.710 -0.1619 -0.2559 -0.1402
 1239ERGO    R216823   6.478  13.595   8.448 -0.2310  0.0829 -0.1686
 1239ERGO    R316824   6.595  13.838   8.413  0.2637 -0.1189  0.0004
 1239ERGO    R416825   6.611  13.706   8.150 -0.3581  0.1515 -0.2000
 1239ERGO    R516826   6.777  13.793   8.263 -0.0109 -0.3489 -0.2833
 1239ERGO    C116827   6.799  13.999   7.942  0.0323  0.0021 -0.0597
 1239ERGO    C216828   6.799  14.044   7.543  0.0509  0.0102 -0.0749
 1240ERGO   ROH16829   5.851  17.802   5.734 -0.2298 -0.0909 -0.2840
 1240ERGO    R116830   5.811  17.767   6.012 -0.1319  0.0930 -0.2450
 1240ERGO    R216831   5.597  17.626   6.116 -0.0702  0.1173 -0.0764
 1240ERGO    R316832   5.793  17.487   6.243  0.0024  0.2474 -0.0441
 1240ERGO    R416833   5.543  17.397   6.369  0.0320 -0.0181 -0.1753
 1240ERGO    R516834   5.719  17.476   6.471 -0.0803  0.1044 -0.0779
 1240ERGO    C116835   5.695  17.133   6.637  0.1597  0.0252 -0.2025
 1240ERGO    C216836   5.546  16.925   6.917 -0.0900  0.3254  0.5339
 1241ERGO   ROH16837  12.950   9.339   9.048 -0.0245  0.1770 -0.0390
 1241ERGO    R116838  12.910   9.251   8.782  0.0304  0.1582 -0.0422
 1241ERGO    R216839  12.763   9.397   8.598  0.0535  0.1393 -0.0810
 1241ERGO    R316840  12.989   9.375   8.449  0.0846  0.1451 -0.0334
 1241ERGO    R416841  12.782   9.449   8.257  0.0436 -0.2534 -0.1459
 1241ERGO    R516842  12.916   9.279   8.242  0.1834 -0.1620  0.0715
 1241ERGO    C116843  13.005   9.459   7.918  0.0670 -0.4764 -0.1389
 1241ERGO    C216844  13.001   9.570   7.531 -0.2921  0.1839  0.0781
 1242ERGO   ROH16845  17.690  13.461   5.890  0.1822  0.0613 -0.2330
 1242ERGO    R116846  17.705  13.593   6.140  0.0695  0.1651 -0.2800
 1242ERGO    R216847  17.480  13.672   6.281 -0.0010 -0.0094 -0.2939
 1242ERGO    R316848  17.593  13.526   6.480  0.1589  0.1725 -0.2487
 1242ERGO    R416849  17.351  13.639   6.599  0.0691  0.0007 -0.2639
 1242ERGO    R516850  17.553  13.655   6.678  0.0673  0.2172 -0.2952
 1242ERGO    C116851  17.382  13.484   6.973  0.2602  0.1775 -0.2040
 1242ERGO    C216852  17.325  13.331   7.205  0.0098 -0.0080 -0.2949
 1243ERGO   ROH16853   1.466   5.041   5.617  0.0036 -0.0324  0.0797
 1243ERGO    R116854   1.483   5.193   5.855 -0.1494  0.3107 -0.1270
 1243ERGO    R216855   1.711   5.204   6.009 -0.3959  0.1717  0.2154
 1243ERGO    R316856   1.682   5.472   5.978  0.0915  0.1951 -0.2249
 1243ERGO    R416857   1.841   5.441   6.224 -0.7825  0.1874  0.4465
 1243ERGO    R516858   1.655   5.554   6.202 -0.5971  0.4632 -0.3563
 1243ERGO    C116859   1.889   5.831   6.320 -0.5500  0.2185  0.1677
 1243ERGO    C216860   2.047   5.928   6.646 -0.1318 -0.1231  0.0027
 1244ERGO   ROH16861   9.779  18.140   9.086  0.0370 -0.0184  0.0818
 1244ERGO    R116862   9.850  18.032   8.834  0.0042 -0.0152  0.0722
 1244ERGO    R216863   9.673  18.016   8.622  0.0109  0.0892  0.0641
 1244ERGO    R316864   9.868  18.151   8.491  0.0753  0.0207  0.0870
 1244ERGO    R416865   9.706  18.032   8.279  0.0444  0.0843  0.0662
 1244ERGO    R516866   9.921  18.013   8.303  0.0391  0.0021  0.0866
 1244ERGO    C116867   9.909  18.168   7.955  0.1245  0.0171  0.0890
 1244ERGO    C216868   9.961  18.258   7.608 -0.2452 -0.3680  0.2885
 1245ERGO   ROH16869  19.015  10.506   9.292 -0.1570 -0.2403 -0.1170
 1245ERGO    R116870  19.178  10.436   9.071 -0.1625 -0.2760 -0.1110
 1245ERGO    R216871  19.086  10.281   8.861 -0.2468 -0.1028 -0.2103
 1245ERGO    R316872  19.174  10.491   8.711 -0.0337 -0.1007 -0.0857
 1245ERGO    R416873  19.069  10.298   8.516 -0.1039  0.0744 -0.2098
 1245ERGO    R516874  19.267  10.389   8.516 -0.0392 -0.0762 -0.0958
 1245ERGO    C116875  19.141  10.504   8.175  0.1794  0.1797 -0.0925
 1245ERGO    C216876  19.274  10.578   7.888  0.1156  0.1257 -0.3468
 1246ERGO   ROH16877  16.360  15.889   6.225  0.2161 -0.3492 -0.0872
 1246ERGO    R116878  16.305  15.810   6.491  0.2872 -0.1203 -0.0027
 1246ERGO    R216879  16.435  15.920   6.709  0.1413  0.2760 -0.1107
 1246ERGO    R316880  16.182  15.970   6.794  0.0734  0.0738 -0.1869
 1246ERGO    R416881  16.339  15.945   7.040  0.0198  0.1463 -0.1353
 1246ERGO    R516882  16.157  15.835   6.990  0.1122  0.0168 -0.2165
 1246ERGO    C116883  16.045  16.006   7.312 -0.1147 -0.1189 -0.2210
 1246ERGO    C216884  16.066  16.053   7.589 -0.0136 -0.1670 -0.3177
 1247ERGO   ROH16885   3.867   3.522   8.779 -0.2579  0.0045  0.0928
 1247ERGO    R116886   3.775   3.630   8.534 -0.1674  0.0125  0.0602
 1247ERGO    R216887   3.940   3.664   8.315 -0.0799  0.0258  0.1168
 1247ERGO    R316888   3.749   3.518   8.189 -0.0295  0.0207  0.0490
 1247ERGO    R416889   3.884   3.665   7.974 -0.1468  0.2188  0.1284
 1247ERGO    R516890   3.670   3.662   8.014 -0.1300  0.0899  0.1599
 1247ERGO    C116891   3.671   3.529   7.657 -0.1385  0.3264  0.0716
 1247ERGO    C216892   3.690   3.202   7.387  0.1027 -0.0935 -0.0479
 1248ERGO   ROH16893  12.530   3.735   8.671  0.1311  0.0765  0.0218
 1248ERGO    R116894  12.558   3.623   8.413 -0.0176  0.0021  0.0362
 1248ERGO    R216895  12.354   3.485   8.288 -0.1719  0.1668  0.0958
 1248ERGO    R316896  12.398   3.664   8.088 -0.0379  0.0931  0.0585
 1248ERGO    R416897  12.233   3.456   7.965 -0.1773  0.1853  0.0964
 1248ERGO    R516898  12.425   3.530   7.892 -0.1237  0.0350  0.0885
 1248ERGO    C116899  12.205   3.607   7.590 -0.0547  0.1270  0.0618
 1248ERGO    C216900  12.029   3.642   7.313 -0.1378 -0.2091  0.0224
 1249ERGO   ROH16901  18.781  14.115   6.152  0.4823 -0.2387 -0.1528
 1249ERGO    R116902  18.765  14.028   6.421  0.2834 -0.0822 -0.1116
 1249ERGO    R216903  18.901  13.806   6.514  0.1477 -0.0776  0.0989
 1249ERGO    R316904  18.997  13.982   6.698  0.0940 -0.0097  0.0627
 1249ERGO    R416905  18.984  13.725   6.839 -0.0609  0.0602  0.1888
 1249ERGO    R516906  18.895  13.913   6.903 -0.0451  0.1226  0.0418
 1249ERGO    C116907  19.122  13.842   7.201 -0.2328  0.2043  0.2071
 1249ERGO    C216908  19.273  13.604   7.228 -0.3217 -0.1286  0.3196
 1250ERGO   ROH16909  13.658   0.689   5.933 -0.1471  0.0473  0.0550
 1250ERGO    R116910  13.476   0.723   6.147  0.1415  0.0407  0.3084
 1250ERGO    R216911  13.232   0.592   6.157 -0.1182  0.5041  0.3194
 1250ERGO    R316912  13.323   0.510   6.400 -0.0130 -0.1115  0.0909
 1250ERGO    R416913  13.030   0.497   6.421 -0.0267  0.3753  0.3439
 1250ERGO    R516914  13.166   0.602   6.556  0.3009 -0.1098  0.4190
 1250ERGO    C116915  12.998   0.364   6.803  0.1252 -0.2776  0.1436
 1250ERGO    C216916  12.907   0.359   7.157 -0.3582 -0.1844 -0.0221
 1251ERGO   ROH16917  17.784  17.188   5.814  0.0479  0.0130  0.0219
 1251ERGO    R116918  17.753  17.012   6.034 -0.0248 -0.0763 -0.0584
 1251ERGO    R216919  17.581  17.066   6.244  0.0758 -0.0478  0.0192
 1251ERGO    R316920  17.482  16.821   6.183 -0.1333  0.0592 -0.0811
 1251ERGO    R416921  17.495  16.825   6.476 -0.0903 -0.0905 -0.0852
 1251ERGO    R516922  17.582  16.674   6.344 -0.2316 -0.0999 -0.1648
 1251ERGO    C116923  17.352  16.454   6.553 -0.3835 -0.0154 -0.2401
 1251ERGO    C216924  17.074  16.334   6.725  0.2823  0.0765 -0.2614
 1252ERGO   ROH16925  17.418  12.036   9.088  0.2553  0.0837 -0.0052
 1252ERGO    R116926  17.470  12.070   8.812  0.1332  0.1566 -0.0197
 1252ERGO    R216927  17.306  11.965   8.616  0.1522  0.0418  0.0260
 1252ERGO    R316928  17.300  12.223   8.528 -0.0907  0.0483  0.0533
 1252ERGO    R416929  17.186  12.066   8.308  0.1747 -0.0575 -0.0157
 1252ERGO    R516930  17.353  12.207   8.295  0.0298  0.1282  0.0730
 1252ERGO    C116931  17.112  12.366   8.046 -0.0402 -0.1093 -0.0142
 1252ERGO    C216932  17.080  12.445   7.747 -0.1114  0.1116  0.1659
 1253ERGO   ROH16933   9.390  18.914   9.091  0.1136 -0.0439  0.0986
 1253ERGO    R116934   9.423  18.855   8.816  0.1259  0.0032  0.0897
 1253ERGO    R216935   9.237  18.928   8.625  0.1098 -0.0064  0.0988
 1253ERGO    R316936   9.452  19.045   8.507  0.0869  0.0556  0.1187
 1253ERGO    R416937   9.253  19.025   8.294  0.1068  0.0261  0.1082
 1253ERGO    R516938   9.458  18.951   8.287  0.1227  0.0772  0.1122
 1253ERGO    C116939   9.465  19.191   7.990  0.0834  0.1032  0.1324
 1253ERGO    C216940   9.339  19.223   7.612 -0.1587 -0.1131  0.2764
 1254ERGO   ROH16941   3.488   1.657   9.307 -0.0829  0.0494  0.0825
 1254ERGO    R116942   3.363   1.829   9.121  0.0410  0.1508  0.0908
 1254ERGO    R216943   3.495   1.930   8.900  0.0594 -0.0913 -0.0144
 1254ERGO    R316944   3.286   1.822   8.765 -0.1527  0.1312  0.1332
 1254ERGO    R416945   3.372   2.047   8.598  0.0758 -0.0566 -0.0067
 1254ERGO    R516946   3.171   2.010   8.672  0.0583  0.2482  0.1054
 1254ERGO    C116947   3.103   2.013   8.297 -0.1137  0.1724  0.1362
 1254ERGO    C216948   3.067   2.141   7.984 -0.2332  0.0978  0.1163
 1255ERGO   ROH16949   2.760  15.879   9.309  0.1749  0.0173 -0.0482
 1255ERGO    R116950   2.706  15.764   9.056  0.2676 -0.0137 -0.0549
 1255ERGO    R216951   2.462  15.792   8.930  0.2158 -0.2657 -0.0214
 1255ERGO    R316952   2.615  15.885   8.725  0.0916 -0.0711 -0.0275
 1255ERGO    R416953   2.408  15.723   8.595 -0.0073  0.0906 -0.0636
 1255ERGO    R516954   2.624  15.703   8.570 -0.0283  0.0914 -0.2257
 1255ERGO    C116955   2.520  15.771   8.209 -0.2538  0.4809 -0.0939
 1255ERGO    C216956   2.463  15.759   7.872  0.0183 -0.2984  0.0184
 1256ERGO   ROH16957   7.371   3.080   6.126 -0.1581 -0.1606 -0.1875
 1256ERGO    R116958   7.213   2.858   6.204 -0.2156 -0.1089 -0.1526
 1256ERGO    R216959   7.101   2.836   6.455 -0.0415 -0.1457 -0.0751
 1256ERGO    R316960   6.870   2.803   6.315 -0.1631  0.0270  0.0834
 1256ERGO    R416961   6.835   2.642   6.560  0.0392 -0.2420 -0.0528
 1256ERGO    R516962   6.812   2.573   6.353 -0.1422 -0.0141 -0.1146
 1256ERGO    C116963   6.464   2.498   6.490 -0.0279 -0.1359  0.1090
 1256ERGO    C216964   6.337   2.288   6.713  0.2875  0.3389  0.1759
 1257ERGO   ROH16965  18.104  18.327   5.749  0.0658  0.0963 -0.0965
 1257ERGO    R116966  18.002  18.335   6.013  0.0056  0.0102 -0.1164
 1257ERGO    R216967  18.148  18.433   6.226  0.0094 -0.1844 -0.0256
 1257ERGO    R316968  17.930  18.592   6.261  0.0879 -0.0820  0.0033
 1257ERGO    R416969  18.031  18.543   6.532  0.0835 -0.1479 -0.0101
 1257ERGO    R516970  17.828  18.509   6.460  0.0627 -0.0450  0.0042
 1257ERGO    C116971  17.758  18.755   6.743  0.2004 -0.0305  0.0260
 1257ERGO    C216972  17.832  18.788   6.972  0.0305  0.0592  0.0698
 1258ERGO   ROH16973  11.327   7.473   8.873 -0.0592 -0.0881  0.2201
 1258ERGO    R116974  11.496   7.574   8.670 -0.0898 -0.1014  0.1886
 1258ERGO    R216975  11.461   7.511   8.403 -0.0636 -0.2063  0.2113
 1258ERGO    R316976  11.458   7.781   8.373 -0.1540 -0.2169  0.1152
 1258ERGO    R416977  11.468   7.676   8.099 -0.1016 -0.3118  0.1518
 1258ERGO    R516978  11.603   7.823   8.187 -0.1559 -0.2333  0.1090
 1258ERGO    C116979  11.468   8.026   7.895 -0.2085 -0.3831  0.0271
 1258ERGO    C216980  11.597   8.297   7.556  0.1018 -0.1021 -0.5453
 1259ERGO   ROH16981  12.193  11.885   9.260 -0.0582  0.0215  0.0350
 1259ERGO    R116982  12.230  11.769   9.005 -0.2048 -0.0215  0.0332
 1259ERGO    R216983  12.102  11.864   8.779  0.0175  0.2345  0.0135
 1259ERGO    R316984  12.356  11.877   8.681  0.0728 -0.2127  0.0729
 1259ERGO    R416985  12.184  11.885   8.444  0.1011  0.5100  0.0487
 1259ERGO    R516986  12.349  11.747   8.480 -0.2089  0.0686 -0.1118
 1259ERGO    C116987  12.469  11.910   8.157  0.2019  0.2507  0.1247
 1259ERGO    C216988  12.555  11.836   7.695  0.0015 -0.1855 -0.2603
 1260ERGO   ROH16989  12.600  17.648   9.338  0.3706  0.0600  0.1070
 1260ERGO    R116990  12.712  17.638   9.078  0.2298  0.3329  0.0331
 1260ERGO    R216991  12.602  17.486   8.875  0.3462  0.2318  0.0542
 1260ERGO    R316992  12.605  17.722   8.740 -0.1125  0.2873  0.1241
 1260ERGO    R416993  12.556  17.520   8.534  0.5278  0.1929  0.0237
 1260ERGO    R516994  12.713  17.672   8.532  0.1837  0.5835  0.1889
 1260ERGO    C116995  12.531  17.762   8.209  0.2030  0.2224  0.0716
 1260ERGO    C216996  12.353  17.700   7.891 -0.1732  0.0213  0.0397
 1261ERGO   ROH16997   3.822  18.392   6.107  0.4093  0.0400 -0.1585
 1261ERGO    R116998   3.941  18.493   6.343  0.2667 -0.0297 -0.0548
 1261ERGO    R216999   3.797  18.539   6.575  0.1316 -0.1250 -0.1185
 1261ERGO    R317000   3.987  18.380   6.686  0.0851 -0.1442 -0.0669
 1261ERGO    R417001   3.868  18.524   6.913  0.0350 -0.1306 -0.0985
 1261ERGO    R517002   4.080  18.513   6.862  0.0492 -0.1518 -0.0408
 1261ERGO    C117003   4.088  18.365   7.214 -0.0648 -0.1518 -0.0384
 1261ERGO    C217004   4.303  18.196   7.409  0.1655  0.0148  0.2413
 1262ERGO   ROH17005   3.239   4.628   5.688  0.0660  0.3287 -0.0928
 1262ERGO    R117006   3.247   4.859   5.851 -0.0601  0.2958 -0.0385
 1262ERGO    R217007   3.035   4.936   6.011 -0.0680  0.0897  0.0544
 1262ERGO    R317008   3.223   4.933   6.207  0.0035  0.1882 -0.0113
 1262ERGO    R417009   3.015   5.113   6.307 -0.1023  0.0096  0.0997
 1262ERGO    R517010   3.227   5.157   6.290 -0.1398  0.1752  0.0358
 1262ERGO    C117011   3.179   5.212   6.664 -0.0552  0.0555  0.0644
 1262ERGO    C217012   3.000   5.354   6.937  0.2717 -0.2101  0.3637
 1263ERGO   ROH17013   3.214   3.898   9.034 -0.1436  0.1137  0.1900
 1263ERGO    R117014   2.974   3.875   8.887 -0.1239  0.3409  0.1188
 1263ERGO    R217015   2.878   4.079   8.726  0.2673  0.3294 -0.1431
 1263ERGO    R317016   2.877   3.884   8.536  0.0371  0.1188  0.0668
 1263ERGO    R417017   2.738   4.110   8.412  0.1627  0.0926 -0.1219
 1263ERGO    R517018   2.664   3.906   8.430  0.0097  0.1672  0.1320
 1263ERGO    C117019   2.655   3.945   8.051 -0.1143 -0.2429  0.0875
 1263ERGO    C217020   2.694   3.781   7.746 -0.2642 -0.2875 -0.3004
 1264ERGO   ROH17021  14.502  12.273   9.188 -0.0428  0.0764  0.0408
 1264ERGO    R117022  14.634  12.279   8.938 -0.0988  0.2484  0.0134
 1264ERGO    R217023  14.669  12.052   8.782  0.2031  0.2775  0.0301
 1264ERGO    R317024  14.548  12.204   8.592 -0.0647  0.0880  0.0383
 1264ERGO    R417025  14.711  12.012   8.442  0.2508  0.3572  0.0253
 1264ERGO    R517026  14.714  12.229   8.421 -0.1103  0.3714  0.0296
 1264ERGO    C117027  14.621  12.132   8.065  0.0273  0.2260  0.0301
 1264ERGO    C217028  14.789  12.223   7.737 -0.3080  0.3116  0.0520
 1265ERGO   ROH17029   4.932  16.109   9.232  0.0666 -0.0621 -0.0923
 1265ERGO    R117030   5.004  16.198   8.973  0.1278 -0.0739 -0.0793
 1265ERGO    R217031   5.077  16.025   8.771  0.0815 -0.0891 -0.0814
 1265ERGO    R317032   4.880  16.153   8.634  0.1455 -0.0045 -0.0952
 1265ERGO    R417033   5.020  15.991   8.432  0.0148 -0.1595 -0.0638
 1265ERGO    R517034   4.981  16.205   8.422  0.1527 -0.1360 -0.1257
 1265ERGO    C117035   4.802  16.091   8.105  0.0361 -0.1210 -0.0663
 1265ERGO    C217036   4.828  15.764   7.841 -0.0059  0.0014  0.0519
 1266ERGO   ROH17037   4.586   2.721   9.052 -0.0704  0.1609  0.0344
 1266ERGO    R117038   4.513   2.787   8.787 -0.1284  0.1835  0.0564
 1266ERGO    R217039   4.581   2.629   8.571 -0.0369  0.2844  0.0129
 1266ERGO    R317040   4.313   2.637   8.522 -0.0464  0.1226  0.0282
 1266ERGO    R417041   4.437   2.617   8.256 -0.0544  0.1061  0.0255
 1266ERGO    R517042   4.293   2.768   8.322 -0.1328  0.0495 -0.0127
 1266ERGO    C117043   4.103   2.618   8.028 -0.0734 -0.1495  0.0472
 1266ERGO    C217044   3.980   2.281   7.795  0.1113 -0.3079 -0.2030
 1267ERGO   ROH17045  16.962   3.433   9.030 -0.0158  0.0458  0.1049
 1267ERGO    R117046  16.869   3.395   8.765 -0.0693  0.0680  0.1206
 1267ERGO    R217047  16.927   3.571   8.560 -0.0870  0.0703  0.1177
 1267ERGO    R317048  17.019   3.347   8.437 -0.1357  0.0649  0.0908
 1267ERGO    R417049  16.917   3.515   8.219  0.0082  0.1617  0.0991
 1267ERGO    R517050  16.862   3.308   8.260 -0.0903  0.1738  0.0264
 1267ERGO    C117051  16.997   3.273   7.905  0.0178  0.2099  0.0631
 1267ERGO    C217052  17.019   3.291   7.530 -0.0545  0.1751  0.0467
 1268ERGO   ROH17053   9.526  15.298   9.019  0.3194  0.3693  0.0858
 1268ERGO    R117054   9.551  15.191   8.759  0.4797  0.1384  0.1923
 1268ERGO    R217055   9.402  15.283   8.545  0.2465 -0.3802  0.1160
 1268ERGO    R317056   9.646  15.315   8.430  0.1686 -0.0130  0.0420
 1268ERGO    R417057   9.459  15.298   8.204  0.1297 -0.3138  0.0985
 1268ERGO    R517058   9.638  15.178   8.234  0.3254 -0.0389  0.0551
 1268ERGO    C117059   9.722  15.338   7.898 -0.0114  0.0696  0.0188
 1268ERGO    C217060   9.809  15.320   7.518  0.0841 -0.2790  0.2206
 1269ERGO   ROH17061   2.326   6.730   9.168  0.0569  0.0235  0.1282
 1269ERGO    R117062   2.336   6.802   8.895  0.0761 -0.0324  0.1135
 1269ERGO    R217063   2.118   6.905   8.759  0.0512 -0.1678  0.0454
 1269ERGO    R317064   2.290   7.106   8.700 -0.0338 -0.0974  0.0383
 1269ERGO    R417065   2.090   7.113   8.486  0.0975 -0.3383 -0.0908
 1269ERGO    R517066   2.306   7.102   8.461  0.1186 -0.2223  0.0513
 1269ERGO    C117067   2.235   7.425   8.270  0.0447 -0.3715 -0.1768
 1269ERGO    C217068   2.173   7.679   8.221  0.1395 -0.2110 -0.0748
 1270ERGO   ROH17069  19.287  18.767   9.401 -0.1819  0.2542  0.1418
 1270ERGO    R117070  19.339  18.665   9.142 -0.1121  0.1696  0.1880
 1270ERGO    R217071  19.144  18.544   8.988 -0.0846  0.1619  0.1536
 1270ERGO    R317072  19.220  18.730   8.804  0.0151  0.0973  0.1299
 1270ERGO    R417073  19.037  18.554   8.659  0.0605  0.0826  0.1030
 1270ERGO    R517074  19.239  18.608   8.600  0.0888  0.0393  0.1740
 1270ERGO    C117075  19.046  18.735   8.296  0.2387 -0.0241  0.0512
 1270ERGO    C217076  19.032  18.900   8.036 -0.1526 -0.3325 -0.0551
 1271ERGO   ROH17077  12.261  15.719   9.248  0.1101 -0.0407  0.0275
 1271ERGO    R117078  12.283  15.563   9.013  0.0978 -0.0404  0.0262
 1271ERGO    R217079  12.104  15.585   8.803  0.0190 -0.1242  0.0850
 1271ERGO    R317080  12.329  15.627   8.657 -0.0470 -0.0345  0.0076
 1271ERGO    R417081  12.129  15.541   8.461 -0.1124 -0.0069  0.0596
 1271ERGO    R517082  12.326  15.454   8.492 -0.0826  0.0187 -0.0486
 1271ERGO    C117083  12.355  15.556   8.125 -0.2510  0.1457 -0.0279
 1271ERGO    C217084  12.300  15.403   7.763 -0.2504 -0.0325 -0.1567
 1272ERGO   ROH17085  16.343   1.156   5.647  0.0358 -0.1106 -0.0551
 1272ERGO    R117086  16.477   0.976   5.820 -0.1127 -0.1913 -0.0234
 1272ERGO    R217087  16.618   1.061   6.042  0.1463 -0.2452 -0.1656
 1272ERGO    R317088  16.457   0.884   6.171 -0.0297  0.0635  0.0507
 1272ERGO    R417089  16.693   0.910   6.344  0.1584 -0.2131 -0.1523
 1272ERGO    R517090  16.608   0.725   6.267 -0.1949 -0.1272  0.0036
 1272ERGO    C117091  16.586   0.657   6.641  0.0004  0.0954  0.0585
 1272ERGO    C217092  16.742   0.584   7.032 -0.5026  0.0178 -0.0025
 1273ERGO   ROH17093  11.031  10.839   5.766 -0.2022  0.0193  0.2850
 1273ERGO    R117094  11.113  10.595   5.883 -0.0558 -0.0427  0.0582
 1273ERGO    R217095  11.378  10.535   5.931 -0.0141  0.0336 -0.0807
 1273ERGO    R317096  11.290  10.493   6.185  0.0891 -0.2150 -0.0828
 1273ERGO    R417097  11.574  10.421   6.193  0.2131  0.2365 -0.1581
 1273ERGO    R517098  11.407  10.297   6.257  0.4182 -0.0622 -0.1818
 1273ERGO    C117099  11.605  10.315   6.583  0.4423  0.1214 -0.2051
 1273ERGO    C217100  11.769  10.103   6.711 -0.2705 -0.1914  0.3781
 1274ERGO   ROH17101   3.323   9.963   5.941  0.0418  0.1669  0.2552
 1274ERGO    R117102   3.438  10.115   6.150  0.0939  0.0288  0.3294
 1274ERGO    R217103   3.322  10.348   6.245  0.3091  0.1743  0.2564
 1274ERGO    R317104   3.340  10.221   6.485  0.0006  0.1419  0.2656
 1274ERGO    R417105   3.316  10.504   6.554  0.1213  0.1382  0.2717
 1274ERGO    R517106   3.471  10.367   6.621 -0.0345  0.0359  0.4065
 1274ERGO    C117107   3.329  10.475   6.958 -0.2776  0.0868  0.2892
 1274ERGO    C217108   3.192  10.492   7.175  0.0493  0.5190  0.1150
 1275ERGO   ROH17109  10.787   7.663   5.896  0.0745  0.0581  0.0460
 1275ERGO    R117110  10.831   7.558   6.155  0.0687  0.0965  0.0630
 1275ERGO    R217111  10.722   7.671   6.382 -0.0180  0.0724  0.0348
 1275ERGO    R317112  10.627   7.420   6.423  0.0735  0.0380  0.0365
 1275ERGO    R417113  10.669   7.529   6.693  0.0954  0.0320  0.0356
 1275ERGO    R517114  10.748   7.341   6.614  0.1403  0.0638  0.0046
 1275ERGO    C117115  10.549   7.211   6.912  0.2471 -0.0238  0.0377
 1275ERGO    C217116  10.567   7.172   7.319 -0.1619 -0.0313 -0.3526
 1276ERGO   ROH17117   6.759  17.245   5.673 -0.0441 -0.0150  0.0885
 1276ERGO    R117118   6.882  17.296   5.923  0.1521 -0.0390 -0.0033
 1276ERGO    R217119   6.742  17.296   6.161  0.3083  0.1045  0.0830
 1276ERGO    R317120   6.932  17.116   6.235  0.2429  0.0004  0.0075
 1276ERGO    R417121   6.797  17.189   6.485  0.3744  0.0818  0.0660
 1276ERGO    R517122   7.011  17.197   6.446  0.3701 -0.0340 -0.0210
 1276ERGO    C117123   7.008  16.958   6.743  0.3514 -0.0293 -0.0146
 1276ERGO    C217124   7.065  16.840   7.097  0.2295  0.0253  0.0306
 1277ERGO   ROH17125  13.978   3.707   8.657 -0.2391  0.3070 -0.0133
 1277ERGO    R117126  13.983   3.878   8.431 -0.1536  0.2232 -0.0765
 1277ERGO    R217127  14.163   4.086   8.406 -0.1014  0.1768 -0.1156
 1277ERGO    R317128  14.221   3.964   8.170 -0.0776  0.0738 -0.0567
 1277ERGO    R417129  14.324   4.236   8.139 -0.0889  0.0600 -0.1739
 1277ERGO    R517130  14.187   4.134   8.005 -0.0719 -0.0056 -0.1368
 1277ERGO    C117131  14.471   4.209   7.762 -0.0593 -0.1047 -0.1525
 1277ERGO    C217132  14.738   4.124   7.570  0.2547  0.0390  0.0894
 1278ERGO   ROH17133   3.849   5.623   5.614 -0.0697  0.0505  0.0016
 1278ERGO    R117134   3.910   5.722   5.873  0.0282  0.1067 -0.0420
 1278ERGO    R217135   3.898   5.564   6.099 -0.0081  0.1867  0.0130
 1278ERGO    R317136   4.154   5.651   6.133  0.0420  0.0713 -0.0647
 1278ERGO    R417137   4.070   5.559   6.399  0.0551  0.1774 -0.0234
 1278ERGO    R517138   4.153   5.755   6.349  0.1395  0.1254 -0.0898
 1278ERGO    C117139   4.410   5.638   6.605  0.1391  0.0638 -0.1176
 1278ERGO    C217140   4.604   5.777   6.805 -0.1987  0.0392  0.3035
 1279ERGO   ROH17141   7.425   0.176   5.629 -0.1345 -0.0120  0.2881
 1279ERGO    R117142   7.618   0.011   5.753 -0.0180 -0.0067  0.1178
 1279ERGO    R217143   7.867   0.103   5.827 -0.0352  0.0606  0.1061
 1279ERGO    R317144   7.796   0.003   6.070  0.0799 -0.1366  0.0597
 1279ERGO    R417145   8.085  -0.045   6.052  0.1375  0.2132  0.0416
 1279ERGO    R517146   7.931  -0.193   6.095  0.3127  0.0103 -0.0271
 1279ERGO    C117147   8.144  -0.226   6.410  0.3461  0.1171 -0.0396
 1279ERGO    C217148   8.452  -0.273   6.601  0.0366 -0.0007  0.0450
 1280ERGO   ROH17149  14.633   8.184   9.205 -0.2638  0.2737  0.1720
 1280ERGO    R117150  14.535   8.072   8.964  0.0170  0.1120  0.1284
 1280ERGO    R217151  14.362   8.208   8.797 -0.0852 -0.1416  0.0244
 1280ERGO    R317152  14.551   8.153   8.610  0.0947  0.1003  0.1294
 1280ERGO    R417153  14.317   8.239   8.456  0.0899 -0.1345  0.0005
 1280ERGO    R517154  14.429   8.053   8.429  0.3143 -0.0076  0.0355
 1280ERGO    C117155  14.468   8.204   8.081  0.3608  0.0967  0.0850
 1280ERGO    C217156  14.384   8.199   7.806 -0.0308  0.0251 -0.1626
 1281ERGO   ROH17157  18.997   4.656   9.190 -0.0383  0.0439  0.0924
 1281ERGO    R117158  18.980   4.769   8.932 -0.1564  0.0264  0.0914
 1281ERGO    R217159  19.194   4.773   8.757 -0.1928  0.1424  0.0464
 1281ERGO    R317160  19.017   4.653   8.589 -0.1606  0.0352  0.0883
 1281ERGO    R417161  19.173   4.833   8.417 -0.1652 -0.0342  0.0124
 1281ERGO    R517162  18.956   4.827   8.434 -0.1654 -0.0514 -0.0072
 1281ERGO    C117163  18.995   4.757   8.061 -0.1188 -0.2377  0.0319
 1281ERGO    C217164  19.207   4.758   7.760 -0.1925  0.2568  0.1343
 1282ERGO   ROH17165   1.767  17.025   9.189  0.1838  0.1469  0.0539
 1282ERGO    R117166   1.702  16.979   8.917  0.1509  0.2217  0.0487
 1282ERGO    R217167   1.562  16.756   8.833  0.2318  0.1898 -0.0084
 1282ERGO    R317168   1.398  16.941   8.720  0.1280  0.1629  0.0964
 1282ERGO    R417169   1.395  16.715   8.533  0.0840  0.1896  0.0730
 1282ERGO    R517170   1.441  16.923   8.485  0.0081  0.2033  0.0731
 1282ERGO    C117171   1.144  16.865   8.253 -0.0996  0.1642  0.2189
 1282ERGO    C217172   1.130  16.773   7.931 -0.3782 -0.1246  0.1165
 1283ERGO   ROH17173  10.611   1.205   9.105  0.0951  0.2997 -0.0721
 1283ERGO    R117174  10.485   1.236   8.853  0.0681  0.2141 -0.0686
 1283ERGO    R217175  10.480   1.477   8.718  0.0832  0.1561 -0.1628
 1283ERGO    R317176  10.587   1.330   8.517  0.0349  0.0644 -0.1236
 1283ERGO    R417177  10.464   1.561   8.383  0.1110  0.0876 -0.1817
 1283ERGO    R517178  10.430   1.350   8.338  0.0354  0.0803 -0.1297
 1283ERGO    C117179  10.557   1.472   7.999  0.0818 -0.0382 -0.1558
 1283ERGO    C217180  10.593   1.574   7.723 -0.2239 -0.0216 -0.1535
 1284ERGO   ROH17181   0.147   3.751   5.465  0.4222  0.2131  0.1814
 1284ERGO    R117182   0.229   3.697   5.730  0.2052  0.1294  0.2332
 1284ERGO    R217183   0.050   3.638   5.932  0.0549 -0.1974  0.0096
 1284ERGO    R317184   0.206   3.417   5.962  0.2645 -0.0510  0.0274
 1284ERGO    R417185   0.178   3.525   6.233  0.0714 -0.1028  0.0387
 1284ERGO    R517186   0.365   3.479   6.131  0.1550  0.0914  0.0861
 1284ERGO    C117187   0.399   3.252   6.436  0.2778  0.0897  0.0724
 1284ERGO    C217188   0.613   3.198   6.587  0.1537  0.0226 -0.2626
 1285ERGO   ROH17189   2.658   9.596   9.354 -0.0503 -0.1759  0.0454
 1285ERGO    R117190   2.534   9.682   9.115 -0.1598 -0.2051  0.0906
 1285ERGO    R217191   2.673   9.805   8.910 -0.3341  0.2177  0.2128
 1285ERGO    R317192   2.564   9.608   8.760  0.0523  0.1308  0.0340
 1285ERGO    R417193   2.577   9.839   8.580 -0.3813  0.3209  0.2375
 1285ERGO    R517194   2.400   9.719   8.625 -0.1589 -0.0622  0.1258
 1285ERGO    C117195   2.417   9.674   8.247 -0.0461  0.2994  0.0840
 1285ERGO    C217196   2.364   9.470   7.946 -0.1175 -0.0022  0.0903
 1286ERGO   ROH17197  13.901  17.132   9.688  0.1381  0.2560  0.0308
 1286ERGO    R117198  13.882  17.167   9.408  0.1257  0.1907  0.0236
 1286ERGO    R217199  14.084  17.280   9.259  0.2283 -0.0834 -0.0495
 1286ERGO    R317200  14.062  17.051   9.114 -0.0582 -0.1064  0.0237
 1286ERGO    R417201  14.190  17.242   8.932  0.3697 -0.3733  0.0268
 1286ERGO    R517202  14.010  17.125   8.892  0.1967 -0.0970 -0.0372
 1286ERGO    C117203  14.231  17.004   8.606  0.1832 -0.5638  0.1399
 1286ERGO    C217204  14.480  17.016   8.234 -0.0389 -0.3175  0.1856
 1287ERGO   ROH17205   7.359  16.849   9.357 -0.1018 -0.0380  0.0457
 1287ERGO    R117206   7.337  16.996   9.117 -0.1736 -0.1398 -0.0124
 1287ERGO    R217207   7.536  17.166   9.027 -0.3388  0.0918  0.0292
 1287ERGO    R317208   7.518  17.016   8.802 -0.0405 -0.0132  0.0732
 1287ERGO    R417209   7.626  17.273   8.712 -0.3467  0.0899  0.0276
 1287ERGO    R517210   7.451  17.171   8.632 -0.1731 -0.1703 -0.0127
 1287ERGO    C117211   7.662  17.195   8.315 -0.0713 -0.0098  0.0679
 1287ERGO    C217212   7.669  17.251   7.980 -0.1164  0.0063 -0.1236
 1288ERGO   ROH17213  16.100  18.605   9.106  0.1621 -0.1071  0.0364
 1288ERGO    R117214  16.223  18.663   8.857 -0.0003  0.0036 -0.0186
 1288ERGO    R217215  16.424  18.507   8.751  0.3056  0.3522  0.0410
 1288ERGO    R317216  16.259  18.498   8.535  0.2822 -0.1142  0.0690
 1288ERGO    R417217  16.528  18.537   8.423  0.1867  0.6262  0.0247
 1288ERGO    R517218  16.351  18.659   8.383 -0.1755  0.1491  0.0463
 1288ERGO    C117219  16.434  18.545   8.029  0.0955  0.3478  0.0414
 1288ERGO    C217220  16.548  18.367   7.692 -0.0528  0.3773  0.0750
 1289ERGO   ROH17221   0.159  14.835   6.285 -0.1866  0.0228  0.0637
 1289ERGO    R117222   0.130  14.718   6.540  0.0138  0.0617  0.1052
 1289ERGO    R217223   0.337  14.706   6.724  0.1182  0.2118 -0.0053
 1289ERGO    R317224   0.157  14.828   6.886  0.1409  0.1486  0.0693
 1289ERGO    R417225   0.346  14.699   7.069  0.2933  0.2542 -0.0073
 1289ERGO    R517226   0.130  14.676   7.069  0.3009  0.1545  0.1017
 1289ERGO    C117227   0.182  14.810   7.423  0.4165  0.2196  0.0617
 1289ERGO    C217228   0.034  14.772   7.712  0.0066  0.0013  0.1149
 1290ERGO   ROH17229  17.987  10.067   5.653 -0.0024  0.4106 -0.0156
 1290ERGO    R117230  17.930  10.025   5.927  0.1445  0.2646 -0.0058
 1290ERGO    R217231  17.798  10.211   6.082  0.1872  0.1637  0.1542
 1290ERGO    R317232  17.632  10.002   6.135  0.2534  0.1067  0.1367
 1290ERGO    R417233  17.560  10.206   6.333  0.0461  0.1517  0.0207
 1290ERGO    R517234  17.614   9.999   6.374  0.1192  0.1903  0.1295
 1290ERGO    C117235  17.265  10.008   6.528  0.0258  0.0912 -0.0734
 1290ERGO    C217236  16.905   9.950   6.644  0.2084 -0.0081  0.0054
 1291ERGO   ROH17237   5.690   7.262   5.609 -0.0489 -0.0328 -0.1117
 1291ERGO    R117238   5.641   7.241   5.887 -0.0457  0.0285 -0.1074
 1291ERGO    R217239   5.475   7.049   5.995  0.1053 -0.0642 -0.0497
 1291ERGO    R317240   5.693   6.991   6.147  0.1422  0.1632 -0.0105
 1291ERGO    R417241   5.465   6.904   6.309  0.1906 -0.1114 -0.0678
 1291ERGO    R517242   5.624   7.039   6.371  0.0328  0.0659 -0.0175
 1291ERGO    C117243   5.664   6.765   6.633  0.2749  0.0746 -0.0416
 1291ERGO    C217244   5.838   6.559   6.905 -0.2425 -0.0354  0.0883
 1292ERGO   ROH17245   9.459   0.970   9.231 -0.1811  0.0096 -0.0513
 1292ERGO    R117246   9.585   1.081   9.003 -0.1871  0.0932 -0.0145
 1292ERGO    R217247   9.634   0.935   8.774 -0.0090  0.1196  0.0027
 1292ERGO    R317248   9.498   1.138   8.655 -0.1182  0.0200 -0.0432
 1292ERGO    R417249   9.636   1.001   8.435  0.0795  0.1422  0.0076
 1292ERGO    R517250   9.645   1.214   8.481 -0.1067  0.1457  0.0230
 1292ERGO    C117251   9.509   1.230   8.125  0.0286  0.0619 -0.0328
 1292ERGO    C217252   9.461   1.235   7.773 -0.2517 -0.3257  0.0419
 1293ERGO   ROH17253  18.876  17.912   6.190 -0.0163  0.1188 -0.0577
 1293ERGO    R117254  18.988  17.915   6.450 -0.0127  0.3753 -0.0589
 1293ERGO    R217255  18.879  18.063   6.658 -0.3860  0.0954 -0.0406
 1293ERGO    R317256  18.880  17.823   6.785  0.2151  0.0700 -0.0670
 1293ERGO    R417257  18.966  18.014   6.989 -0.2163  0.2578 -0.0601
 1293ERGO    R517258  19.070  17.833   6.931  0.2197  0.5099 -0.0947
 1293ERGO    C117259  19.017  17.761   7.301  0.4466  0.3283 -0.0962
 1293ERGO    C217260  18.817  17.584   7.430  0.0236 -0.1938 -0.0281
 1294ERGO   ROH17261  12.290  16.685   6.152 -0.1707 -0.0275  0.2535
 1294ERGO    R117262  12.437  16.545   6.350 -0.0497 -0.0161  0.1742
 1294ERGO    R217263  12.467  16.640   6.609  0.1125  0.0028  0.1546
 1294ERGO    R317264  12.368  16.396   6.674  0.1453  0.0101  0.2281
 1294ERGO    R417265  12.539  16.468   6.900  0.2943  0.0038  0.1107
 1294ERGO    R517266  12.549  16.285   6.784  0.2089  0.0038  0.1113
 1294ERGO    C117267  12.487  16.139   7.131  0.4310  0.0115  0.1542
 1294ERGO    C217268  12.445  15.798   7.360  0.1568 -0.0748  0.0377
 1295ERGO   ROH17269   1.098  11.657   6.107  0.1473 -0.0491  0.2074
 1295ERGO    R117270   1.043  11.649   6.385  0.2999  0.0150  0.2402
 1295ERGO    R217271   1.164  11.821   6.565  0.1297  0.3054  0.0876
 1295ERGO    R317272   0.908  11.878   6.634  0.0700 -0.0565  0.1822
 1295ERGO    R417273   1.070  12.036   6.818 -0.0816  0.2950  0.0195
 1295ERGO    R517274   0.913  11.897   6.873  0.1589  0.0750  0.1700
 1295ERGO    C117275   0.775  12.215   7.031 -0.2607 -0.0506  0.0687
 1295ERGO    C217276   0.655  12.528   7.071  0.3224  0.0029  0.1995
 1296ERGO   ROH17277   6.915  10.615   6.435  0.1811 -0.1900 -0.1796
 1296ERGO    R117278   7.106  10.818   6.478  0.0345 -0.0707 -0.0847
 1296ERGO    R217279   7.076  11.013   6.672 -0.0508 -0.2554  0.0882
 1296ERGO    R317280   7.321  10.926   6.752  0.0518 -0.1258 -0.0759
 1296ERGO    R417281   7.275  11.173   6.904 -0.0096 -0.1879  0.0081
 1296ERGO    R517282   7.448  11.127   6.780 -0.0531 -0.0534 -0.1058
 1296ERGO    C117283   7.621  11.185   7.115  0.1108 -0.0271 -0.1927
 1296ERGO    C217284   7.918  11.279   7.351 -0.0139  0.0286  0.1852
 1297ERGO   ROH17285  15.283   3.751   8.951  0.0479  0.1088 -0.1059
 1297ERGO    R117286  15.318   3.676   8.680  0.2070  0.1002 -0.0849
 1297ERGO    R217287  15.136   3.743   8.483  0.1511 -0.1872 -0.1380
 1297ERGO    R317288  15.355   3.848   8.361  0.0373  0.0922 -0.1095
 1297ERGO    R417289  15.213   3.703   8.148  0.3184 -0.2089 -0.0975
 1297ERGO    R517290  15.422   3.679   8.205  0.3409  0.1265 -0.0204
 1297ERGO    C117291  15.463   3.778   7.839  0.3088  0.0408 -0.0470
 1297ERGO    C217292  15.433   3.638   7.471  0.0465 -0.2122 -0.0340
 1298ERGO   ROH17293   2.138  11.795   5.777  0.1032 -0.1957 -0.2229
 1298ERGO    R117294   2.098  11.664   6.024  0.1761 -0.2589 -0.2446
 1298ERGO    R217295   2.301  11.532   6.156  0.3176  0.0522 -0.1425
 1298ERGO    R317296   2.230  11.693   6.363 -0.0403 -0.0552 -0.1747
 1298ERGO    R417297   2.253  11.426   6.482  0.1118 -0.0601 -0.2073
 1298ERGO    R517298   2.081  11.559   6.494 -0.0364 -0.2311 -0.3428
 1298ERGO    C117299   2.158  11.517   6.865 -0.3440 -0.2265 -0.2751
 1298ERGO    C217300   2.456  11.578   7.119 -0.4266 -0.3381 -0.3523
 1299ERGO   ROH17301  10.334   5.435   5.337 -0.0295 -0.1772  0.1579
 1299ERGO    R117302  10.180   5.350   5.559 -0.1258 -0.0459  0.1422
 1299ERGO    R217303  10.283   5.335   5.814 -0.1962 -0.0305  0.1719
 1299ERGO    R317304  10.071   5.493   5.875 -0.1352  0.0885  0.0788
 1299ERGO    R417305  10.093   5.309   6.102 -0.3930  0.0162  0.0482
 1299ERGO    R517306   9.915   5.345   5.982 -0.2962  0.1590 -0.0541
 1299ERGO    C117307   9.783   5.442   6.326 -0.4501  0.1551 -0.1111
 1299ERGO    C217308   9.688   5.547   6.527  0.2646 -0.0139  0.1942
 1300ERGO   ROH17309   9.302   3.954   9.125 -0.0684 -0.6377 -0.2395
 1300ERGO    R117310   9.223   3.938   8.854 -0.0020 -0.3447 -0.2825
 1300ERGO    R217311   9.161   4.162   8.703 -0.0196 -0.1732 -0.0535
 1300ERGO    R317312   9.349   4.061   8.535  0.0514  0.0559 -0.1087
 1300ERGO    R417313   9.158   4.199   8.360 -0.2510 -0.3397 -0.0689
 1300ERGO    R517314   9.224   3.992   8.342  0.0707 -0.2314 -0.0100
 1300ERGO    C117315   9.332   4.126   8.001 -0.3192 -0.2215 -0.1298
 1300ERGO    C217316   9.395   4.171   7.646  0.2043  0.2654  0.3870
 1301ERGO   ROH17317  12.342   1.927   5.693 -0.1360  0.1115  0.0926
 1301ERGO    R117318  12.265   1.882   5.961 -0.1982  0.2797  0.1053
 1301ERGO    R217319  12.431   1.759   6.144 -0.4213 -0.0685  0.0883
 1301ERGO    R317320  12.382   1.982   6.291  0.0660  0.0509  0.0840
 1301ERGO    R417321  12.452   1.777   6.489 -0.5646 -0.1592  0.1024
 1301ERGO    R517322  12.273   1.901   6.488 -0.2561  0.3048  0.0152
 1301ERGO    C117323  12.419   1.997   6.827 -0.1906 -0.1000  0.1067
 1301ERGO    C217324  12.550   2.177   7.095 -0.0076 -0.3216 -0.0857
 1302ERGO   ROH17325  17.441  19.371   5.731  0.0668 -0.3079  0.1550
 1302ERGO    R117326  17.331  19.265   5.969 -0.0201 -0.2686  0.1333
 1302ERGO    R217327  17.362  19.387   6.214  0.0552 -0.3282  0.1553
 1302ERGO    R317328  17.091  19.372   6.220  0.0430 -0.1370  0.1382
 1302ERGO    R417329  17.170  19.383   6.502  0.0287 -0.1216  0.1416
 1302ERGO    R517330  17.043  19.233   6.409 -0.0693 -0.0564  0.1699
 1302ERGO    C117331  16.804  19.367   6.675  0.0021  0.1781  0.1176
 1302ERGO    C217332  16.559  19.427   6.913  0.3155 -0.0496 -0.1692
 1303ERGO   ROH17333   4.262   9.756   5.829 -0.0135  0.0566 -0.0387
 1303ERGO    R117334   4.130   9.761   6.080 -0.0220 -0.1750 -0.0359
 1303ERGO    R217335   4.143   9.551   6.259  0.4358 -0.1222  0.0088
 1303ERGO    R317336   4.228   9.744   6.430  0.0312  0.1045 -0.0356
 1303ERGO    R417337   4.120   9.534   6.603  0.4602 -0.0826  0.0119
 1303ERGO    R517338   4.064   9.744   6.605  0.0200 -0.1905 -0.0427
 1303ERGO    C117339   4.186   9.705   6.964  0.0946  0.1532 -0.0279
 1303ERGO    C217340   4.238   9.634   7.396 -0.0401 -0.0113  0.3688
 1304ERGO   ROH17341   1.653  11.171   9.563  0.1178 -0.1051 -0.1094
 1304ERGO    R117342   1.713  11.024   9.329 -0.0651 -0.1791 -0.1116
 1304ERGO    R217343   1.517  10.937   9.154 -0.1773  0.0538 -0.1065
 1304ERGO    R317344   1.669  11.068   8.971 -0.0235 -0.1266 -0.1105
 1304ERGO    R417345   1.558  10.840   8.825  0.0466 -0.2392  0.0033
 1304ERGO    R517346   1.769  10.895   8.840  0.0462 -0.2588  0.1101
 1304ERGO    C117347   1.725  10.908   8.461  0.3214 -0.5791  0.0634
 1304ERGO    C217348   1.605  10.977   8.043  0.0210 -0.1748  0.0614
 1305ERGO   ROH17349   3.106   9.814   9.240 -0.1086  0.0332 -0.0842
 1305ERGO    R117350   3.232   9.790   8.988 -0.0611 -0.2011 -0.0405
 1305ERGO    R217351   3.291   9.546   8.873 -0.5726 -0.3224 -0.0655
 1305ERGO    R317352   3.150   9.646   8.664 -0.2708  0.0480 -0.1021
 1305ERGO    R417353   3.381   9.516   8.541 -0.3351 -0.1542 -0.0194
 1305ERGO    R517354   3.317   9.721   8.510 -0.0381 -0.0358  0.0998
 1305ERGO    C117355   3.301   9.593   8.151  0.0865  0.2915 -0.0269
 1305ERGO    C217356   3.269   9.441   7.933  0.2347  0.0237  0.2067
 1306ERGO   ROH17357  11.927  10.511   9.103  0.0561 -0.1758 -0.1457
 1306ERGO    R117358  11.830  10.663   8.884 -0.0175 -0.2103 -0.1374
 1306ERGO    R217359  11.968  10.878   8.780 -0.1881 -0.0469 -0.0347
 1306ERGO    R317360  11.942  10.741   8.547  0.0221 -0.0139 -0.0798
 1306ERGO    R417361  12.057  10.998   8.468 -0.0104  0.0371  0.0466
 1306ERGO    R517362  11.877  10.906   8.387  0.0782 -0.0093 -0.0960
 1306ERGO    C117363  12.084  10.938   8.068  0.2904  0.1169  0.0518
 1306ERGO    C217364  12.123  11.094   7.804 -0.3504  0.2371  0.3610
 1307ERGO   ROH17365  14.044   1.500   5.839  0.0217 -0.1060 -0.0431
 1307ERGO    R117366  14.034   1.630   6.090  0.1114  0.1706 -0.1808
 1307ERGO    R217367  13.884   1.857   6.133 -0.2501 -0.0546 -0.2664
 1307ERGO    R317368  13.778   1.710   6.336  0.2760 -0.0134  0.0594
 1307ERGO    R417369  13.705   1.988   6.399 -0.3668 -0.0539 -0.3430
 1307ERGO    R517370  13.808   1.848   6.530  0.1039  0.3956 -0.1803
 1307ERGO    C117371  13.502   1.926   6.743  0.0591 -0.0149 -0.0817
 1307ERGO    C217372  13.430   2.160   6.951  0.1608  0.0305  0.0920
 1308ERGO   ROH17373  13.326  16.250   6.185  0.0540 -0.1163  0.1032
 1308ERGO    R117374  13.425  16.355   6.428 -0.0169 -0.1359  0.1400
 1308ERGO    R217375  13.384  16.231   6.672  0.0845 -0.2608  0.0906
 1308ERGO    R317376  13.655  16.248   6.689  0.0747 -0.0631  0.0914
 1308ERGO    R417377  13.564  16.237   6.967  0.0710 -0.0464  0.0972
 1308ERGO    R517378  13.694  16.387   6.879 -0.0316  0.0242  0.0543
 1308ERGO    C117379  13.922  16.255   7.155  0.0540  0.2638  0.1019
 1308ERGO    C217380  14.086  16.071   7.505  0.0398 -0.1644  0.1770
 1309ERGO   ROH17381   6.629   4.892   8.394  0.0627  0.0017 -0.0561
 1309ERGO    R117382   6.668   4.984   8.129  0.1503 -0.0345 -0.0561
 1309ERGO    R217383   6.818   4.844   7.943 -0.0483 -0.2185 -0.0813
 1309ERGO    R317384   6.592   4.865   7.794 -0.0418  0.0780 -0.0537
 1309ERGO    R417385   6.811   4.862   7.598 -0.0633 -0.1761 -0.0785
 1309ERGO    R517386   6.653   5.012   7.615  0.1226  0.0213 -0.0459
 1309ERGO    C117387   6.595   4.893   7.257 -0.0658  0.1268 -0.0509
 1309ERGO    C217388   6.418   4.830   7.023  0.2063  0.1268  0.1519
 1310ERGO   ROH17389   1.839  18.217   9.149  0.0419  0.0715  0.0812
 1310ERGO    R117390   1.997  18.351   8.956  0.0291 -0.0559 -0.0194
 1310ERGO    R217391   2.000  18.279   8.690 -0.2504 -0.0175 -0.0344
 1310ERGO    R317392   1.938  18.541   8.651 -0.0177  0.0535  0.0570
 1310ERGO    R417393   1.999  18.440   8.383 -0.1805  0.0702  0.0106
 1310ERGO    R517394   2.088  18.614   8.480  0.0072 -0.0379  0.0389
 1310ERGO    C117395   1.940  18.779   8.169  0.0786  0.1877  0.1226
 1310ERGO    C217396   1.959  18.897   7.788  0.0454 -0.0591 -0.1840
 1311ERGO   ROH17397  11.215   1.826   9.191 -0.3211 -0.2152 -0.0675
 1311ERGO    R117398  11.369   1.876   8.959 -0.2783  0.0615  0.0175
 1311ERGO    R217399  11.469   1.673   8.800  0.0485  0.2396 -0.0129
 1311ERGO    R317400  11.340   1.809   8.603 -0.0364  0.1497 -0.0207
 1311ERGO    R417401  11.504   1.613   8.461 -0.0451  0.1322 -0.0045
 1311ERGO    R517402  11.502   1.828   8.427 -0.0939  0.1200 -0.0769
 1311ERGO    C117403  11.404   1.705   8.080 -0.1792 -0.0148 -0.0069
 1311ERGO    C217404  11.436   1.708   7.748 -0.1862 -0.3546 -0.0658
 1312ERGO   ROH17405  10.086  14.348   9.069  0.0089 -0.0108 -0.0669
 1312ERGO    R117406  10.097  14.355   8.786 -0.0151 -0.0152 -0.0687
 1312ERGO    R217407  10.163  14.584   8.646  0.1244 -0.0525 -0.0751
 1312ERGO    R317408  10.351  14.423   8.534  0.0063 -0.1798 -0.0898
 1312ERGO    R417409  10.303  14.631   8.333  0.3238 -0.0102  0.0189
 1312ERGO    R517410  10.292  14.416   8.302  0.1108  0.0244 -0.1200
 1312ERGO    C117411  10.560  14.506   8.046  0.3293 -0.1050  0.0598
 1312ERGO    C217412  10.800  14.755   7.811  0.0359  0.2241 -0.0923
 1313ERGO   ROH17413  11.634  14.834   9.435 -0.1155  0.3780  0.0596
 1313ERGO    R117414  11.545  14.691   9.207 -0.0468  0.2437  0.1152
 1313ERGO    R217415  11.398  14.810   9.005 -0.0566  0.1071  0.0384
 1313ERGO    R317416  11.595  14.710   8.847 -0.0067  0.0879  0.1124
 1313ERGO    R417417  11.419  14.855   8.663  0.0604  0.0698  0.0403
 1313ERGO    R517418  11.483  14.648   8.645  0.0620  0.0694  0.0823
 1313ERGO    C117419  11.616  14.787   8.316  0.1751  0.0301  0.1110
 1313ERGO    C217420  11.471  14.844   8.004  0.0483 -0.1681 -0.2156
 1314ERGO   ROH17421   0.861  16.626   6.045  0.0995 -0.1299  0.0732
 1314ERGO    R117422   0.723  16.545   6.279  0.1206 -0.1807  0.0699
 1314ERGO    R217423   0.844  16.399   6.480  0.2025 -0.0431  0.1317
 1314ERGO    R317424   0.755  16.602   6.637  0.0202 -0.0675  0.0596
 1314ERGO    R417425   0.863  16.404   6.825  0.2165  0.1165  0.1283
 1314ERGO    R517426   0.663  16.492   6.829  0.1379 -0.0733  0.1065
 1314ERGO    C117427   0.790  16.597   7.174  0.0535  0.1864  0.0586
 1314ERGO    C217428   0.881  16.696   7.499  0.0834  0.1825  0.3462
 1315ERGO   ROH17429   7.607  16.404   9.159 -0.0230 -0.4201  0.0541
 1315ERGO    R117430   7.564  16.579   8.941 -0.1534 -0.3345  0.1461
 1315ERGO    R217431   7.766  16.652   8.767 -0.2048 -0.0909  0.1807
 1315ERGO    R317432   7.592  16.562   8.579 -0.1391 -0.1235  0.1365
 1315ERGO    R417433   7.755  16.761   8.439 -0.0981 -0.1462  0.1591
 1315ERGO    R517434   7.538  16.756   8.449 -0.0994 -0.1480  0.0860
 1315ERGO    C117435   7.586  16.739   8.071  0.0258 -0.2092  0.1051
 1315ERGO    C217436   7.527  16.789   7.684  0.2619  0.2309  0.1603
 1316ERGO   ROH17437   4.378  13.341   5.405 -0.0206 -0.1985 -0.1244
 1316ERGO    R117438   4.275  13.419   5.657 -0.0748 -0.1284 -0.1670
 1316ERGO    R217439   4.052  13.579   5.684 -0.0882 -0.1248 -0.2581
 1316ERGO    R317440   3.965  13.376   5.842 -0.1117 -0.0849 -0.2208
 1316ERGO    R417441   3.789  13.602   5.907 -0.0244 -0.0338 -0.1917
 1316ERGO    R517442   3.905  13.483   6.048 -0.0280 -0.0563 -0.2147
 1316ERGO    C117443   3.554  13.424   6.185 -0.0093  0.0567 -0.1181
 1316ERGO    C217444   3.252  13.422   6.392 -0.1008 -0.1753 -0.1144
 1317ERGO   ROH17445  15.845   0.185   5.694  0.0837 -0.1730  0.0732
 1317ERGO    R117446  15.752   0.108   5.950 -0.0102  0.0922  0.1216
 1317ERGO    R217447  15.863  -0.101   6.091 -0.4113 -0.1137  0.1406
 1317ERGO    R317448  15.889   0.087   6.286  0.0478 -0.1113  0.0873
 1317ERGO    R417449  15.903  -0.170   6.428 -0.5446 -0.1238  0.1552
 1317ERGO    R517450  15.769  -0.004   6.472 -0.1589  0.2151  0.1232
 1317ERGO    C117451  15.951  -0.034   6.806 -0.1914 -0.1275  0.1137
 1317ERGO    C217452  16.027  -0.098   7.158 -0.0375  0.1704 -0.1532
 1318ERGO   ROH17453  10.730  11.615   6.041  0.0676  0.0512  0.0235
 1318ERGO    R117454  10.716  11.580   6.321 -0.0206 -0.1255 -0.0022
 1318ERGO    R217455  10.594  11.361   6.438  0.1409 -0.3170 -0.1824
 1318ERGO    R317456  10.834  11.334   6.562  0.1159 -0.1527 -0.0963
 1318ERGO    R417457  10.643  11.200   6.740  0.0924  0.0528  0.0278
 1318ERGO    R517458  10.783  11.357   6.795  0.0696  0.1276 -0.1334
 1318ERGO    C117459  10.897  11.082   7.033  0.0406  0.4222  0.2310
 1318ERGO    C217460  11.108  10.966   7.179  0.3485  0.0987 -0.2162
 1319ERGO   ROH17461   0.418  10.959   9.493 -0.1732  0.0520 -0.0891
 1319ERGO    R117462   0.399  11.112   9.256 -0.1109  0.0809 -0.0746
 1319ERGO    R217463   0.622  11.209   9.123 -0.0776  0.0748 -0.0161
 1319ERGO    R317464   0.512  11.080   8.911 -0.0450  0.1129 -0.0574
 1319ERGO    R417465   0.666  11.299   8.792  0.2130 -0.0302 -0.0089
 1319ERGO    R517466   0.456  11.254   8.757  0.1942  0.1291 -0.1348
 1319ERGO    C117467   0.588  11.229   8.400  0.4128 -0.0556 -0.0436
 1319ERGO    C217468   0.520  11.197   7.985  0.0085 -0.1650  0.0750
 1320ERGO   ROH17469  18.824  13.877   9.224  0.0991  0.1992  0.0676
 1320ERGO    R117470  18.716  13.840   8.965 -0.0010  0.0923  0.1238
 1320ERGO    R217471  18.502  13.986   8.871 -0.0089  0.0845  0.1314
 1320ERGO    R317472  18.671  14.042   8.666 -0.0731 -0.0442  0.0410
 1320ERGO    R417473  18.414  13.984   8.537 -0.1695  0.0820  0.1725
 1320ERGO    R517474  18.606  13.891   8.492 -0.2429 -0.0352  0.0944
 1320ERGO    C117475  18.522  14.036   8.150 -0.3232 -0.0402  0.1115
 1320ERGO    C217476  18.498  14.020   7.867  0.1730  0.3003 -0.0549
 1321ERGO   ROH17477   9.846  18.965   5.816 -0.1118 -0.0021 -0.0433
 1321ERGO    R117478   9.695  19.171   5.938 -0.1262 -0.1490  0.1934
 1321ERGO    R217479   9.727  19.242   6.204  0.2807 -0.0674  0.1317
 1321ERGO    R317480   9.765  19.490   6.099 -0.1842 -0.0409  0.0055
 1321ERGO    R417481   9.792  19.527   6.388  0.2133  0.0644 -0.0459
 1321ERGO    R517482   9.660  19.638   6.255 -0.1289 -0.1309  0.1252
 1321ERGO    C117483   9.865  19.926   6.397 -0.2622  0.1658 -0.2677
 1321ERGO    C217484  10.051  20.022   6.635  0.1070 -0.0238  0.1992
 1322ERGO   ROH17485   4.650   9.400   5.810  0.4087  0.0115 -0.0132
 1322ERGO    R117486   4.570   9.405   6.081  0.1760  0.2337 -0.0820
 1322ERGO    R217487   4.692   9.251   6.276 -0.2759  0.0521  0.0735
 1322ERGO    R317488   4.722   9.490   6.400  0.0607  0.0375  0.0265
 1322ERGO    R417489   4.659   9.302   6.616 -0.0665  0.1457  0.0803
 1322ERGO    R517490   4.557   9.489   6.573  0.1346  0.2604  0.0995
 1322ERGO    C117491   4.669   9.557   6.931  0.3714  0.1864  0.0402
 1322ERGO    C217492   4.667   9.508   7.245  0.0468 -0.0345  0.2865
 1323ERGO   ROH17493   7.822   4.330   8.867  0.2664 -0.0181 -0.0623
 1323ERGO    R117494   7.907   4.327   8.597  0.1988 -0.0349 -0.0836
 1323ERGO    R217495   7.826   4.133   8.418  0.0999 -0.0085 -0.0692
 1323ERGO    R317496   7.748   4.347   8.270  0.1228  0.0175 -0.0437
 1323ERGO    R417497   7.697   4.115   8.098  0.1142  0.0456 -0.0780
 1323ERGO    R517498   7.814   4.292   8.046  0.1293  0.0438 -0.0479
 1323ERGO    C117499   7.549   4.306   7.773  0.1439  0.1015 -0.0592
 1323ERGO    C217500   7.628   4.325   7.325  0.0593 -0.2020  0.0086
 1324ERGO   ROH17501  17.836  16.555   9.772 -0.2243  0.0815  0.0265
 1324ERGO    R117502  17.763  16.396   9.550 -0.1613  0.0222  0.0468
 1324ERGO    R217503  17.561  16.467   9.376 -0.0979 -0.0096 -0.0485
 1324ERGO    R317504  17.755  16.436   9.188 -0.0310 -0.0798  0.0333
 1324ERGO    R417505  17.505  16.434   9.036  0.0421  0.0184 -0.0741
 1324ERGO    R517506  17.661  16.283   9.029 -0.0165 -0.0375 -0.0104
 1324ERGO    C117507  17.654  16.386   8.662  0.1863 -0.0313 -0.0123
 1324ERGO    C217508  17.747  16.286   8.308  0.0950  0.0323 -0.1154
 1325W        W17509   2.200  18.058   5.291 -0.0395  0.1203 -0.0898
 1326W        W17510   5.143   3.488   1.858 -0.0869 -0.0591 -0.0462
 1327W        W17511   6.505   3.006  12.909 -0.0924 -0.1582 -0.0461
 1328W        W17512  11.695  15.016   4.042 -0.0008  0.0826 -0.0663
 1329W        W17513   1.793  15.115  11.147 -0.2577 -0.1880 -0.1434
 1330W        W17514  10.105   3.711  10.273  0.0111 -0.0088 -0.2859
 1331W        W17515  12.209  15.187   3.617 -0.3226  0.2391 -0.2538
 1332W        W17516  18.470   8.053  10.037 -0.0500  0.1290  0.0265
 1333W        W17517   6.975  16.711  14.373 -0.0231 -0.0725  0.0118
 1334W        W17518  18.990  11.585  14.031  0.0005  0.1729 -0.0787
 1335W        W17519  13.465   7.310   0.391  0.0261 -0.3340  0.1760
 1336W        W17520  14.399   0.454   3.404 -0.0580  0.3868 -0.4057
 1337W        W17521   8.740  17.348   0.652  0.1824  0.0563 -0.3049
 1338W        W17522  16.806   1.981  14.782  0.0359  0.1301 -0.2955
 1339W        W17523   8.002   2.099   1.970 -0.2024 -0.2765  0.3637
 1340W        W17524  18.906  11.470   4.168  0.1040 -0.2193  0.4785
 1341W        W17525  15.912   5.183   4.156 -0.1519  0.1576  0.0078
 1342W        W17526  14.818   6.923   0.398  0.0021  0.2277 -0.0709
 1343W        W17527   4.467   3.566   3.178  0.1225  0.1057 -0.1356
 1344W        W17528   9.103  18.981   3.776 -0.1655  0.2017 -0.2815
 1345W        W17529   2.860   6.597   1.184  0.0646 -0.1388  0.0949
 1346W        W17530  12.469  13.051   1.191 -0.0068  0.1455 -0.0311
 1347W        W17531  10.055  18.468  12.290  0.2611  0.0493 -0.2460
 1348W        W17532   7.347   7.298  12.375  0.1134 -0.1616 -0.0002
 1349W        W17533   8.065  11.428   9.478  0.4663  0.2120 -0.0322
 1350W        W17534  14.638   7.558   3.369 -0.1180  0.0663 -0.2358
 1351W        W17535  19.021  12.354   0.276  0.3038 -0.2311 -0.0497
 1352W        W17536   9.231  11.287  12.837  0.0216  0.2206 -0.1913
 1353W        W17537  12.796  18.797   3.887 -0.2673 -0.3507 -0.4583
 1354W        W17538  11.926  14.649   0.119 -0.3835 -0.1206 -0.3031
 1355W        W17539  17.234   2.482   2.744 -0.1909  0.0438 -0.1888
 1356W        W17540   9.820  12.219  13.120  0.2803  0.0454  0.0701
 1357W        W17541   7.243  16.573  10.560 -0.0367 -0.0301 -0.0281
 1358W        W17542   6.170   4.413   3.499  0.3166 -0.0135 -0.0027
 1359W        W17543   4.733  19.367   0.103 -0.2748 -0.0449  0.0328
 1360W        W17544  12.764  14.218  10.409 -0.2510  0.1534 -0.0220
 1361W        W17545  16.418   9.338  12.280 -0.2841 -0.1617 -0.2375
 1362W        W17546  13.377  13.751   3.581 -0.1504  0.0300 -0.2091
 1363W        W17547   4.541  11.220   1.251  0.2504 -0.1194  0.0024
 1364W        W17548  14.250  12.110   3.600 -0.2719  0.0591 -0.2648
 1365W        W17549   3.417   9.145  11.100 -0.0733 -0.1262 -0.0930
 1366W        W17550   0.449  15.439  10.011 -0.1495  0.1738  0.2051
 1367W        W17551  10.208   6.567  14.752  0.1858  0.0257 -0.2458
 1368W        W17552  15.423   9.176  10.518  0.0838 -0.1553  0.1512
 1369W        W17553  17.885   6.650   3.980 -0.1088 -0.2388 -0.5111
 1370W        W17554   9.080  13.129  11.242 -0.0475 -0.2856 -0.2029
 1371W        W17555   7.511  11.389   3.036 -0.2003  0.1441  0.0085
 1372W        W17556   3.214  12.079   9.195  0.0267 -0.0350  0.0234
 1373W        W17557   1.937   6.762  12.781  0.1403  0.1522 -0.2729
 1374W        W17558  16.170  19.323  14.235 -0.1560  0.0395  0.1605
 1375W        W17559   7.791   1.938   0.637 -0.0441  0.1508  0.0689
 1376W        W17560  12.024   2.831   3.774  0.1111 -0.1588 -0.2699
 1377W        W17561   5.913   9.576   2.687 -0.0188 -0.1102 -0.1743
 1378W        W17562  15.043   9.471   0.752 -0.2849 -0.1709 -0.0663
 1379W        W17563   0.915   5.636   0.414 -0.3539 -0.1376  0.0903
 1380W        W17564   4.983   4.205  11.379 -0.3130  0.2261  0.3971
 1381W        W17565   7.075   7.543  10.221  0.1059  0.0150  0.2576
 1382W        W17566  13.553  14.332  12.561  0.0902 -0.4312 -0.2632
 1383W        W17567   4.554  10.330  12.940  0.0879 -0.4715 -0.0520
 1384W        W17568   1.991   6.590   0.953  0.1729 -0.1977  0.1294
 1385W        W17569   2.865   4.252   4.175  0.3255  0.3066 -0.1047
 1386W        W17570  16.468   1.890   2.181  0.2339 -0.3820  0.0789
 1387W        W17571  15.353  12.944  14.645 -0.0132 -0.2469 -0.3071
 1388W        W17572   1.661  14.137  14.445  0.1237  0.0536  0.0833
 1389W        W17573  14.489   4.119   1.679 -0.2516 -0.0979  0.0339
 1390W        W17574   0.507   0.679  12.038  0.1343  0.0804 -0.2687
 1391W        W17575   6.167  19.036  13.348  0.0106  0.0879  0.0218
 1392W        W17576  18.099   3.478  13.104 -0.1873 -0.1613  0.2582
 1393W        W17577  11.747   0.210  14.051  0.3285 -0.0472 -0.0160
 1394W        W17578  11.979   4.053  14.516 -0.2690  0.3391 -0.3398
 1395W        W17579   9.592  15.501  12.722 -0.2302 -0.0708 -0.1146
 1396W        W17580  10.602  17.185  11.292 -0.3324 -0.0181 -0.3035
 1397W        W17581  14.953   1.542  12.754 -0.0449  0.0215  0.1878
 1398W        W17582   6.490   2.876   4.106  0.0277  0.0191  0.1585
 1399W        W17583   9.543   7.074  13.448 -0.0682  0.2783  0.0778
 1400W        W17584  11.091  12.576   5.487 -0.1464 -0.2944 -0.1772
 1401W        W17585  10.029   8.217   1.421 -0.2225  0.0734 -0.3327
 1402W        W17586   8.702   3.090   4.733  0.0979 -0.0936 -0.2108
 1403W        W17587  12.425   9.553   3.470 -0.1855  0.1440  0.3757
 1404W        W17588  18.631   8.727   0.113  0.4419  0.0463 -0.2451
 1405W        W17589  15.325   0.157  11.297  0.0382  0.1421 -0.0297
 1406W        W17590   3.605   6.799   3.111  0.0614 -0.0950 -0.1044
 1407W        W17591   8.340  17.042   2.249 -0.2697  0.3150  0.2843
 1408W        W17592   0.772   9.178  13.170  0.1535  0.0939  0.1164
 1409W        W17593  18.684   3.289   2.516  0.2668  0.2134  0.2388
 1410W        W17594  19.259   6.745   2.413  0.2922  0.2345  0.3991
 1411W        W17595   2.531   6.820  12.351  0.3891 -0.0559 -0.0446
 1412W        W17596  10.849  10.796   2.793 -0.1793 -0.0250 -0.3302
 1413W        W17597   0.998   1.008   2.717 -0.3193 -0.2801  0.0936
 1414W        W17598  14.146   3.290   4.732  0.0570 -0.2330  0.1226
 1415W        W17599   5.797  14.562  14.879 -0.0896 -0.0242 -0.1029
 1416W        W17600  17.185  17.718   2.699  0.0282 -0.1013  0.0433
 1417W        W17601  12.327   0.253   9.872  0.1968 -0.0749 -0.0697
 1418W        W17602   7.751  12.463   3.195  0.2425  0.2743  0.2546
 1419W        W17603  12.036  13.485  14.973  0.0147 -0.0328  0.0418
 1420W        W17604   6.723  16.587  12.376 -0.2042 -0.1611 -0.1392
 1421W        W17605   4.478   4.365   0.662 -0.1015 -0.2281 -0.0705
 1422W        W17606  13.380  15.012   0.881 -0.2475 -0.0490 -0.2476
 1423W        W17607  18.699   5.330   0.099  0.1971 -0.1920  0.0005
 1424W        W17608  17.371  12.682  11.716  0.0693 -0.3061  0.2416
 1425W        W17609  15.770  15.346  13.671 -0.0687  0.2302 -0.0278
 1426W        W17610  13.135  16.469  13.903  0.0344 -0.0423 -0.2545
 1427W        W17611   0.418   4.147   2.647  0.2279 -0.1236 -0.2007
 1428W        W17612   1.794  18.995  14.065 -0.2893  0.2363  0.0734
 1429W        W17613   5.856   8.556  11.670  0.1728  0.0335 -0.0103
 1430W        W17614   1.329   1.015  13.688  0.0089  0.0485  0.0902
 1431W        W17615   7.410   0.280  13.862  0.0598 -0.1301  0.1573
 1432W        W17616  16.191  10.665   1.011 -0.2933  0.0100  0.2144
 1433W        W17617   2.128  12.836   2.535  0.0608 -0.0261  0.1288
 1434W        W17618   3.552   9.352  11.960 -0.0642 -0.0151  0.1597
 1435W        W17619   6.405  17.674  13.095 -0.1821  0.0032 -0.1816
 1436W        W17620   3.335  13.287  10.301 -0.2613  0.2628 -0.0989
 1437W        W17621  11.219  17.098   4.996  0.0509  0.2242 -0.0058
 1438W        W17622   4.095   3.802  10.121  0.1256 -0.0435 -0.2893
 1439W        W17623  14.627   8.177   1.700 -0.2861  0.3818  0.1631
 1440W        W17624  18.819   7.655  13.263  0.0634 -0.1583 -0.0660
 1441W        W17625  10.344  11.773  10.905  0.2983  0.2711 -0.0015
 1442W        W17626  13.101  18.222   3.517 -0.2243  0.0004 -0.1208
 1443W        W17627  17.486  13.040   2.683 -0.0423  0.0444  0.4608
 1444W        W17628   5.258  10.639   4.562  0.1510  0.0922 -0.1952
 1445W        W17629   6.262   5.391  11.776  0.1328  0.2957  0.2018
 1446W        W17630   4.085   0.065  10.171  0.0393  0.2464 -0.1415
 1447W        W17631  16.900  18.775  13.992 -0.0686 -0.0424 -0.0597
 1448W        W17632   4.413  18.312   0.095  0.0878  0.1720  0.0961
 1449W        W17633   6.753  10.111  14.002 -0.0471 -0.1086  0.3607
 1450W        W17634  18.489  17.773  12.883  0.1516 -0.0270  0.0863
 1451W        W17635   6.504   0.842   4.794 -0.1780  0.1797  0.0300
 1452W        W17636  13.277   5.127  10.124  0.2357 -0.1579 -0.2922
 1453W        W17637   5.839   0.654  10.406 -0.0595  0.1325 -0.1307
 1454W        W17638   4.676   1.950   5.327  0.3577 -0.0842 -0.1493
 1455W        W17639   5.442   5.175   2.143  0.1218  0.0400  0.2695
 1456W        W17640   9.705  17.352   1.612 -0.0325 -0.1894 -0.5420
 1457W        W17641   8.380  10.659  13.170 -0.0445 -0.0457 -0.3220
 1458W        W17642   4.516   5.358   2.905  0.1544 -0.1601 -0.1430
 1459W        W17643  18.966  10.896  12.235 -0.1608 -0.0589  0.0779
 1460W        W17644  15.864   5.187  12.156 -0.0355  0.0670 -0.0689
 1461W        W17645  12.517  18.769   2.508 -0.3704  0.0958  0.2879
 1462W        W17646   9.994   2.677   1.428  0.2293  0.1299  0.0840
 1463W        W17647  10.737   2.280  13.392  0.3749  0.1973  0.1252
 1464W        W17648   9.494  16.400   0.718 -0.0902 -0.1757  0.0453
 1465W        W17649   3.801  13.219  10.557  0.1525  0.0359 -0.0403
 1466W        W17650  16.155   3.161  10.322 -0.3337  0.0860  0.2385
 1467W        W17651  12.617  12.005   0.655 -0.1856 -0.3607 -0.2745
 1468W        W17652   0.326   8.849   0.812 -0.2498  0.0523  0.0807
 1469W        W17653   0.407   4.310  11.887  0.2595 -0.0588 -0.0075
 1470W        W17654   2.990   4.428   3.463  0.1463  0.1733 -0.0634
 1471W        W17655   0.499  16.324   4.411  0.0004  0.0842  0.0768
 1472W        W17656   7.765   2.224  11.325 -0.4457  0.2442 -0.1316
 1473W        W17657  18.122  14.848   6.158 -0.1916 -0.0206  0.3391
 1474W        W17658  18.033   1.564  11.770 -0.0185 -0.1946 -0.1310
 1475W        W17659   0.984  18.495  14.616  0.1350  0.1191 -0.0483
 1476W        W17660  14.580  15.939   1.360  0.1160  0.2247  0.3458
 1477W        W17661   9.126  16.632   1.086  0.2294  0.1428 -0.1786
 1478W        W17662   6.424  16.078   1.009 -0.0101 -0.3683  0.2180
 1479W        W17663   7.942  18.790   1.191 -0.2607 -0.0738 -0.4476
 1480W        W17664  14.476   7.387   2.271 -0.0275 -0.0882 -0.0310
 1481W        W17665   4.192   8.616   1.109 -0.0824 -0.0885 -0.1168
 1482W        W17666  16.611  10.390  13.180 -0.0380 -0.1649 -0.3637
 1483W        W17667  14.908  19.142  12.378  0.2607  0.2984  0.0491
 1484W        W17668   2.036  15.961  14.630 -0.1099 -0.0686 -0.0507
 1485W        W17669  15.823   3.190   2.016 -0.0684  0.0119 -0.0074
 1486W        W17670  10.745  16.761  12.172 -0.0107  0.0017  0.1299
 1487W        W17671  10.254  12.541   4.368 -0.0524  0.3828 -0.2058
 1488W        W17672  15.144   3.707   3.542  0.1189  0.0056 -0.2085
 1489W        W17673   5.247   5.734  12.954 -0.3291 -0.0403 -0.1856
 1490W        W17674   7.071  12.693   0.796 -0.3360  0.2937 -0.1800
 1491W        W17675  10.211   9.359  12.385 -0.1450 -0.0313 -0.2358
 1492W        W17676  16.245  11.896  11.257 -0.0979  0.0797 -0.2390
 1493W        W17677   3.861  17.051   0.827 -0.1331 -0.1152 -0.1015
 1494W        W17678   2.251  12.419  11.476  0.0039 -0.1783  0.1879
 1495W        W17679   5.401  14.499   2.014 -0.1126  0.2530  0.2866
 1496W        W17680  12.149   4.646   2.290  0.1548  0.3518  0.2596
 1497W        W17681  14.315   4.103   2.159 -0.1668  0.1855 -0.0586
 1498W        W17682   0.858  18.439  14.134  0.2999  0.1709 -0.1612
 1499W        W17683  16.370  15.719  11.533 -0.1419  0.1745  0.2025
 1500W        W17684   3.909  15.913   3.792 -0.1759 -0.1116 -0.1458
 1501W        W17685  18.731  15.114   0.751  0.1168  0.2811 -0.0712
 1502W        W17686  17.029   0.881   4.433  0.1909  0.0773 -0.0031
 1503W        W17687   5.893  17.675   1.965  0.0804 -0.1996  0.0763
 1504W        W17688  15.374   1.462  10.065  0.1334 -0.2075  0.0311
 1505W        W17689  10.469   9.392   0.790 -0.0774 -0.0145 -0.3697
 1506W        W17690  14.596  11.435  12.809  0.1379  0.2344 -0.0723
 1507W        W17691   5.440  17.369  10.086 -0.1428  0.2172 -0.0402
 1508W        W17692  12.015  19.096  12.592  0.0435  0.1126  0.1363
 1509W        W17693   2.977  10.338   5.365 -0.0579  0.1690  0.0574
 1510W        W17694  16.286  14.651  14.063 -0.2955 -0.0152  0.0149
 1511W        W17695   8.084  16.056  12.065  0.0252  0.1608  0.0482
 1512W        W17696   1.455  15.401   3.077 -0.0118  0.2165  0.0217
 1513W        W17697   2.751   0.414  11.120  0.0006  0.3475 -0.0564
 1514W        W17698   5.948   9.649  14.294 -0.0959  0.1388 -0.0517
 1515W        W17699  13.869  11.776   4.308 -0.2588 -0.0194  0.0453
 1516W        W17700   1.362  13.079  14.079  0.0622  0.1986  0.1735
 1517W        W17701  10.446  10.443  11.422  0.1349 -0.2638 -0.1897
 1518W        W17702  15.928  17.674  11.734 -0.1849 -0.3163 -0.0938
 1519W        W17703   0.037   0.874  12.038 -0.2664 -0.2678 -0.0011
 1520W        W17704  17.502   2.312  11.376  0.0261  0.0387  0.3508
 1521W        W17705  15.628   0.206  10.903  0.0371  0.0155 -0.2765
 1522W        W17706   5.879   8.616   3.536  0.1623 -0.3323  0.0638
 1523W        W17707   6.852  17.495   0.995  0.0380  0.1184  0.1356
 1524W        W17708  18.931  11.375   2.862 -0.0773 -0.0291  0.2608
 1525W        W17709  16.336   9.247  12.741  0.0555  0.0679  0.2045
 1526W        W17710   5.240   1.291  10.252  0.0215 -0.0667 -0.1229
 1527W        W17711  16.306   0.533  14.574  0.2559  0.0486 -0.3021
 1528W        W17712  10.144   8.828  13.222 -0.0354 -0.5121 -0.0306
 1529W        W17713   4.503   4.672  10.952  0.0146  0.3673 -0.1945
 1530W        W17714  11.722  15.186  14.428 -0.3609 -0.1547 -0.2668
 1531W        W17715  18.764   8.387   3.673 -0.2015  0.1465 -0.0038
 1532W        W17716   1.986   3.044   0.218 -0.1072 -0.2171 -0.2660
 1533W        W17717   1.898  10.869   0.753  0.0114  0.0346  0.3118
 1534W        W17718   1.371  17.290  10.801 -0.1339 -0.1543 -0.0193
 1535W        W17719   4.484  17.100  10.986 -0.0065 -0.0238  0.0588
 1536W        W17720  19.287  10.629   3.652  0.1127  0.2514 -0.0708
 1537W        W17721   9.256   3.020  12.906 -0.3495  0.1395  0.2488
 1538W        W17722   5.445   1.346   4.665 -0.3398 -0.3529 -0.1810
 1539W        W17723   2.413   8.095  13.916 -0.0879  0.0124 -0.0272
 1540W        W17724   3.631  17.527   0.567 -0.0185  0.3271 -0.2059
 1541W        W17725  14.699  16.523   3.706 -0.0127  0.0724  0.1346
 1542W        W17726   7.092   6.524   2.027 -0.3990  0.1228  0.0658
 1543W        W17727   6.195   7.246   0.914  0.1207 -0.1400 -0.2107
 1544W        W17728  11.903  12.474  13.614 -0.1100 -0.0200 -0.0155
 1545W        W17729   3.721  13.625   3.866  0.3469  0.0933  0.0087
 1546W        W17730   9.614   1.861  10.372  0.1588 -0.1149  0.5828
 1547W        W17731   8.961   0.552  12.305 -0.0030 -0.0400  0.2303
 1548W        W17732   4.472  14.904   3.168  0.0563  0.0614 -0.0083
 1549W        W17733  17.161   2.099  12.618  0.2041 -0.2101  0.2079
 1550W        W17734   8.368   5.421   2.766 -0.0750  0.0574 -0.0115
 1551W        W17735   6.954   9.743   3.517  0.0868 -0.3111  0.0907
 1552W        W17736  13.707   2.538   0.709 -0.2329  0.1417 -0.1355
 1553W        W17737   3.874  12.711   3.398 -0.1267  0.1123 -0.3257
 1554W        W17738   4.344  12.583  13.435  0.0739  0.2078 -0.3192
 1555W        W17739   9.096   4.334  13.135  0.0766 -0.0709 -0.2462
 1556W        W17740   7.342   8.338   0.730  0.4422  0.1414 -0.1421
 1557W        W17741   3.788  19.288  14.238 -0.1689  0.2183  0.0961
 1558W        W17742  11.038   4.319  13.374  0.2475  0.1229  0.1487
 1559W        W17743  15.816  18.518   3.545  0.1425 -0.1366 -0.0730
 1560W        W17744   5.639  16.347   1.016  0.0661 -0.0059 -0.2129
 1561W        W17745   0.052   1.645  12.895  0.2696  0.3457 -0.1589
 1562W        W17746  10.779  17.519  10.549 -0.3026  0.0335  0.1259
 1563W        W17747   4.852   6.489  11.399  0.0562 -0.2384  0.6112
 1564W        W17748  18.274   9.584   5.347 -0.0927  0.1565  0.1251
 1565W        W17749  17.150  14.384   2.267 -0.1464 -0.0940 -0.0190
 1566W        W17750  16.668   4.835  11.157  0.0594  0.2419  0.0139
 1567W        W17751   5.980  17.186   1.758 -0.1775 -0.0836  0.2419
 1568W        W17752   9.482  12.064   4.796  0.3972 -0.1033  0.1247
 1569W        W17753  18.715  16.614   0.644 -0.0186  0.3903  0.1645
 1570W        W17754   9.568   1.290   0.317 -0.0821  0.0940  0.1391
 1571W        W17755  10.165   3.111  13.457  0.0756 -0.0835  0.1622
 1572W        W17756   4.600   5.508   1.750  0.1819 -0.1567  0.3643
 1573W        W17757  13.298   1.763   4.139 -0.1758 -0.1779  0.1811
 1574W        W17758   4.153  10.206   3.733 -0.3427 -0.0163  0.1260
 1575W        W17759  17.602   8.465   1.958  0.0695  0.1176 -0.4266
 1576W        W17760   7.582  13.633   3.878 -0.2558  0.1540  0.2863
 1577W        W17761   4.172  15.152   1.172 -0.2591 -0.2539 -0.0054
 1578W        W17762   5.965  10.282  13.124 -0.2928  0.1198  0.2018
 1579W        W17763  16.879  11.443  14.816 -0.1678 -0.0050 -0.0764
 1580W        W17764   0.748  18.278   1.895  0.1420  0.2023 -0.1495
 1581W        W17765  12.219   5.756  11.223 -0.2868  0.4739  0.0101
 1582W        W17766  12.385   4.756   4.365 -0.0447 -0.4243  0.1487
 1583W        W17767  12.429   0.243   1.622  0.0640 -0.1053  0.2314
 1584W        W17768  16.685   4.902  14.077  0.0679 -0.1630 -0.4156
 1585W        W17769   5.986   1.167  11.357  0.0178 -0.0482  0.1887
 1586W        W17770   4.218   1.540   4.249  0.1960  0.1451 -0.0700
 1587W        W17771  18.611   2.041  13.003  0.5282 -0.2414 -0.2101
 1588W        W17772   8.171   2.606  10.348  0.4603 -0.0390  0.0031
 1589W        W17773  14.343   7.860   1.951 -0.2466 -0.1091  0.1487
 1590W        W17774  18.429  17.181  14.738  0.0180  0.0415  0.0113
 1591W        W17775   3.459  15.646  12.466 -0.0271 -0.2022  0.0071
 1592W        W17776  17.761  17.240   3.005  0.1534  0.2362 -0.4397
 1593W        W17777  18.810   6.536  14.683  0.1359  0.3279 -0.1552
 1594W        W17778   7.341   0.384  13.245 -0.0121 -0.1116  0.0812
 1595W        W17779   4.610  13.570   0.144  0.0011 -0.1387 -0.0898
 1596W        W17780   4.042   7.672  10.825  0.0646  0.0605 -0.2607
 1597W        W17781  18.604   0.014   0.692 -0.1303 -0.0753 -0.2728
 1598W        W17782   1.303  16.522   2.032  0.1841 -0.0163 -0.2924
 1599W        W17783  10.445  18.978   4.154  0.0524 -0.1814  0.0785
 1600W        W17784  15.995  12.568   3.251  0.0183 -0.4211 -0.1934
 1601W        W17785  10.624   7.760   4.479 -0.1613  0.2558  0.0165
 1602W        W17786   0.917   9.688  13.392 -0.0470 -0.0319  0.2674
 1603W        W17787   2.294  15.266   0.394  0.3493  0.1955  0.1058
 1604W        W17788   7.683  10.139   2.914 -0.0035  0.1250 -0.2324
 1605W        W17789   7.149  15.239   0.562  0.5103 -0.0481  0.1196
 1606W        W17790   7.773  14.756   3.665 -0.0821  0.2170  0.3237
 1607W        W17791  13.003  18.556   2.563 -0.2273 -0.0025  0.1507
 1608W        W17792  14.563  18.480  14.242 -0.0097 -0.0746 -0.2445
 1609W        W17793  15.679   6.399   0.844 -0.2073  0.0026 -0.1125
 1610W        W17794  15.916  15.009  14.897 -0.2570  0.1602  0.0861
 1611W        W17795   3.654  17.255  12.934 -0.0047 -0.1851 -0.0891
 1612W        W17796   9.166   9.978  14.022 -0.1479 -0.2624  0.1776
 1613W        W17797   5.843  17.929   0.362 -0.1554  0.0405 -0.1895
 1614W        W17798   6.814   7.698  11.169  0.0092  0.2552 -0.0343
 1615W        W17799  16.597  18.740   1.187  0.1990  0.0558 -0.0171
 1616W        W17800  17.219  18.920  11.704  0.0825  0.0231  0.1971
 1617W        W17801  18.680   8.808   3.304  0.1537  0.1199 -0.1583
 1618W        W17802   2.274  19.253   1.215  0.1392  0.1571  0.2100
 1619W        W17803  11.086  14.748  10.858  0.0097  0.0090 -0.0122
 1620W        W17804  11.431   8.306   3.083  0.2426  0.2044 -0.0972
 1621W        W17805  12.794  11.870   1.610 -0.3041 -0.0375  0.1064
 1622W        W17806  12.130  17.436  13.350 -0.1323  0.1922 -0.2293
 1623W        W17807  14.393   0.809  14.796  0.1997  0.4809 -0.1522
 1624W        W17808  17.090   9.380   2.813  0.0825 -0.0033 -0.2444
 1625W        W17809   4.117  13.046  14.525 -0.1986 -0.0751 -0.3812
 1626W        W17810  10.407  10.598   1.974 -0.0719 -0.0439 -0.0261
 1627W        W17811   1.461  13.685  14.001  0.1849  0.0693 -0.3525
 1628W        W17812   7.199  15.259  10.682  0.2536 -0.0842 -0.1493
 1629W        W17813  17.659   7.059  13.834  0.2687 -0.1993 -0.1603
 1630W        W17814   6.769  13.925  14.928 -0.0299 -0.1385  0.0033
 1631W        W17815   2.012  18.839   1.002 -0.3153 -0.1778  0.1218
 1632W        W17816   4.498  11.696  13.017 -0.0644 -0.0650 -0.1475
 1633W        W17817  11.935  13.308  14.000  0.3164 -0.0282  0.1639
 1634W        W17818   6.866  12.726  14.145  0.2301 -0.1617  0.1215
 1635W        W17819  19.045   2.504   4.354 -0.3406 -0.0855 -0.1813
 1636W        W17820   2.138  12.639  14.034 -0.0962  0.4422  0.0756
 1637W        W17821  13.390   3.391  14.123  0.0128  0.2115  0.0273
 1638W        W17822   9.987   5.042   4.837  0.1820 -0.0535 -0.3803
 1639W        W17823   6.153   3.549   5.394 -0.4331 -0.2715  0.1778
 1640W        W17824   2.449   9.205   1.500  0.0242 -0.0914  0.0271
 1641W        W17825   2.431  12.060  13.362 -0.0307  0.1654 -0.2209
 1642W        W17826   8.076   3.769  13.292 -0.2905 -0.2824  0.2283
 1643W        W17827  14.049   8.156  14.336 -0.2149  0.0018 -0.3075
 1644W        W17828   4.108  18.375  12.411 -0.1694  0.0785  0.3393
 1645W        W17829   9.831   8.512  14.220  0.0936  0.3396 -0.1226
 1646W        W17830   1.810  19.322   5.673  0.3332 -0.3391 -0.3893
 1647W        W17831  14.928  13.005  11.229  0.0200  0.2595 -0.2075
 1648W        W17832  16.531   4.236   9.351 -0.1613  0.0223  0.5187
 1649W        W17833   8.359   0.530  11.654 -0.1115  0.1719 -0.0376
 1650W        W17834  10.402   0.763   5.616  0.3024  0.1348 -0.2761
 1651W        W17835   3.052  10.470  13.434 -0.1137 -0.0602 -0.0785
 1652W        W17836  14.792  18.465   2.899 -0.0014 -0.3807 -0.0432
 1653W        W17837   5.208   2.550   2.354  0.3007  0.0438  0.1959
 1654W        W17838   5.963   0.725   3.257 -0.2675  0.1381 -0.2411
 1655W        W17839   9.294  18.037  13.184 -0.0002 -0.0044 -0.1125
 1656W        W17840   0.656  18.260  12.610 -0.1101  0.1087 -0.1078
 1657W        W17841   0.461  19.252  12.725  0.2609 -0.4013 -0.0957
 1658W        W17842  15.826   7.216   4.124 -0.0866  0.1753 -0.2319
 1659W        W17843   1.771  10.074   3.628 -0.0462 -0.1646 -0.2336
 1660W        W17844  12.307   5.715   2.212  0.0401 -0.1460  0.0699
 1661W        W17845  18.504   5.027   1.719 -0.1043  0.0109  0.1591
 1662W        W17846  16.098   8.825  11.016 -0.1063  0.0351  0.0488
 1663W        W17847  13.390  14.235   0.051  0.1391  0.0027 -0.0051
 1664W        W17848  11.972  16.007   1.637  0.1943  0.2080 -0.2410
 1665W        W17849  16.296  12.041   2.504  0.3610  0.0550 -0.1554
 1666W        W17850   8.144   3.371  14.581 -0.2962  0.2573 -0.1140
 1667W        W17851  11.782   4.246  13.333  0.3248 -0.2510 -0.1558
 1668W        W17852  11.619   7.585   0.191 -0.0481  0.2158  0.0575
 1669W        W17853  14.978   4.890   3.438  0.2134  0.0835 -0.1989
 1670W        W17854  13.655  12.207   1.228 -0.0290 -0.2551 -0.1866
 1671W        W17855  16.309  10.673  11.667 -0.4635 -0.0882 -0.2541
 1672W        W17856  14.549  16.465  12.141 -0.1569  0.1611  0.0212
 1673W        W17857   7.457  13.034  12.091 -0.0092 -0.3885 -0.3204
 1674W        W17858  13.914  14.612   2.862 -0.1636 -0.1577 -0.2629
 1675W        W17859   2.016   6.846  14.560 -0.1343  0.1324  0.1316
 1676W        W17860   1.119   4.145  11.319  0.1101  0.1015  0.1128
 1677W        W17861   6.056  10.615   4.167 -0.0879 -0.0113  0.3295
 1678W        W17862   8.683  15.840   0.785  0.0303 -0.0961 -0.2874
 1679W        W17863   4.844   2.550   0.017 -0.2034 -0.1892 -0.3478
 1680W        W17864   4.423  16.858   5.024  0.0575 -0.0778 -0.0557
 1681W        W17865   6.115  13.314   4.915 -0.1399 -0.1800 -0.1161
 1682W        W17866   6.311   0.069  13.573 -0.1561  0.3028 -0.1358
 1683W        W17867   3.889  14.843   1.495 -0.0494 -0.3176  0.1256
 1684W        W17868   5.535  16.290  14.342 -0.1866 -0.1296  0.1534
 1685W        W17869   8.324   9.078  10.964  0.0966 -0.0382 -0.2807
 1686W        W17870  12.333   1.999   2.113 -0.4726 -0.1583  0.0111
 1687W        W17871  16.975  12.295   3.516 -0.2120  0.3721  0.3859
 1688W        W17872   4.053   1.101  14.132 -0.1257 -0.0270 -0.0684
 1689W        W17873  16.155   0.999   0.527  0.0469  0.1554  0.0913
 1690W        W17874   9.170  13.008   1.317  0.4052 -0.3627 -0.0103
 1691W        W17875  14.386  17.620  14.444  0.1358 -0.4442  0.0233
 1692W        W17876  10.227  12.978  11.487  0.2038 -0.0942 -0.2603
 1693W        W17877   1.241  19.259  14.262 -0.0663 -0.0378 -0.0104
 1694W        W17878   9.151  12.875   0.051  0.1314  0.0974 -0.0143
 1695W        W17879  18.000   1.892  10.830 -0.0970  0.1042  0.1875
 1696W        W17880  13.539   6.062   0.260 -0.1090  0.1267  0.1089
 1697W        W17881  14.716   9.172   2.202  0.0288  0.2180 -0.1232
 1698W        W17882   5.253   6.242   4.808  0.0118 -0.1734 -0.1300
 1699W        W17883  17.597  18.722  13.406 -0.0940 -0.1650 -0.1098
 1700W        W17884  17.169  16.456   0.503 -0.1312 -0.1408  0.1346
 1701W        W17885   0.346   4.906  12.372 -0.0465 -0.0994  0.4297
 1702W        W17886  19.031  10.790   1.038 -0.3620 -0.2414  0.2145
 1703W        W17887   7.626   1.968  13.349 -0.0455 -0.1890 -0.4818
 1704W        W17888   0.278  14.509   5.027 -0.0234  0.1311  0.1444
 1705W        W17889  11.084  15.635   0.266  0.5991  0.5329 -0.0355
 1706W        W17890   8.261  13.698  12.865 -0.2546 -0.1374  0.2553
 1707W        W17891  10.057  14.804  12.971 -0.0836 -0.1515 -0.1858
 1708W        W17892   9.059  14.481  11.921 -0.5001  0.0176  0.0786
 1709W        W17893   5.032   9.221  13.337 -0.3458  0.0406 -0.0368
 1710W        W17894  17.249   3.750   2.619 -0.0246  0.1911  0.0009
 1711W        W17895  15.365  13.169  11.394 -0.0449  0.0436 -0.1924
 1712W        W17896  15.150   3.124  11.105  0.1310  0.2023 -0.2416
 1713W        W17897  17.097   2.013  12.133  0.0550  0.4580  0.1677
 1714W        W17898   8.626   4.991  11.645  0.0815  0.0830  0.0550
 1715W        W17899   0.061   5.869   1.279 -0.1914  0.1579 -0.1472
 1716W        W17900  15.025  15.210  11.460 -0.1730 -0.4935 -0.4434
 1717W        W17901  15.162  10.873  10.770 -0.0394  0.4393  0.0733
 1718W        W17902  17.560   1.106  12.454 -0.0880  0.0351 -0.0874
 1719W        W17903  11.834  15.043   5.574  0.0909  0.0136 -0.0922
 1720W        W17904   8.611  13.347   2.049 -0.0070 -0.1038  0.2388
 1721W        W17905   0.115  17.987  14.900  0.0754  0.0559 -0.0175
 1722W        W17906   9.227   7.850   3.922  0.1238 -0.1947 -0.1041
 1723W        W17907   7.125  17.801   2.285  0.0880 -0.1477 -0.1204
 1724W        W17908  18.397  14.438   0.045  0.0175  0.0872  0.3997
 1725W        W17909  10.822   7.476  10.476  0.0605 -0.1761  0.1337
 1726W        W17910  12.091  18.676  11.696 -0.0880  0.0618 -0.0308
 1727W        W17911   5.190   6.836  10.741 -0.0714 -0.1123  0.2622
 1728W        W17912   0.543  15.519  12.304  0.0507 -0.1873 -0.0344
 1729W        W17913   7.033  12.330   5.209  0.2144 -0.0321  0.0882
 1730W        W17914   1.249   4.634  13.640  0.2530  0.3179  0.1101
 1731W        W17915  13.991   5.401  14.761  0.0415 -0.1008  0.0615
 1732W        W17916  14.495  12.006  11.854 -0.0820  0.1340  0.1849
 1733W        W17917   0.361   4.174  13.317  0.2447  0.0427  0.1007
 1734W        W17918   4.860  15.084   0.139 -0.0738 -0.1152 -0.1230
 1735W        W17919  18.123   6.038  13.944 -0.0823 -0.1054  0.3073
 1736W        W17920  12.622   6.630   0.219 -0.1656  0.0428 -0.1596
 1737W        W17921  11.465   4.463  13.683 -0.0523 -0.0214  0.3763
 1738W        W17922  12.849  17.695  11.697  0.0841 -0.1997  0.0974
 1739W        W17923   0.052  17.801   0.774  0.0245  0.0141 -0.0188
 1740W        W17924  16.782  15.777  12.646  0.3732  0.1172  0.0459
 1741W        W17925   7.254   7.152   3.133  0.0846 -0.3540  0.2407
 1742W        W17926  10.246  11.055   9.638  0.4049  0.0418  0.0715
 1743W        W17927  10.870  15.206  13.321 -0.0669  0.5271  0.3379
 1744W        W17928   7.249   0.318  12.352  0.2735 -0.1183 -0.1185
 1745W        W17929  11.069  10.195   4.537 -0.4066  0.1674 -0.2228
 1746W        W17930  13.041   4.647  11.286 -0.2947 -0.1266  0.0215
 1747W        W17931   4.548   5.049   5.537  0.1679 -0.0948 -0.2136
 1748W        W17932  12.330  10.061   0.220 -0.2667  0.2449 -0.1454
 1749W        W17933  11.455   2.693  10.517  0.1023  0.0239 -0.1458
 1750W        W17934  14.163   3.917  13.885 -0.4733 -0.3375 -0.3045
 1751W        W17935  18.808   9.467   2.656  0.5608  0.0859  0.2660
 1752W        W17936   1.377  15.917  12.378 -0.3769 -0.3930 -0.0761
 1753W        W17937  19.137   5.910  13.978  0.0609  0.1893 -0.2077
 1754W        W17938  10.629  10.918   0.436 -0.1097 -0.2291  0.1703
 1755W        W17939  14.763  18.741  13.899  0.1040 -0.2473 -0.2325
 1756W        W17940   4.749  16.079   2.224 -0.2474  0.2398  0.0187
 1757W        W17941  12.944   6.166  13.743  0.3607 -0.0640  0.0556
 1758W        W17942   4.535   4.441   0.011 -0.1925 -0.0860 -0.1843
 1759W        W17943  14.205   7.888   2.419 -0.2598 -0.3572 -0.1999
 1760W        W17944  10.160  17.594  11.343  0.0600 -0.1361 -0.0373
 1761W        W17945  14.873  12.638   1.327  0.2845  0.0461 -0.1696
 1762W        W17946  10.867  11.910   2.930  0.3355  0.0402 -0.3479
 1763W        W17947   8.831  18.134   1.616  0.1062  0.0368  0.0166
 1764W        W17948  17.349   5.250   2.031  0.2190  0.1509  0.0786
 1765W        W17949   8.342  17.493   4.490 -0.2111 -0.3200  0.6046
 1766W        W17950  14.103   3.018  12.088  0.3412 -0.1111 -0.0129
 1767W        W17951   6.057  14.616   2.792 -0.2542  0.0316 -0.1054
 1768W        W17952   8.748   2.955   1.985 -0.1476  0.0646  0.2028
 1769W        W17953   3.130   7.361   6.007 -0.3741 -0.0096 -0.0998
 1770W        W17954  17.453   6.684   2.844  0.2061  0.2946  0.4746
 1771W        W17955  13.336  11.800   0.545  0.4000 -0.0804  0.0615
 1772W        W17956   5.675  10.453  12.629  0.0994 -0.3779 -0.3832
 1773W        W17957   9.289  10.420  12.214  0.0287 -0.0713 -0.2043
 1774W        W17958   2.890  16.329   0.935  0.0448  0.0051  0.1333
 1775W        W17959  16.742   4.679  11.640 -0.0798 -0.0996 -0.2834
 1776W        W17960  11.768   4.654   4.603  0.0295  0.0202  0.1575
 1777W        W17961  11.080   6.800  13.525  0.1284  0.1827 -0.2382
 1778W        W17962  13.442  18.746   0.983 -0.2147  0.2461  0.0615
 1779W        W17963  15.502   0.495   4.790  0.0823 -0.4061 -0.0362
 1780W        W17964   0.712   4.638  12.710  0.0915  0.1327 -0.0515
 1781W        W17965   7.621   0.034  12.359  0.1387  0.1672  0.2796
 1782W        W17966  18.826  17.251  11.829  0.3337 -0.0601  0.0334
 1783W        W17967  12.987   5.791   4.986  0.4204 -0.0267  0.1656
 1784W        W17968  14.847   4.122   3.985 -0.2141 -0.1946  0.1889
 1785W        W17969  10.335  12.708  13.427 -0.1376 -0.1069  0.2418
 1786W        W17970   2.860  17.916   2.706  0.0044 -0.1994  0.1980
 1787W        W17971   0.006  14.071   1.333  0.0190 -0.0322  0.0672
 1788W        W17972  16.378  15.557   0.569  0.0826  0.0309 -0.3614
 1789W        W17973   5.286  12.902   1.569 -0.0534  0.2945 -0.0094
 1790W        W17974  14.272  14.304  10.850  0.1178 -0.3049 -0.2129
 1791W        W17975   6.074  18.385  12.614 -0.4082 -0.1581 -0.1567
 1792W        W17976  18.323   9.795   1.943 -0.1871 -0.1927  0.0663
 1793W        W17977  16.730   0.336  11.106  0.0769 -0.1476 -0.0035
 1794W        W17978  14.744  12.192  14.383 -0.0265 -0.3157 -0.0512
 1795W        W17979   8.862  14.176   4.666 -0.1162 -0.2405 -0.2274
 1796W        W17980  10.905   3.784   1.466 -0.4124 -0.1477 -0.2152
 1797W        W17981   7.259   4.501   2.319 -0.0783  0.0811  0.1117
 1798W        W17982  18.375   2.599   4.459 -0.1022  0.1323  0.1252
 1799W        W17983   0.713  13.731  13.499  0.1436 -0.2058  0.3319
 1800W        W17984   1.320  17.553   1.389 -0.2173 -0.0593  0.3762
 1801W        W17985  18.254  16.736   5.038 -0.1356  0.1019  0.2808
 1802W        W17986   1.813  11.128  10.860 -0.0491 -0.2992  0.1822
 1803W        W17987   9.245  11.513   2.856  0.2416  0.1083 -0.1482
 1804W        W17988   2.206   1.893  11.524 -0.2376  0.4695  0.0307
 1805W        W17989  11.681   9.759   2.290 -0.2496 -0.1350 -0.0747
 1806W        W17990   3.032   5.736   2.620  0.0763 -0.2392 -0.1692
 1807W        W17991  14.397   5.689  13.065 -0.0435  0.2623  0.0560
 1808W        W17992  13.350  11.894   5.482 -0.0009  0.1190 -0.0311
 1809W        W17993  19.100  17.614  14.097 -0.0630 -0.1003 -0.2203
 1810W        W17994  19.203   1.828   3.777  0.2377 -0.0072  0.2033
 1811W        W17995  15.262   3.687   2.975  0.1351 -0.1528  0.1545
 1812W        W17996   7.922   0.451  13.919 -0.0473 -0.0169 -0.2458
 1813W        W17997   7.133  10.207  11.766  0.1304  0.0653  0.3179
 1814W        W17998  14.922  10.408  10.434 -0.0821  0.0794 -0.3241
 1815W        W17999  12.557   6.830   3.455  0.3088  0.1398  0.1526
 1816W        W18000   1.935  11.284  13.539  0.1007  0.0593 -0.1235
 1817W        W18001  16.557   5.660  12.351 -0.0621  0.0444 -0.1171
 1818W        W18002   6.778  11.972  11.592  0.1188 -0.0505  0.0307
 1819W        W18003   6.743  13.116   0.740  0.2412 -0.2543  0.3479
 1820W        W18004   5.939   3.838  10.056 -0.2101 -0.0062 -0.2910
 1821W        W18005  15.604   3.908   1.840  0.0095  0.0480 -0.2332
 1822W        W18006   6.054  10.572  11.249  0.2852  0.1170 -0.2226
 1823W        W18007   1.807  16.950  12.573 -0.1626  0.2032  0.1496
 1824W        W18008   4.566  14.145  10.873  0.0877 -0.0990  0.1413
 1825W        W18009   1.682  11.641  14.490 -0.3657  0.0988  0.2347
 1826W        W18010  17.245   0.580   4.789 -0.2521  0.0104  0.2210
 1827W        W18011  11.514  18.770   1.073  0.1984 -0.0326 -0.0376
 1828W        W18012  16.029   3.642   4.903  0.2979  0.0822  0.1725
 1829W        W18013  14.841   6.403   0.321 -0.0962  0.1343 -0.0672
 1830W        W18014  17.333  10.321  14.218  0.0374  0.1315  0.1542
 1831W        W18015   1.326  18.849  13.987 -0.1641  0.0918  0.2445
 1832W        W18016  10.023  15.261   5.003  0.0245 -0.0260  0.2851
 1833W        W18017   2.925   1.178  13.117  0.1870  0.0201 -0.0834
 1834W        W18018   2.085   5.267  13.102 -0.0832 -0.1586  0.1683
 1835W        W18019  15.684  12.183  12.733  0.1802 -0.1423  0.1080
 1836W        W18020  11.815  13.405  13.091 -0.0311 -0.1015 -0.2651
 1837W        W18021  15.924  15.841   3.191 -0.0436  0.0943  0.2815
 1838W        W18022   9.230   4.200   4.126  0.1348 -0.3329 -0.3698
 1839W        W18023   1.360  11.901   4.253  0.0876  0.1444  0.0010
 1840W        W18024  16.046  16.096  10.825 -0.1314 -0.1129  0.4378
 1841W        W18025   2.780  18.332   1.539 -0.0678 -0.1562 -0.3246
 1842W        W18026   4.931   0.686   3.412 -0.2806 -0.0094  0.3640
 1843W        W18027   3.092  18.901   4.006  0.2119 -0.2669 -0.2806
 1844W        W18028  11.869  17.333  12.892 -0.0990 -0.3322 -0.0008
 1845W        W18029  13.277  11.774   1.474 -0.0072 -0.1391  0.4157
 1846W        W18030   8.359  12.925  11.673  0.2437 -0.0717 -0.3094
 1847W        W18031   4.621  18.236   5.884  0.1491  0.0132 -0.0876
 1848W        W18032   8.445   2.197  12.354 -0.0652 -0.0092 -0.5082
 1849W        W18033  18.124  10.139   2.194 -0.1561 -0.1213 -0.0499
 1850W        W18034   6.400   6.216   3.710 -0.0152  0.1750 -0.1266
 1851W        W18035  13.956   0.353  13.544 -0.2023 -0.2007 -0.2864
 1852W        W18036  11.812   3.658  10.228 -0.1468  0.0628  0.1296
 1853W        W18037   1.823  19.330   0.995 -0.0916  0.2251 -0.2245
 1854W        W18038  13.431  16.849   5.156 -0.2197  0.0266 -0.0646
 1855W        W18039   4.024   5.478   1.130  0.2940 -0.1911  0.2021
 1856W        W18040   7.531  15.203   3.537  0.1630 -0.0651  0.0277
 1857W        W18041  16.572  14.232  11.109  0.0044 -0.0419 -0.3227
 1858W        W18042  16.424  11.414  10.856 -0.1257 -0.2511  0.0232
 1859W        W18043  17.137   0.200   1.282  0.2674  0.4549 -0.0847
 1860W        W18044  15.346   2.248  10.832 -0.1828 -0.0692 -0.0413
 1861W        W18045   3.405  18.718   0.903 -0.2060  0.0738 -0.0433
 1862W        W18046   4.114  19.172   0.964  0.1053  0.1291 -0.1889
 1863W        W18047   9.994  15.848   9.779 -0.1374  0.0370 -0.1609
 1864W        W18048  16.398  17.625  11.784  0.2240 -0.0168 -0.0541
 1865W        W18049  13.469   9.331  10.540 -0.0662 -0.1347  0.1188
 1866W        W18050   5.795  18.637  14.416  0.1525  0.2699  0.0699
 1867W        W18051  15.249  17.833  11.165 -0.2874 -0.0047 -0.3009
 1868W        W18052   1.343   8.641   1.779  0.0054  0.0852  0.1204
 1869W        W18053   9.315  11.887  11.821  0.0925 -0.0324  0.1325
 1870W        W18054   4.401   4.044  12.706  0.1972 -0.0365  0.3997
 1871W        W18055   5.138   2.333  13.801  0.4403 -0.2527 -0.5126
 1872W        W18056   7.407  14.053   3.302  0.4443  0.2393  0.0937
 1873W        W18057   6.426  15.152   1.896  0.1192  0.0253 -0.2235
 1874W        W18058   9.293  13.151  12.090  0.3027 -0.0064  0.2893
 1875W        W18059   2.303   5.658  13.266 -0.2277 -0.1443 -0.0013
 1876W        W18060  11.085   5.873   3.126 -0.0042 -0.1278  0.3298
 1877W        W18061  15.733   6.440  14.794  0.0050  0.0636  0.1663
 1878W        W18062   1.909  16.415   2.850 -0.2381  0.1526  0.0093
 1879W        W18063  12.404  17.134  12.822  0.2231  0.1251  0.1699
 1880W        W18064  14.396  16.397  14.874  0.0876 -0.0097 -0.1986
 1881W        W18065   1.463  16.120  13.563  0.0103 -0.1928 -0.2152
 1882W        W18066  12.182  13.789  10.260 -0.1718 -0.1324  0.1342
 1883W        W18067   3.515  13.796  12.248 -0.1672 -0.0011 -0.4100
 1884W        W18068  16.859   3.977  11.422  0.0348  0.0838  0.3207
 1885W        W18069  14.184   5.496  14.213 -0.3758  0.0902  0.3066
 1886W        W18070  10.582   9.048  13.311  0.1781  0.0241 -0.0264
 1887W        W18071   7.445  13.763  11.318  0.0438  0.2593  0.1929
 1888W        W18072   8.537   7.640   3.035 -0.2183  0.1281 -0.0944
 1889W        W18073   1.864   5.982   0.291  0.2158  0.0447 -0.2498
 1890W        W18074   6.776   5.901   3.222 -0.4120 -0.1398 -0.0748
 1891W        W18075  18.912  17.234   3.792  0.2084 -0.0362  0.0720
 1892W        W18076  15.024   0.470   0.382  0.4427 -0.1123 -0.1737
 1893W        W18077   7.252   8.541   3.603  0.0766  0.2032 -0.1858
 1894W        W18078  17.420  16.745   1.700 -0.2145  0.0859 -0.1473
 1895W        W18079   2.157  12.065  11.896 -0.0294 -0.2973 -0.0537
 1896W        W18080   0.624  16.563  11.575  0.0535  0.0184 -0.3950
 1897W        W18081  11.790  15.172  14.922  0.0186  0.0360  0.2005
 1898W        W18082  18.120  18.592   1.208 -0.0285  0.1555 -0.1031
 1899W        W18083  18.067  10.467  13.031 -0.0936  0.1085  0.1175
 1900W        W18084  12.413  12.278   2.252  0.0361  0.2559  0.1318
 1901W        W18085   6.837   4.834  12.061  0.1227 -0.3944 -0.1686
 1902W        W18086   6.770  17.961  12.898 -0.0236 -0.0185  0.2330
 1903W        W18087   9.060   9.553  11.283 -0.4021  0.0090 -0.1043
 1904W        W18088   0.047   2.488  12.669  0.1819 -0.0563 -0.2161
 1905W        W18089  10.843  14.278  10.468  0.0696  0.1883 -0.0979
 1906W        W18090   3.678   5.635  13.046  0.0334 -0.0626  0.5508
 1907W        W18091   4.504  15.426   5.335 -0.1292 -0.3326  0.0539
 1908W        W18092  16.591  10.056   5.566 -0.0641 -0.4584 -0.0922
 1909W        W18093   4.811   4.531  14.555  0.0943 -0.2626 -0.0051
 1910W        W18094   2.224  15.738   2.547  0.4196  0.1360 -0.1727
 1911W        W18095   5.599  17.352  12.093 -0.1137 -0.0477  0.4124
 1912W        W18096  18.344   3.456  14.009  0.1837 -0.0788 -0.3547
 1913W        W18097  11.456  12.026  10.554  0.3424  0.1517 -0.0256
 1914W        W18098  12.143   4.871  11.336 -0.1555 -0.1876  0.0417
 1915W        W18099  16.149  14.551   3.680 -0.2858  0.3018  0.1522
 1916W        W18100   0.350   7.893  11.146 -0.0773  0.0147  0.0915
 1917W        W18101  18.467   4.220   9.738 -0.1245 -0.1743  0.2520
 1918W        W18102  17.150   5.156   5.535 -0.0182  0.1405  0.0589
 1919W        W18103  11.523   4.539  12.632 -0.2330  0.2282  0.1159
 1920W        W18104   1.205   2.615  14.542 -0.2484 -0.2087  0.1475
 1921W        W18105   3.528  12.610  12.938  0.2593 -0.1245 -0.1568
 1922W        W18106  13.462   9.835  14.974 -0.1344 -0.2879  0.2336
 1923W        W18107  16.107  16.345   3.472  0.0286 -0.1114 -0.0323
 1924W        W18108  12.193  17.628   4.091 -0.0056  0.0472  0.0650
 1925W        W18109   5.974   2.696   0.152 -0.0993 -0.2257 -0.1165
 1926W        W18110  15.414  14.493   1.625 -0.2102  0.0151 -0.3303
 1927W        W18111   8.010   0.836  11.907 -0.0991 -0.0886 -0.1270
 1928W        W18112   8.475   3.363  14.928 -0.1912  0.0709 -0.1223
 1929W        W18113   3.704   3.816   3.450  0.0096  0.1745 -0.0505
 1930W        W18114  18.625   9.558   1.656  0.0359 -0.0543 -0.2083
 1931W        W18115  16.647  14.549  11.952 -0.1560  0.0624 -0.0129
 1932W        W18116  18.545   1.715   1.863 -0.0141  0.3445 -0.2112
 1933W        W18117   6.045   1.966   3.887  0.2036 -0.3611 -0.0643
 1934W        W18118  18.098   0.638  11.831 -0.2282 -0.2322 -0.1209
 1935W        W18119   8.962  15.729  11.624  0.0832 -0.2736 -0.0254
 1936W        W18120  17.178   3.019   4.471  0.1457  0.1325 -0.1452
 1937W        W18121   2.711   9.928  11.929 -0.0363 -0.2145  0.2931
 1938W        W18122   4.786  12.178  12.899 -0.1273  0.2427  0.1951
 1939W        W18123   9.530  11.845   4.226 -0.1530 -0.0790  0.1466
 1940W        W18124  12.980  15.038   4.796 -0.5002  0.0860 -0.2952
 1941W        W18125   1.073   5.072   0.347 -0.2003 -0.4187  0.0399
 1942W        W18126  14.069  13.452  11.463  0.0905 -0.0934 -0.0577
 1943W        W18127  16.719  17.589   0.261 -0.2123  0.1639  0.0997
 1944W        W18128  13.059   6.204  12.714 -0.1923 -0.0255  0.2729
 1945W        W18129  15.239  16.785  11.663 -0.2147 -0.0122 -0.2580
 1946W        W18130  13.329   2.007  11.698 -0.0379  0.1436 -0.1124
 1947W        W18131   2.175  11.330  14.417 -0.0899 -0.0435 -0.1653
 1948W        W18132  16.088  16.427   2.395 -0.1853 -0.3094 -0.1164
 1949W        W18133  18.669   1.442   5.444 -0.2853  0.3249 -0.0547
 1950W        W18134  18.741   6.915   4.095 -0.0572  0.2344  0.0427
 1951W        W18135   4.115  10.657   1.127  0.2975 -0.1516 -0.2492
 1952W        W18136  14.507  15.598   1.725 -0.1070 -0.1024 -0.1234
 1953W        W18137   2.898   7.827   4.115  0.3239 -0.3448 -0.0612
 1954W        W18138  12.760   2.871   9.869 -0.0373  0.1333 -0.0986
 1955W        W18139   1.509   9.920   0.766 -0.0354 -0.1060 -0.2125
 1956W        W18140  14.760  11.729  10.532 -0.1727  0.0033 -0.3727
 1957W        W18141  16.369   1.948  13.463 -0.3949  0.0436 -0.1742
 1958W        W18142  17.337   1.071   1.585 -0.2482 -0.1170  0.0576
 1959W        W18143  10.259  14.825   4.826  0.0498 -0.5014 -0.0799
 1960W        W18144  11.469  10.973  14.878  0.0662  0.0768  0.1300
 1961W        W18145  13.716  16.489  14.100 -0.0819  0.1643  0.1744
 1962W        W18146   3.224   4.477  12.479 -0.1413 -0.0543  0.0909
 1963W        W18147   8.352   9.624   3.243 -0.1336 -0.0502  0.0634
 1964W        W18148  11.214   4.303   0.267  0.0575  0.0871  0.1568
 1965W        W18149   1.167   3.847   5.348  0.2295 -0.2568  0.0441
 1966W        W18150   0.074  16.710  13.778 -0.1636  0.2025  0.2203
 1967W        W18151   7.937  10.001  12.013 -0.2663 -0.2627  0.0113
 1968W        W18152   7.862   0.006   4.312  0.0000  0.0197  0.2325
 1969W        W18153   5.875   2.266   4.256  0.1321 -0.0229  0.3966
 1970W        W18154   8.341   7.933   1.802  0.0171 -0.0031  0.2641
 1971W        W18155  11.664   0.684  11.419  0.0675 -0.3156 -0.2801
 1972W        W18156  16.663  10.477  13.841 -0.0486 -0.1375 -0.0787
 1973W        W18157  18.197   3.272  14.830  0.1514  0.1171  0.0961
 1974W        W18158   6.108  18.360   0.209  0.0869 -0.1561 -0.0546
 1975W        W18159  12.284   0.740  13.016 -0.0385 -0.1238 -0.0617
 1976W        W18160   0.420  17.060  13.985 -0.0774 -0.1301  0.2005
 1977W        W18161  12.292   1.774   1.580 -0.1145  0.0511  0.2499
 1978W        W18162  17.068   1.734   2.788 -0.2141 -0.1106 -0.1432
 1979W        W18163  10.511  10.247   0.331 -0.0459  0.1929 -0.0743
 1980W        W18164   6.035   3.059   5.406 -0.2472 -0.1526 -0.0321
 1981W        W18165  18.394  19.341  14.815  0.0162 -0.2531 -0.2680
 1982W        W18166   6.592  18.701  13.406 -0.0091  0.1211 -0.2762
 1983W        W18167   4.119  14.027  10.135 -0.0681 -0.1243 -0.2976
 1984W        W18168   5.155   6.902  12.587 -0.1692  0.1701 -0.0094
 1985W        W18169   4.890   6.814   4.159 -0.0540 -0.3838  0.2767
 1986W        W18170   4.021  18.288   5.620 -0.1070 -0.1046 -0.2683
 1987W        W18171  19.236   1.148  14.203  0.0118  0.3274 -0.0483
 1988W        W18172  13.255   3.611  10.540 -0.1329 -0.2344 -0.1751
 1989W        W18173  12.966   2.328   1.139  0.0399  0.2288  0.1574
 1990W        W18174  12.089   0.868   0.969  0.0586 -0.1250  0.0237
 1991W        W18175  15.038  18.074   4.715  0.2335  0.1857  0.1647
 1992W        W18176   6.233  15.604   1.924  0.0712 -0.0523 -0.1891
 1993W        W18177  17.747   2.341   2.786 -0.1385  0.1470 -0.0690
 1994W        W18178  10.079   5.188  12.672  0.0847 -0.1983  0.2894
 1995W        W18179  12.402   4.452   0.596 -0.0531  0.0591  0.1587
 1996W        W18180   1.242  17.486   2.491  0.0042  0.0050 -0.0047
 1997W        W18181  12.272  13.859  13.359 -0.0654  0.0161 -0.2038
 1998W        W18182   0.990   8.943   4.167  0.2110  0.1261  0.1099
 1999W        W18183  14.214   5.124  10.462  0.0280 -0.3559 -0.0879
 2000W        W18184   2.895  13.066  10.933 -0.1895  0.0873 -0.0369
 2001W        W18185   1.678  11.593  10.828  0.0528 -0.2987  0.2212
 2002W        W18186  15.150  11.815   1.080 -0.0328 -0.1549  0.2384
 2003W        W18187  12.466  16.516   0.480  0.0024 -0.2416 -0.1369
 2004W        W18188  11.658  11.930  11.712  0.3480 -0.1215 -0.1634
 2005W        W18189  17.776  12.249   1.169  0.1587  0.1238 -0.3491
 2006W        W18190  12.740  19.319  11.828 -0.2909  0.0667 -0.0563
 2007W        W18191  12.073   0.705  14.321  0.0942 -0.1059  0.0267
 2008W        W18192  10.065   1.965  10.177 -0.0247  0.1318 -0.3988
 2009W        W18193   5.215  17.157  14.616  0.1746 -0.1201 -0.1295
 2010W        W18194  10.339  16.741  11.213  0.1102 -0.2920 -0.1352
 2011W        W18195   5.865  10.892  14.137  0.2575  0.1865  0.2790
 2012W        W18196  17.408   2.736  14.751 -0.1720  0.0918 -0.0600
 2013W        W18197   0.403   4.706  10.110 -0.1646  0.3361  0.2068
 2014W        W18198  10.848  10.248  10.574 -0.1183  0.1426 -0.0542
 2015W        W18199   6.908  12.537   2.591  0.2613 -0.1094  0.1420
 2016W        W18200   7.602   5.120  11.409 -0.1784  0.3661 -0.0569
 2017W        W18201  12.858   4.357   0.326 -0.1174 -0.0233  0.0289
 2018W        W18202   8.166  17.262   2.671 -0.0798 -0.1508  0.0011
 2019W        W18203  17.733  13.462  12.108  0.2352 -0.2554 -0.2044
 2020W        W18204   3.675  10.423  12.823  0.2234 -0.2044  0.0418
 2021W        W18205  12.854   1.007   3.280  0.0211  0.0232  0.1847
 2022W        W18206   3.776  18.043  12.359  0.0135 -0.0327 -0.1903
 2023W        W18207  16.947   6.416   2.853 -0.2486  0.0897  0.1926
 2024W        W18208   1.326   6.887   5.402 -0.0991  0.2364 -0.1386
 2025W        W18209   7.915   6.102   0.904  0.1399 -0.1228 -0.1625
 2026W        W18210   1.684   2.481  14.737 -0.0210  0.0701 -0.2382
 2027W        W18211   7.673   1.096  14.322 -0.1345  0.1719 -0.1141
 2028W        W18212   4.286   7.492  12.289 -0.2818  0.2067  0.0314
 2029W        W18213   1.902   6.166   0.736 -0.0198 -0.1290 -0.1657
 2030W        W18214  17.704  14.325   1.586  0.1272 -0.1605  0.1100
 2031W        W18215   3.266   2.744   0.150  0.0615  0.0342 -0.1398
 2032W        W18216   8.927   7.079   3.947 -0.0043 -0.2690 -0.2050
 2033W        W18217   4.154   5.280   1.534 -0.2829  0.1240 -0.2332
 2034W        W18218  17.649  15.535   0.579 -0.1669 -0.2619  0.0552
 2035W        W18219  12.209   8.068  12.115 -0.0837  0.0550  0.0414
 2036W        W18220  17.539  11.717   4.683  0.3102 -0.4554 -0.0068
 2037W        W18221  15.045  16.320   2.101  0.1029  0.2104  0.2473
 2038W        W18222   4.333  18.555  11.206 -0.0707 -0.0352  0.2484
 2039W        W18223  12.349  14.950  11.227 -0.0822  0.1241  0.2828
 2040W        W18224   0.653   9.276   2.775 -0.0498 -0.1219 -0.3749
 2041W        W18225   0.538  13.357   2.533 -0.0274 -0.0209 -0.0773
 2042W        W18226   0.618   3.698   1.125 -0.2604 -0.1351 -0.0658
 2043W        W18227   8.705  18.658   3.728 -0.1083 -0.4143  0.2549
 2044W        W18228  10.830   5.548   2.816 -0.3103  0.1316 -0.2153
 2045W        W18229  10.442   2.969   1.111 -0.3381  0.0024  0.2019
 2046W        W18230  12.025   8.137  10.522  0.0979  0.2616 -0.1969
 2047W        W18231  14.428   5.397   5.082  0.1967 -0.0955  0.1651
 2048W        W18232  11.704   8.056  11.885  0.0511  0.0439 -0.0115
 2049W        W18233  19.122   5.778   0.840  0.1712  0.2529  0.3993
 2050W        W18234  18.350  10.856  14.658 -0.0659  0.1501 -0.0992
 2051W        W18235   2.180  18.941   5.312 -0.0594  0.0198  0.2493
 2052W        W18236  13.246   6.289   1.191 -0.0351 -0.0068 -0.2560
 2053W        W18237  15.458   4.353  11.731 -0.0218 -0.1178 -0.0131
 2054W        W18238  10.332   9.776   5.127 -0.0092 -0.2342 -0.0763
 2055W        W18239   4.696   3.841   4.560 -0.1757  0.2070 -0.1793
 2056W        W18240  11.035  15.211   5.178  0.2572  0.1411  0.3542
 2057W        W18241   0.533  16.463  13.823  0.1536  0.1344 -0.2010
 2058W        W18242   8.564  18.973  14.001  0.1915  0.3775  0.1348
 2059W        W18243  12.162   0.757   9.995 -0.1061 -0.1180  0.1262
 2060W        W18244  15.901   0.418  10.060  0.2433 -0.1755  0.0846
 2061W        W18245   8.453   0.529   0.579 -0.1551  0.0622  0.0109
 2062W        W18246  13.129   6.494  10.934  0.0222  0.0004 -0.2252
 2063W        W18247  10.261  11.414  12.898  0.1674 -0.0946 -0.2060
 2064W        W18248   5.170  11.330   0.879  0.2045  0.1092 -0.4112
 2065W        W18249   4.994   6.528   0.506  0.1054 -0.2523 -0.2342
 2066W        W18250   8.700   8.507  10.531 -0.0942 -0.0695  0.1696
 2067W        W18251   1.527  18.047   0.395  0.1863  0.2008  0.4372
 2068W        W18252   6.131   3.626  12.377 -0.1418 -0.0167 -0.0183
 2069W        W18253  16.621  18.025   0.025  0.0093  0.3831 -0.1660
 2070W        W18254   2.829   3.614   2.639 -0.1326  0.1547  0.1352
 2071W        W18255   2.871  14.576   3.394 -0.0183  0.0519  0.0815
 2072W        W18256   8.009  15.015  13.027 -0.0075 -0.2928 -0.1907
 2073W        W18257  16.763   1.246   0.037  0.3674 -0.1291 -0.1620
 2074W        W18258   1.051  17.807  11.915  0.1214  0.0517  0.0265
 2075W        W18259   5.656   4.161  14.689 -0.1086  0.2198  0.0762
 2076W        W18260   3.495  19.231   2.626  0.2267 -0.3067 -0.1219
 2077W        W18261  17.361   2.478  10.759 -0.0010  0.0936  0.0649
 2078W        W18262   0.774   2.934   0.153 -0.1616 -0.0063  0.0539
 2079W        W18263  18.435   5.266  12.885 -0.1312 -0.4071 -0.2172
 2080W        W18264   7.960   2.785   0.390  0.1486  0.2220 -0.2933
 2081W        W18265   3.612   7.056   4.423  0.0213 -0.0788  0.0481
 2082W        W18266   2.083   8.489   1.981  0.2613  0.0051 -0.1103
 2083W        W18267   0.791  13.380   0.740  0.0272  0.0397  0.1217
 2084W        W18268  10.936  16.599  14.035  0.1115  0.3830 -0.0685
 2085W        W18269  10.137   3.913   2.427  0.2744  0.1613  0.0585
 2086W        W18270   0.853  11.225   0.502  0.2253 -0.3149 -0.0482
 2087W        W18271   3.787   5.711  10.293 -0.1207 -0.0310 -0.1615
 2088W        W18272  15.873   3.407  12.668  0.1077 -0.2820  0.1844
 2089W        W18273   0.556  17.380  12.444  0.1980 -0.1322  0.4452
 2090W        W18274  10.747  18.823  14.956 -0.0017 -0.5193  0.0684
 2091W        W18275   9.085   1.146  10.940  0.2098  0.3412 -0.1324
 2092W        W18276  15.491  17.553  10.485 -0.0027 -0.1072 -0.1967
 2093W        W18277  15.220   7.065   2.844  0.0286  0.2201  0.0760
 2094W        W18278  14.557   1.679  14.788  0.0610  0.0481  0.1682
 2095W        W18279   1.734   3.187  10.341  0.0775 -0.1820  0.1412
 2096W        W18280   6.558  17.424  10.709 -0.1376  0.2822 -0.0003
 2097W        W18281  15.266  18.761   2.920  0.0425  0.1740  0.2063
 2098W        W18282  18.540  12.242  13.436 -0.0231  0.1298  0.0697
 2099W        W18283   5.580   8.015  14.655  0.1319 -0.0769 -0.3339
 2100W        W18284   1.783   6.290   3.837  0.6050  0.4024 -0.1518
 2101W        W18285  17.720   3.101   1.497 -0.1279  0.0638  0.0893
 2102W        W18286  15.941  10.660   3.653  0.1884 -0.2701 -0.0611
 2103W        W18287   0.535  15.840   0.532  0.2397 -0.0400 -0.2370
 2104W        W18288   7.737  17.949   2.864  0.0719 -0.0940  0.1348
 2105W        W18289  10.615   0.165   0.770 -0.5387  0.0054 -0.1324
 2106W        W18290  14.496  12.351   0.641  0.0254  0.1645 -0.1225
 2107W        W18291  11.234   0.751  14.789 -0.1358  0.2796  0.0531
 2108W        W18292   0.339  11.709   4.213 -0.1040  0.1800  0.1057
 2109W        W18293  10.831   4.891  13.253 -0.4653 -0.0384 -0.1752
 2110W        W18294   1.219   5.157  11.356  0.1621  0.3787  0.0607
 2111W        W18295  15.591   1.016   4.687 -0.1432  0.0433 -0.1063
 2112W        W18296  14.816   4.785  12.755  0.1366  0.0444  0.2663
 2113W        W18297  15.531   7.166   0.404  0.2294 -0.2430 -0.1363
 2114W        W18298  12.152  11.893   4.750 -0.1031  0.2857  0.0520
 2115W        W18299   8.560   8.977  13.002  0.1117 -0.0298 -0.1749
 2116W        W18300   9.995  11.363   1.834  0.3270 -0.1617 -0.1517
 2117W        W18301  11.624  14.659   2.696  0.2740  0.0243 -0.1058
 2118W        W18302   8.678   3.318   2.428 -0.1627  0.0831  0.0836
 2119W        W18303   7.492  17.011   5.020 -0.3228  0.3964  0.4420
 2120W        W18304  16.333   6.478   4.673 -0.1488 -0.0292 -0.0602
 2121W        W18305   6.460   7.778   4.552 -0.0402 -0.2990  0.0860
 2122W        W18306  12.125   5.971  14.314 -0.0090 -0.1602 -0.1517
 2123W        W18307   6.617  17.696  13.886  0.0962  0.1077  0.2355
 2124W        W18308   1.148  10.376   2.326  0.2025  0.0289 -0.2474
 2125W        W18309   7.015   2.945   4.483  0.4652 -0.2575  0.1367
 2126W        W18310  10.465   7.640   0.564  0.2655  0.2553 -0.2969
 2127W        W18311  15.017  16.776   4.503  0.0069  0.0559  0.2771
 2128W        W18312   4.859  19.242  13.522  0.1653 -0.4374  0.1008
 2129W        W18313  18.464  18.578   2.804  0.1164  0.0904 -0.2098
 2130W        W18314   8.117   5.084  11.075  0.2992  0.2898  0.1210
 2131W        W18315  11.509  13.724   4.758  0.1605 -0.2136 -0.2357
 2132W        W18316   6.195  15.674   3.097 -0.4407  0.0178  0.1759
 2133W        W18317  19.336  15.612   5.204 -0.1593  0.2363 -0.4050
 2134W        W18318  13.533  11.388   3.458  0.2310  0.0595  0.2797
 2135W        W18319  14.382   4.349   3.780  0.2498  0.1432 -0.1849
 2136W        W18320  11.870   4.845  11.802 -0.0253  0.1529 -0.2666
 2137W        W18321  18.662   2.646   5.057  0.3269 -0.1482  0.2282
 2138W        W18322   7.510   9.761  11.895  0.0505 -0.4737  0.1722
 2139W        W18323   2.916   9.016   1.777  0.1952  0.0659 -0.0550
 2140W        W18324   2.620  17.125  12.947  0.3782 -0.0230  0.1746
 2141W        W18325   0.460   5.051   5.377 -0.1056 -0.3295 -0.0453
 2142W        W18326   6.187   3.095   3.059  0.0107 -0.1897  0.0619
 2143W        W18327   2.787   8.423  13.052 -0.0915  0.1327 -0.1268
 2144W        W18328   8.169  10.383  14.056  0.1241 -0.1341  0.4062
 2145W        W18329  18.687   9.200   0.726 -0.0215  0.0389  0.4969
 2146W        W18330   0.417  11.324  11.499 -0.1091  0.1444 -0.1376
 2147W        W18331  14.821   5.514   0.166 -0.3506 -0.0875  0.0984
 2148W        W18332   1.789   5.539   0.534 -0.0885  0.4033 -0.2628
 2149W        W18333  10.916   4.825  12.023  0.0105  0.1734  0.1406
 2150W        W18334  15.839  17.012   4.716 -0.1710 -0.0421  0.0486
 2151W        W18335   0.902   2.256   1.759  0.2676 -0.1433  0.0475
 2152W        W18336   9.304   1.054  12.729 -0.1778 -0.0085 -0.3240
 2153W        W18337   8.788  13.222  11.806 -0.0767 -0.0327 -0.2763
 2154W        W18338  13.916  10.654   0.988 -0.2652  0.0601 -0.0404
 2155W        W18339  13.075   3.165   0.616 -0.2826 -0.1910  0.1636
 2156W        W18340   5.079  14.641  13.718 -0.2213  0.0893 -0.0095
 2157W        W18341   0.950  15.160   3.262 -0.0540  0.0227  0.3887
 2158W        W18342   0.576   5.486   2.670 -0.0433  0.4224  0.1629
 2159W        W18343  12.858  17.075   2.093  0.0096 -0.0929  0.2823
 2160W        W18344  14.075   1.384  11.111 -0.2220  0.0160  0.1204
 2161W        W18345  14.502  12.383  10.764  0.0602  0.2371 -0.2663
 2162W        W18346   7.277  14.375  13.520  0.1922 -0.0005  0.2676
 2163W        W18347  13.819  18.774   3.840  0.4453  0.0530 -0.0422
 2164W        W18348   7.475   2.288   1.847  0.0355 -0.0291  0.1118
 2165W        W18349  17.486  10.469   3.674  0.1758 -0.5344  0.0563
 2166W        W18350   9.329  16.045  11.546  0.0670 -0.0574  0.0449
 2167W        W18351   9.346   1.271   2.921 -0.3152 -0.2371  0.0405
 2168W        W18352   6.354  18.161   1.641  0.0566  0.3159  0.0616
 2169W        W18353  16.190  14.093  14.101 -0.2007  0.1878  0.1039
 2170W        W18354   1.244   1.606   3.868 -0.0504 -0.0808 -0.1668
 2171W        W18355  11.371   4.076   1.664  0.2183 -0.1071  0.4637
 2172W        W18356   8.329  10.364  12.425  0.1736 -0.0907  0.2980
 2173W        W18357  12.736   7.332   3.182  0.0728 -0.0165  0.2223
 2174W        W18358   2.817   8.332  12.143  0.2619  0.0929  0.0839
 2175W        W18359  14.300  14.696   3.279  0.0830 -0.0154 -0.1857
 2176W        W18360  14.619   7.820  14.198  0.1449 -0.2923  0.1010
 2177W        W18361   6.833   0.299  13.258  0.0558 -0.2176  0.1715
 2178W        W18362   8.433  16.676  13.739 -0.3280 -0.0280 -0.3825
 2179W        W18363   7.224   4.629   3.133  0.2039  0.2049 -0.2836
 2180W        W18364   7.224   0.574   1.658 -0.1044  0.1111  0.0596
 2181W        W18365  18.572   1.932  11.951  0.0006  0.0415  0.0369
 2182W        W18366   0.541   7.253   1.354 -0.0136 -0.0871 -0.1068
 2183W        W18367   0.539  12.433   2.769  0.1213 -0.2109  0.2767
 2184W        W18368   2.002  13.515   9.503 -0.0907  0.0483 -0.0865
 2185W        W18369   2.138   9.755  12.994  0.3400 -0.1878  0.0553
 2186W        W18370   2.516  13.869   4.681  0.0173 -0.0036 -0.1125
 2187W        W18371  10.667  11.036   4.148  0.1391  0.1647  0.0114
 2188W        W18372  11.915  16.814  10.340 -0.1936 -0.1044  0.0836
 2189W        W18373   2.081  18.447  12.803  0.0852  0.3640 -0.1041
 2190W        W18374  13.151   1.879  12.889 -0.0562 -0.2438 -0.0120
 2191W        W18375   0.524   1.716  13.068 -0.3397  0.2515 -0.1834
 2192W        W18376  12.486   7.719  11.647 -0.4635 -0.1955 -0.1506
 2193W        W18377   3.847   8.443   4.554  0.2474 -0.1206 -0.2391
 2194W        W18378  16.626   5.904   3.570  0.2321 -0.2677 -0.0909
 2195W        W18379  13.365   1.896  13.324  0.0126 -0.2964 -0.2638
 2196W        W18380   2.789   0.630   3.364  0.0868 -0.2699  0.1223
 2197W        W18381   2.311  16.243  13.551 -0.0026  0.1874 -0.1318
 2198W        W18382   7.882   6.895  13.951 -0.0814  0.0033 -0.2443
 2199W        W18383   3.360  18.368  12.247  0.1753  0.0696 -0.1025
 2200W        W18384   4.882  13.739  14.775 -0.1311  0.2696 -0.5067
 2201W        W18385   5.434  16.798   3.154  0.1039 -0.0454  0.3466
 2202W        W18386   7.607   0.267   2.379  0.0947 -0.1880  0.0617
 2203W        W18387   1.664   9.269  14.539 -0.0992  0.3246 -0.0393
 2204W        W18388   1.445   5.811  12.559 -0.0689 -0.1106  0.3502
 2205W        W18389   1.549   3.412   4.034  0.1784  0.0343 -0.1354
 2206W        W18390  11.493  16.782  14.098  0.3477 -0.2629 -0.1997
 2207W        W18391  11.059   6.949  11.667  0.2939 -0.2496  0.2415
 2208W        W18392   1.745  10.084   4.169  0.1496 -0.4017 -0.3611
 2209W        W18393   7.637   7.721  10.337 -0.2398 -0.3992 -0.2478
 2210W        W18394   6.073   9.616   1.714  0.1669  0.2663  0.4524
 2211W        W18395  17.131   3.510  13.347  0.0883  0.2249 -0.2696
 2212W        W18396   3.745  17.294  14.056  0.1168 -0.1105  0.1154
 2213W        W18397   3.094  13.370  13.571  0.0445 -0.3172  0.1450
 2214W        W18398   1.458  14.982  14.154  0.0196  0.2294  0.0610
 2215W        W18399  12.120   3.290   0.797 -0.0520 -0.2877 -0.0748
 2216W        W18400   2.604   8.415  11.653  0.1112  0.0616  0.1330
 2217W        W18401  17.685   4.530  10.268 -0.2167  0.0325 -0.1510
 2218W        W18402   1.805  12.502   1.569  0.0314 -0.0162  0.1294
 2219W        W18403  12.388   9.438   1.720 -0.0209 -0.0568 -0.0704
 2220W        W18404   4.424  10.836   9.581 -0.0240  0.1389 -0.0336
 2221W        W18405   2.226  11.246   0.438 -0.0989  0.0669  0.2330
 2222W        W18406  13.063  17.894   6.114  0.1892 -0.2291  0.0347
 2223W        W18407  12.668   9.841  10.354  0.0535  0.1515 -0.0444
 2224W        W18408   1.814   1.276  12.194 -0.2464  0.3382  0.5592
 2225W        W18409   4.068   3.832   3.074 -0.1278 -0.3229 -0.1332
 2226W        W18410  14.750  13.859  11.199 -0.1075 -0.1605  0.0141
 2227W        W18411   2.009  10.878  11.930  0.1401 -0.0683  0.0831
 2228W        W18412  13.567  16.330  13.031 -0.0498 -0.0341 -0.1085
 2229W        W18413   6.822   0.787   3.240 -0.3460  0.0055  0.0753
 2230W        W18414   6.615   5.424  12.813 -0.1920 -0.2752  0.3698
 2231W        W18415  18.032   5.089   5.169  0.0210 -0.1660 -0.0181
 2232W        W18416   6.863   2.266   3.415 -0.1797 -0.3209  0.0953
 2233W        W18417  15.800  10.124  12.126  0.5423  0.2864  0.1592
 2234W        W18418  18.410   0.026  10.767 -0.1843  0.1210 -0.0035
 2235W        W18419  13.081   5.477   2.162 -0.1068 -0.4122 -0.0917
 2236W        W18420  10.886  18.926  11.053 -0.0986 -0.0314  0.0616
 2237W        W18421  10.843  12.370   2.247 -0.1326 -0.3849 -0.1010
 2238W        W18422  15.638  10.834   4.046 -0.1119 -0.3117 -0.1948
 2239W        W18423   9.330   6.582   2.284  0.1382  0.0024  0.0235
 2240W        W18424  12.587  18.928  11.007 -0.2268 -0.0039 -0.1344
 2241W        W18425   3.561  17.393   2.838  0.0777 -0.0017 -0.2299
 2242W        W18426   3.359   8.751   0.159  0.0017  0.3156 -0.2894
 2243W        W18427  13.767   8.471  13.995 -0.1871 -0.2650 -0.1689
 2244W        W18428  14.999   4.925   3.943  0.2115  0.0771 -0.1152
 2245W        W18429   4.920  18.621   0.841  0.1613  0.1334  0.1840
 2246W        W18430   3.206  14.774  10.251 -0.0456 -0.1251  0.1191
 2247W        W18431   0.175  10.931   4.671  0.1006  0.1333 -0.1678
 2248W        W18432  13.889   4.410   0.561  0.0399 -0.0345  0.1358
 2249W        W18433   9.410  15.415   4.388  0.1081 -0.0349  0.2640
 2250W        W18434   2.069  16.327   1.946  0.0344  0.3842  0.0524
 2251W        W18435   8.939  17.994   1.098  0.0705  0.0054  0.4540
 2252W        W18436   0.274   7.318   1.952 -0.4507 -0.0942 -0.0448
 2253W        W18437   1.724   4.625  14.813  0.2435 -0.0384 -0.0016
 2254W        W18438  12.445   5.035  12.971 -0.3675 -0.2024  0.0082
 2255W        W18439  13.098  13.251  10.790  0.2147 -0.2767  0.1925
 2256W        W18440  11.550  19.383  13.530 -0.1848  0.4639 -0.0277
 2257W        W18441   1.693  10.547  12.704  0.0110  0.0838 -0.2336
 2258W        W18442   8.826   4.279   0.817  0.3177  0.0902 -0.1577
 2259W        W18443  14.902   8.074  12.743 -0.3711 -0.0695 -0.3145
 2260W        W18444   1.290   1.395  11.981  0.2366 -0.1028  0.1351
 2261W        W18445  13.933  14.427   4.527  0.0796  0.0950  0.1853
 2262W        W18446   8.078   2.830  13.586 -0.0881 -0.0240 -0.3454
 2263W        W18447   0.116  10.729   0.508  0.1906  0.2054 -0.2856
 2264W        W18448   4.089  14.919  14.694 -0.2058 -0.2652 -0.0780
 2265W        W18449  19.131  16.078   1.925 -0.3777 -0.0682 -0.2244
 2266W        W18450  10.343   5.937   4.886  0.1848  0.1575  0.1233
 2267W        W18451  11.429   6.283  12.266  0.1440 -0.0089  0.0155
 2268W        W18452   3.733   6.381  12.428 -0.0818 -0.0534 -0.2842
 2269W        W18453   4.576  19.228  10.842 -0.1612  0.0709  0.1329
 2270W        W18454   3.267  16.410   4.065  0.1186 -0.4618 -0.0462
 2271W        W18455  15.420   5.314   0.706  0.1805 -0.0258  0.0434
 2272W        W18456  17.089   6.190   0.317  0.2381 -0.2025 -0.0663
 2273W        W18457  12.736   5.097  14.808  0.0648  0.2404 -0.1564
 2274W        W18458   0.619   8.831  11.637  0.2974 -0.3574 -0.0084
 2275W        W18459   4.831   5.801  13.236  0.0685 -0.2696 -0.2924
 2276W        W18460  17.629  17.935  13.587 -0.1647 -0.0945  0.4940
 2277W        W18461  13.838  19.383  13.182  0.0461 -0.0954  0.2822
 2278W        W18462  14.858   7.698  13.091 -0.1719  0.1622  0.3564
 2279W        W18463   5.244   8.055   1.215  0.0444 -0.0966  0.1297
 2280W        W18464  12.880  11.384  13.748  0.0985 -0.1784 -0.0803
 2281W        W18465  17.432   7.953   0.607 -0.0357  0.0132  0.0125
 2282W        W18466  11.813   5.530  14.843 -0.2519  0.1437 -0.0618
 2283W        W18467  12.225  10.046   5.047 -0.1139 -0.0166 -0.1246
 2284W        W18468  16.376   0.478  12.580  0.1322  0.1868 -0.1299
 2285W        W18469   0.423   7.860   4.909 -0.3546  0.1967  0.2232
 2286W        W18470   2.992  15.237   1.403 -0.3261 -0.1457 -0.2470
 2287W        W18471   7.246   4.204  10.872 -0.0556  0.5167 -0.1440
 2288W        W18472  12.701   5.203  10.039  0.0741 -0.0982  0.4370
 2289W        W18473   1.374   9.191  12.238 -0.0385  0.3390 -0.0437
 2290W        W18474  18.692  11.037   3.838  0.1070 -0.0748 -0.0954
 2291W        W18475  17.212   2.963   1.464  0.1596 -0.0216 -0.0572
 2292W        W18476  17.052  14.156   2.797 -0.0797 -0.0293 -0.2637
 2293W        W18477  18.333  16.497  14.738 -0.3337 -0.2425 -0.1196
 2294W        W18478  19.070   0.605  11.682 -0.0861  0.2052 -0.1675
 2295W        W18479   8.224   1.924   0.319 -0.0820 -0.4955  0.0550
 2296W        W18480   4.691  17.562   0.682 -0.3395 -0.3920  0.2557
 2297W        W18481   2.224  18.179   0.662  0.1233 -0.1326  0.1015
 2298W        W18482  18.375  16.535  13.001 -0.1139  0.0617  0.2741
 2299W        W18483  13.941  14.941  11.770  0.0486 -0.0444  0.4482
 2300W        W18484  13.067  13.089  13.145 -0.0164 -0.0090 -0.1451
 2301W        W18485   0.102   6.201  13.081 -0.1138  0.0095  0.0521
 2302W        W18486   3.700   8.505   3.417  0.0436 -0.2473  0.2000
 2303W        W18487   1.075   2.038   4.191 -0.1161 -0.2081 -0.2525
 2304W        W18488  16.959   1.451  14.105  0.1721 -0.0359 -0.1043
 2305W        W18489   5.194   1.567   3.845 -0.2029 -0.0330 -0.0935
 2306W        W18490   4.609   5.181   3.920  0.1923  0.2856 -0.0762
 2307W        W18491   7.558  11.445  11.660 -0.1817 -0.0777  0.2722
 2308W        W18492  13.589   6.945  11.169  0.0481 -0.3342 -0.1607
 2309W        W18493  17.622   5.334  13.197 -0.4580  0.0657 -0.2246
 2310W        W18494  12.988   0.901  13.179  0.1699 -0.3312 -0.0425
 2311W        W18495  10.439   3.130   5.160  0.2401  0.1169 -0.0485
 2312W        W18496   9.949   9.635   3.522 -0.0386  0.0032  0.2209
 2313W        W18497   0.598   2.591  11.868 -0.0608  0.1363  0.3306
 2314W        W18498   2.646  13.982  13.862  0.2659 -0.2947 -0.0923
 2315W        W18499   5.477  16.579  10.447  0.1159 -0.3296 -0.0789
 2316W        W18500   7.817  10.865  13.287 -0.2563 -0.2811  0.0355
 2317W        W18501   2.822   1.143   4.996 -0.0142  0.0223 -0.3160
 2318W        W18502  11.922   7.943   3.853 -0.2293  0.0584  0.0943
 2319W        W18503  14.438  13.494  13.499  0.2081  0.1338 -0.0889
 2320W        W18504  15.774   5.674   2.824  0.0344  0.0162 -0.4373
 2321W        W18505  12.617  15.533  11.810  0.2421  0.1414  0.1013
 2322W        W18506   1.706   9.692  13.301  0.0495 -0.2238 -0.0793
 2323W        W18507   4.490   5.685  12.737 -0.2930 -0.3500 -0.0365
 2324W        W18508  11.305   6.897  14.170  0.2655 -0.0491  0.2719
 2325W        W18509   3.257   4.358  14.537 -0.0450  0.1094  0.1013
 2326W        W18510  12.144   0.397   2.900 -0.0076 -0.1555  0.2453
 2327W        W18511   8.466  15.774   4.437 -0.0185  0.0589  0.4004
 2328W        W18512   9.803  10.500  10.239 -0.2953 -0.2386 -0.0728
 2329W        W18513   3.919  14.656   2.496  0.0836 -0.2040 -0.1209
 2330W        W18514   5.074   3.806  12.207 -0.2479  0.0325  0.5307
 2331W        W18515  13.386   0.875  12.859  0.0224  0.1711 -0.2950
 2332W        W18516   1.370  12.335   2.962 -0.1559 -0.1367  0.0463
 2333W        W18517  18.781   8.162   4.555  0.4768 -0.1398 -0.2831
 2334W        W18518  15.167   3.934  13.133 -0.2451  0.1201  0.1902
 2335W        W18519  16.481   3.937  13.758  0.1282  0.2908  0.2680
 2336W        W18520  17.398  10.046   1.766  0.1588  0.1129 -0.0633
 2337W        W18521  15.833  16.451   3.935  0.0802  0.3020 -0.0206
 2338W        W18522  15.658  12.982  13.341  0.1817  0.0309  0.0307
 2339W        W18523   3.592   7.165   1.507 -0.2877 -0.1413  0.1485
 2340W        W18524  17.481  18.642   2.812  0.1164  0.0195  0.1191
 2341W        W18525   1.043   2.659  10.557  0.0302  0.1075  0.2243
 2342W        W18526  10.854  17.822   4.542  0.2568 -0.1716 -0.0952
 2343W        W18527   1.249   2.572  12.567 -0.0647 -0.1301 -0.0511
 2344W        W18528  10.521   2.003   2.306 -0.0342  0.0543  0.1851
 2345W        W18529   5.904   4.719  13.893  0.0112  0.1631 -0.0067
 2346W        W18530  13.837   0.859   4.980 -0.0309 -0.1001  0.2893
 2347W        W18531  16.021  18.948  11.382  0.2478  0.1500 -0.0421
 2348W        W18532  10.239   5.450  14.817  0.3477  0.2321 -0.0883
 2349W        W18533   4.830   2.327   4.917 -0.1216 -0.6170 -0.0828
 2350W        W18534   8.872  17.467   1.596  0.1509  0.3521  0.1758
 2351W        W18535   5.694  16.325   3.293  0.0960  0.0029 -0.1841
 2352W        W18536  17.852  15.781   3.620  0.0138 -0.1461 -0.2189
 2353W        W18537  17.168   6.486  13.948  0.6076 -0.1485  0.2915
 2354W        W18538   2.159  12.275  10.966  0.0261  0.2005  0.2117
 2355W        W18539   9.284   5.313   2.416 -0.2821 -0.2575  0.2389
 2356W        W18540  14.401   3.046  14.107  0.4009  0.3981  0.1352
 2357W        W18541  18.209   5.629   1.124  0.0828 -0.3948  0.0335
 2358W        W18542   4.704  12.063  13.349  0.3974 -0.3312  0.1028
 2359W        W18543   0.711   2.698  10.031  0.2433 -0.0906  0.3945
 2360W        W18544   2.382  14.986  10.825  0.1586 -0.0331  0.0551
 2361W        W18545  12.584   2.173   2.542  0.0143  0.0089  0.1396
 2362W        W18546  12.543   9.968   4.615 -0.1439  0.2676  0.1633
 2363W        W18547   1.743  10.478  14.776 -0.0787 -0.0456 -0.3333
 2364W        W18548  12.551  11.310  14.171  0.0028  0.1619 -0.0462
 2365W        W18549  16.485  13.550   2.318  0.1406  0.0101  0.0964
 2366W        W18550  18.399   1.644  12.695 -0.1414 -0.1424 -0.2573
 2367W        W18551   1.569  16.602   5.456  0.1763  0.3300  0.0485
 2368W        W18552   3.601  18.337   0.585  0.0205  0.3708  0.1214
 2369W        W18553  12.615  16.353  14.868 -0.0071  0.0883 -0.1168
 2370W        W18554  19.047   7.554   3.853  0.1957 -0.0703  0.0250
 2371W        W18555   6.411   4.471  11.839  0.0385  0.1313  0.0890
 2372W        W18556   0.412   8.874  13.895 -0.0578  0.2047 -0.0686
 2373W        W18557   8.571   5.147   3.215 -0.1612  0.1332 -0.0236
 2374W        W18558   4.957  13.983   0.198  0.0208  0.4614 -0.1642
 2375W        W18559   5.690  17.186  14.801  0.0033  0.0598  0.0085
 2376W        W18560   3.170   6.191   4.707 -0.0337 -0.1023  0.1111
 2377W        W18561   7.756   1.986   3.756  0.1198  0.2116 -0.1993
 2378W        W18562   9.847  14.711  14.945  0.3196  0.1060 -0.4061
 2379W        W18563   7.074   9.633  11.000  0.1316 -0.1202  0.0283
 2380W        W18564   8.983   2.250   2.864 -0.0295  0.0444 -0.2175
 2381W        W18565  10.247   1.143  10.392  0.2059 -0.2097  0.3004
 2382W        W18566  12.692   7.370   3.974  0.0033 -0.0172  0.0860
 2383W        W18567  17.578   2.018  10.997  0.1802 -0.2875  0.2967
 2384W        W18568  10.051  11.276   0.855  0.1407  0.2179 -0.1154
 2385W        W18569   3.801   4.024  10.887  0.4162  0.3344  0.0394
 2386W        W18570  12.969   7.293  12.119  0.0193  0.0617  0.1489
 2387W        W18571   8.046   0.722   5.083  0.0552  0.2304 -0.2707
 2388W        W18572  11.235   7.556  14.837  0.0882  0.1058  0.0547
 2389W        W18573   2.328   5.587   4.052  0.1533  0.0776  0.1633
 2390W        W18574  11.963  19.359   5.695 -0.0095 -0.2398 -0.0629
 2391W        W18575  12.463  18.282  11.981  0.1264 -0.1677 -0.1346
 2392W        W18576  12.168   7.930   3.410  0.0434 -0.0087 -0.2036
 2393W        W18577  14.849   8.462   1.164  0.0164  0.1262 -0.3169
 2394W        W18578  14.443   9.109  10.584  0.1491  0.0446 -0.1239
 2395W        W18579   8.895   1.726   3.764  0.0057  0.1198 -0.0790
 2396W        W18580   1.168  16.388  13.223 -0.0513 -0.1870 -0.1058
 2397W        W18581  13.001  14.472   2.580  0.1482 -0.0777 -0.3962
 2398W        W18582  15.706   8.388  14.582 -0.2494 -0.1185  0.1856
 2399W        W18583   6.547  12.127   2.503  0.1112  0.1558  0.0592
 2400W        W18584  11.915   0.336  11.753  0.0356 -0.1894  0.3238
 2401W        W18585   5.156  19.361   3.368  0.0297  0.1163 -0.1718
 2402W        W18586  10.476  13.427   1.450 -0.1313  0.2955  0.0945
 2403W        W18587  18.083   3.671   0.674  0.0682 -0.0825  0.1114
 2404W        W18588   3.365  18.228  14.118 -0.0917 -0.1234 -0.2093
 2405W        W18589   1.458  17.905  13.171 -0.2026 -0.1876 -0.1963
 2406W        W18590  13.669   1.727   4.602 -0.4781  0.2058 -0.0430
 2407W        W18591   5.887  13.328  14.279 -0.1204  0.1497  0.0513
 2408W        W18592  15.397  11.976  13.225  0.2759 -0.1717  0.1557
 2409W        W18593  10.605   5.698   3.225 -0.3358  0.1399  0.1760
 2410W        W18594  13.706  12.850  14.626  0.1309  0.0659 -0.1605
 2411W        W18595  18.828  11.576   3.705 -0.2042  0.0506  0.3118
 2412W        W18596   8.827   0.616  12.886 -0.0604 -0.0636  0.1587
 2413W        W18597   9.591   6.221   1.652 -0.1191 -0.0462 -0.2625
 2414W        W18598   1.642  15.604  14.743 -0.0060 -0.1879  0.1410
 2415W        W18599  16.751  12.101  12.120 -0.1309  0.2342 -0.1471
 2416W        W18600   5.118  15.467   0.466 -0.3547  0.1768 -0.0131
 2417W        W18601  13.535   4.056   1.746 -0.1764 -0.2533 -0.2379
 2418W        W18602  10.546  15.287   2.092  0.0613 -0.3504 -0.1711
 2419W        W18603  14.926  17.887   4.160  0.1405 -0.2540 -0.0418
 2420W        W18604   7.875   0.047   3.193  0.1136 -0.1436  0.0286
 2421W        W18605  18.626  10.090   1.625  0.0811 -0.0800 -0.1176
 2422W        W18606  18.279   8.691   2.847  0.0794  0.1871 -0.3006
 2423W        W18607  17.801  16.236   5.522  0.0849  0.1612 -0.0547
 2424W        W18608   3.516  18.765   2.814  0.0191  0.1526  0.0775
 2425W        W18609  16.169  17.429   2.195 -0.1576  0.3985  0.2462
 2426W        W18610   0.760  18.512   0.516  0.0492 -0.0768  0.2028
 2427W        W18611  17.151   2.635   0.711  0.1475 -0.0815 -0.0577
 2428W        W18612  15.384   7.814   4.616  0.1285  0.1307 -0.0061
 2429W        W18613  12.160   1.652   5.271 -0.0009  0.0055 -0.2987
 2430W        W18614  13.932  15.132  14.755  0.1662 -0.2127  0.0289
 2431W        W18615  11.190   9.164  11.076 -0.0686 -0.1050  0.2339
 2432W        W18616  17.744   5.583   4.982  0.2070  0.1493  0.0224
 2433W        W18617  14.883   7.361   4.080 -0.1898 -0.1521  0.4559
 2434W        W18618  18.153   8.042   3.827  0.3725 -0.1359  0.0489
 2435W        W18619   4.832  11.443   3.992 -0.4717 -0.1031 -0.2144
 2436W        W18620  15.166  11.789  10.280 -0.1673  0.0643  0.1909
 2437W        W18621   6.704   0.959   5.239  0.1105  0.2176 -0.2405
 2438W        W18622  16.895  18.502  14.802  0.0246 -0.2110  0.3241
 2439W        W18623  17.217  18.200   3.023  0.0131 -0.0126  0.0352
 2440W        W18624  19.080   2.980  14.275 -0.2310 -0.0945  0.2582
 2441W        W18625   5.751   2.573  14.662 -0.0250  0.0509 -0.0953
 2442W        W18626  19.348   0.779  10.752 -0.1060 -0.0228 -0.1225
 2443W        W18627   1.093   4.691  11.828 -0.0519  0.1847 -0.4771
 2444W        W18628   1.497  13.274  10.159  0.0465  0.2122 -0.1819
 2445W        W18629   1.293  11.440  11.426 -0.1479 -0.1616 -0.2928
 2446W        W18630  14.463   8.746   1.676  0.1295 -0.1439  0.3183
 2447W        W18631  12.562  11.627  13.393 -0.1978  0.1169  0.0461
 2448W        W18632   0.151   0.850   2.375 -0.0924  0.0631  0.0902
 2449W        W18633  13.855   3.156   4.213 -0.0300  0.1546 -0.2411
 2450W        W18634   0.673   7.637   1.787  0.0043 -0.4920  0.0526
 2451W        W18635  11.585  12.031   1.802 -0.0051 -0.1535 -0.1290
 2452W        W18636   2.071  13.000   4.954  0.0110 -0.0972 -0.0627
 2453W        W18637  17.536  12.488   3.311 -0.1002  0.1232 -0.0045
 2454W        W18638  11.530   0.234  13.017  0.1718 -0.0985  0.0092
 2455W        W18639   9.597   4.348  14.007 -0.2591  0.0543 -0.0450
 2456W        W18640  14.799  11.007  14.000 -0.3090 -0.3104 -0.4257
 2457W        W18641   8.821  14.130  11.549  0.0838  0.1447 -0.1897
 2458W        W18642   4.720   9.386  14.536  0.0628 -0.0669 -0.1003
 2459W        W18643   1.020  19.158  10.562 -0.1647 -0.1827  0.1302
 2460W        W18644   5.350   4.475  11.114  0.2415 -0.2720  0.0897
 2461W        W18645   0.564   6.360  12.199 -0.0449  0.3369  0.1489
 2462W        W18646   3.537  19.157   4.468  0.5206  0.1326  0.3084
 2463W        W18647   7.142   7.337   0.829  0.0737 -0.2411 -0.3035
 2464W        W18648  15.517  18.989   3.414 -0.0587  0.0679 -0.0975
 2465W        W18649   5.843   5.584  11.577 -0.1705  0.0076 -0.1343
 2466W        W18650   0.748   8.940   1.660 -0.0382  0.2332 -0.4515
 2467W        W18651   8.575   7.066  14.586  0.2378 -0.1967  0.2747
 2468W        W18652   8.975  10.329   1.820 -0.0910  0.0172  0.2740
 2469W        W18653  18.419   0.693   2.629 -0.1654 -0.0908  0.1612
 2470W        W18654  16.800   2.671   1.301 -0.0031  0.1170  0.1838
 2471W        W18655   3.352  11.662  12.953 -0.4199 -0.1463 -0.0035
 2472W        W18656   6.109  13.403   1.990 -0.1238  0.1105  0.3818
 2473W        W18657  13.362   4.467  10.292 -0.3438  0.0744  0.0980
 2474W        W18658  15.254   5.671  12.599  0.0890 -0.1856 -0.0236
 2475W        W18659  10.670  16.913   8.966  0.1361 -0.3274 -0.0786
 2476W        W18660   4.385  13.022  11.639  0.4177 -0.0544  0.0365
 2477W        W18661   2.690  10.143   3.589  0.1811 -0.1234  0.1036
 2478W        W18662   4.311  11.295  14.365 -0.1633  0.2742 -0.1383
 2479W        W18663  17.824   0.944   1.532  0.2482 -0.0326 -0.0567
 2480W        W18664   1.042  15.321  13.000  0.1220  0.2270 -0.0665
 2481W        W18665  12.855  12.827   0.421  0.1218  0.3181  0.0809
 2482W        W18666   3.886   3.037   2.724  0.0445  0.0307  0.1372
 2483W        W18667  17.815  11.909   2.406  0.0042  0.3035 -0.1454
 2484W        W18668  13.115   1.408   4.432  0.1182  0.3493  0.3510
 2485W        W18669   3.833  18.377   1.578  0.2702  0.3099 -0.1165
 2486W        W18670  10.668  11.856   2.466  0.0140  0.2963  0.0632
 2487W        W18671  18.976   8.927   0.432 -0.1328  0.2645  0.0049
 2488W        W18672   8.688  16.504  12.092 -0.2507 -0.0099 -0.0935
 2489W        W18673   4.799   7.448  12.125  0.2274 -0.0517 -0.1222
 2490W        W18674  17.823  16.643   3.894 -0.0278  0.1806  0.2746
 2491W        W18675   6.067   5.075   0.048 -0.1441 -0.1926  0.0765
 2492W        W18676  17.700   7.819   3.721 -0.2685  0.2239 -0.2819
 2493W        W18677  16.933   3.389   2.775 -0.2201  0.0413  0.2172
 2494W        W18678   7.085   4.966  11.621  0.1687  0.1825 -0.1876
 2495W        W18679  18.221  14.588   3.153 -0.0812 -0.1939 -0.0636
 2496W        W18680  18.556  10.530  12.051 -0.1878 -0.0500  0.0560
 2497W        W18681   3.405  11.639  12.442  0.2447  0.1705 -0.0536
 2498W        W18682   1.757  19.164  14.654  0.2245 -0.2134 -0.0563
 2499W        W18683   9.737  17.337   0.913 -0.1838 -0.0683  0.0709
 2500W        W18684  19.121   8.056   3.912 -0.1019  0.0017  0.2770
 2501W        W18685  18.159  18.552   0.026 -0.2428  0.1292  0.1908
 2502W        W18686  17.649   6.743   3.302 -0.0545  0.0255  0.1716
 2503W        W18687   1.044  11.950   2.402 -0.2529  0.1279  0.0351
 2504W        W18688  14.048  11.372   3.218 -0.0685  0.0287  0.1291
 2505W        W18689  17.508  12.487  13.944  0.1549 -0.0460 -0.1354
 2506W        W18690  14.617   0.346  12.942  0.1916 -0.1350  0.2259
 2507W        W18691  13.028   0.284  14.615  0.1189  0.0604  0.1374
 2508W        W18692   7.679   3.673   2.706  0.0007  0.4815 -0.1217
 2509W        W18693  14.415   1.949   3.087  0.1015  0.0138  0.1026
 2510W        W18694   1.799  17.618   0.405  0.1178  0.0841  0.2216
 2511W        W18695   8.935   2.864   3.682 -0.0750  0.2238  0.1515
 2512W        W18696  18.609  16.025   2.707 -0.1512 -0.0889 -0.2459
 2513W        W18697  11.737   9.481   2.706  0.4909  0.0187  0.0283
 2514W        W18698   3.643  16.174   2.171 -0.1025 -0.2832  0.0033
 2515W        W18699   2.405   6.361   2.627  0.2814  0.1465  0.2215
 2516W        W18700  14.169   2.837   1.526  0.3054  0.1239  0.1422
 2517W        W18701   0.873   8.653   0.725 -0.0866 -0.2607  0.2573
 2518W        W18702  10.636   9.255   2.974 -0.0159  0.1966 -0.2905
 2519W        W18703  13.076  13.426  12.190  0.2342  0.2428  0.1862
 2520W        W18704  19.361   0.413   2.102 -0.3269 -0.0487  0.2187
 2521W        W18705  11.794  18.643  14.433  0.1657  0.0486  0.2342
 2522W        W18706  12.892   2.391   3.734 -0.1331  0.2044  0.0922
 2523W        W18707  16.235  18.130  14.454 -0.0107 -0.2326  0.3088
 2524W        W18708   7.112  13.027  12.892  0.0826  0.1605 -0.1448
 2525W        W18709  12.555  11.378   0.163  0.0488 -0.2343 -0.2064
 2526W        W18710   0.312   8.917   2.670 -0.1483  0.2391 -0.2644
 2527W        W18711   6.418  18.925  14.344 -0.1326  0.2552 -0.1217
 2528W        W18712   4.871   6.068   3.573  0.0482  0.1408 -0.0983
 2529W        W18713  16.487  14.640   6.274  0.1548 -0.2266  0.1127
 2530W        W18714  14.431  10.378   0.879  0.0226  0.0705  0.2902
 2531W        W18715  12.722   4.185  12.771 -0.2801 -0.1464  0.0330
 2532W        W18716  17.533   9.641  11.794  0.1831 -0.2450 -0.3663
 2533W        W18717   8.450   1.331   1.203  0.0520  0.1463 -0.0003
 2534W        W18718  17.298   7.929  10.575  0.2125  0.1033  0.0336
 2535W        W18719   0.145   9.615   5.318  0.3341 -0.2733 -0.3033
 2536W        W18720  13.159   6.243   4.670  0.1209 -0.0439 -0.1674
 2537W        W18721  11.940  18.805  13.528  0.1161  0.4787  0.1647
 2538W        W18722   0.668   1.016  13.761 -0.4299  0.1431  0.3942
 2539W        W18723   6.435   3.324  14.730  0.0303  0.2424  0.1696
 2540W        W18724  17.463  16.713   2.592  0.1105 -0.1298 -0.0772
 2541W        W18725   7.481   9.338  10.954 -0.2915  0.0901 -0.1732
 2542W        W18726   3.300  13.671  11.290  0.1710 -0.0698  0.2470
 2543W        W18727  18.487  11.433   0.350  0.0550  0.2626  0.0154
 2544W        W18728  15.023   0.273  12.346  0.0384 -0.0404  0.1554
 2545W        W18729   0.017   3.202   3.491 -0.0144 -0.1290 -0.1903
 2546W        W18730   6.989  12.663  13.264 -0.0090  0.0449  0.3005
 2547W        W18731   0.590   8.651  12.412  0.0905  0.2770 -0.1052
 2548W        W18732   7.037  10.246  14.392 -0.0101 -0.5462  0.1251
 2549W        W18733   3.173  10.998   0.879  0.0764 -0.0674  0.0641
 2550W        W18734   5.304  10.032  13.806  0.0501  0.2846  0.0733
 2551W        W18735   7.744  10.663   2.749 -0.1981 -0.0624  0.3125
 2552W        W18736   6.344  16.531  11.604  0.3703  0.1970  0.1559
 2553W        W18737   2.152   6.911   0.513  0.0018 -0.2750 -0.0384
 2554W        W18738   1.967   8.089  12.570  0.4138 -0.1515 -0.2419
 2555W        W18739   2.497   8.153   3.074 -0.0043  0.0956 -0.2822
 2556W        W18740   4.174  18.574  12.967  0.3745  0.0798 -0.0097
 2557W        W18741  13.832  16.923   5.456 -0.0351  0.5072 -0.3459
 2558W        W18742   1.336  17.163  13.610  0.1225  0.1630 -0.2013
 2559W        W18743   2.188  15.501   5.018 -0.2177 -0.4388 -0.1380
 2560W        W18744  10.700   9.371  14.702 -0.0267 -0.2245  0.2707
 2561W        W18745  17.391   9.084   2.092  0.2117 -0.1163 -0.5818
 2562W        W18746   8.166  14.932   1.221  0.2899  0.3011  0.0049
 2563W        W18747   9.581  18.764  14.010 -0.0216  0.0114 -0.2732
 2564W        W18748   4.613  18.212  10.787 -0.0272  0.2123 -0.0740
 2565W        W18749   8.611   5.559   3.560 -0.3080 -0.3284 -0.1582
 2566W        W18750   9.096   8.417  12.431 -0.0157  0.1187 -0.1542
 2567W        W18751   3.376   6.261   4.078 -0.1775  0.1006  0.0535
 2568W        W18752   3.830  18.675  14.553 -0.1775 -0.0089  0.1303
 2569W        W18753   7.421  13.986   4.402 -0.0745  0.1868 -0.2351
 2570W        W18754  11.394   8.635  13.540  0.1022 -0.1244  0.0599
 2571W        W18755  11.209   9.709   3.734  0.2032  0.1077  0.5338
 2572W        W18756   7.055  14.464   3.682 -0.3688 -0.2739 -0.2941
 2573W        W18757  15.573  18.217  13.763  0.1828  0.1914  0.0922
 2574W        W18758  12.750   6.444  14.720  0.0129 -0.0277 -0.1824
 2575W        W18759   8.498   6.070   9.234  0.2573  0.2287 -0.0597
 2576W        W18760  11.581   2.826  13.551 -0.1691  0.1610 -0.0367
 2577W        W18761  19.370   3.404  13.933 -0.1997  0.1224  0.0457
 2578W        W18762  10.908   9.503   1.090 -0.1074 -0.1891 -0.2884
 2579W        W18763   8.459   9.765   4.777 -0.2127  0.0331  0.6280
 2580W        W18764  18.642  18.662  10.869 -0.2716  0.0875  0.1436
 2581W        W18765   8.295   7.771  13.087 -0.1203  0.1193  0.1060
 2582W        W18766  10.345   8.256  10.310 -0.2616  0.1938 -0.1376
 2583W        W18767  13.064  13.704   2.077  0.3016 -0.1934 -0.2852
 2584W        W18768   6.060   8.288  14.336  0.0411 -0.2240 -0.0218
 2585W        W18769  10.930   2.580   1.000 -0.1675 -0.1338  0.2327
 2586W        W18770   0.214  16.435   2.915 -0.0373  0.3015  0.3496
 2587W        W18771  10.762   9.717   2.817 -0.0372  0.0664 -0.1128
 2588W        W18772  17.969   8.894   9.287 -0.2020 -0.1522  0.0289
 2589W        W18773   8.570  16.868   0.678 -0.3098 -0.6246  0.0152
 2590W        W18774   7.557   0.680   1.317  0.1587  0.3724  0.1442
 2591W        W18775   3.535  16.673  12.477  0.0363 -0.2225 -0.1516
 2592W        W18776   8.226   8.275  14.010  0.1641 -0.0247 -0.0512
 2593W        W18777   1.219  11.971  13.855 -0.3453 -0.0456  0.0510
 2594W        W18778   1.589  12.322  13.812 -0.1178 -0.0463  0.0722
 2595W        W18779   5.900   2.078  13.086  0.1027 -0.4281 -0.3508
 2596W        W18780  14.222   2.691  13.590  0.3981 -0.0122 -0.0834
 2597W        W18781   2.877   6.356  10.858 -0.3017 -0.0768 -0.0961
 2598W        W18782  13.347   3.111   2.012 -0.1052  0.1407 -0.0797
 2599W        W18783   7.307   7.435   3.787  0.2669  0.1463  0.4964
 2600W        W18784  16.594   0.824   4.640  0.0206 -0.1092 -0.0489
 2601W        W18785   6.491   7.560   1.539  0.1821 -0.1555  0.2470
 2602W        W18786   4.353   8.873   3.831  0.1152  0.2772 -0.0214
 2603W        W18787   6.385   0.680   5.423 -0.1097 -0.1202  0.0631
 2604W        W18788  13.989   0.288   0.569  0.1806 -0.0248 -0.1314
 2605W        W18789  11.355  12.511  10.181 -0.0086 -0.3562  0.3732
 2606W        W18790  16.054  11.827  10.771 -0.1584  0.0926 -0.0618
 2607W        W18791  13.301  15.200   1.347  0.0607  0.4330  0.0101
 2608W        W18792   4.595   8.087  10.178  0.1075  0.1097 -0.1775
 2609W        W18793   0.414   0.147   2.837  0.0977 -0.2330  0.0309
 2610W        W18794   6.645   4.916   2.942  0.0971 -0.0178 -0.1092
 2611W        W18795   9.176  11.923  12.327 -0.1327  0.0935  0.1970
 2612W        W18796   1.041   8.127  13.991 -0.3980  0.0990 -0.1825
 2613W        W18797  13.648  12.825   3.829  0.1154  0.3453  0.0570
 2614W        W18798  16.543  14.942   0.183 -0.1214  0.1250 -0.1491
 2615W        W18799  17.637   4.089   2.594 -0.0345 -0.0749 -0.1287
 2616W        W18800   8.057  11.902  12.502  0.3649 -0.3480  0.3850
 2617W        W18801  17.917  19.026   1.044 -0.0274  0.0471 -0.1207
 2618W        W18802  12.482   1.302   5.122  0.1173 -0.1271  0.1284
 2619W        W18803   1.202  18.527   4.496 -0.0402  0.0711  0.0619
 2620W        W18804   1.198  11.300   3.339  0.0751 -0.1280 -0.2475
 2621W        W18805   6.929   4.503  14.871 -0.0358 -0.0895 -0.2148
 2622W        W18806  19.095   7.315  14.913  0.0065  0.1100 -0.0989
 2623W        W18807  18.319  17.315   1.857  0.0957  0.1810  0.2528
 2624W        W18808   6.972  13.734   4.235 -0.4335  0.2056 -0.1606
 2625W        W18809  18.532   1.787  10.648 -0.1600  0.2862 -0.0009
 2626W        W18810   2.700  12.884   2.618  0.0653  0.0077 -0.1107
 2627W        W18811  15.139  15.401   0.520 -0.4375  0.1752 -0.0238
 2628W        W18812   6.286  15.474  12.387  0.0283  0.0009 -0.0946
 2629W        W18813   8.861  12.961   2.225 -0.0544  0.1489  0.1014
 2630W        W18814  12.038   7.025  10.783  0.1539  0.0406 -0.0599
 2631W        W18815   6.994  11.608   0.501 -0.2096 -0.3427  0.0407
 2632W        W18816  10.680   9.798   3.627  0.3305 -0.2999 -0.0328
 2633W        W18817  19.346  19.373   3.821 -0.2433  0.0155  0.2349
 2634W        W18818   9.868   6.507  12.206 -0.0946 -0.2880  0.3819
 2635W        W18819   5.572   3.230  14.304  0.1501 -0.0511  0.0668
 2636W        W18820   4.265  17.870   4.679  0.2381  0.1285  0.0053
 2637W        W18821  19.230  14.500   4.800 -0.1118 -0.3195  0.0736
 2638W        W18822  11.138   6.269  13.081 -0.2634  0.1521  0.0595
 2639W        W18823   3.828  10.616   2.046 -0.0979  0.0053  0.0001
 2640W        W18824  14.973   1.082   4.579 -0.2993 -0.1155 -0.1819
 2641W        W18825   1.314   6.723   0.191 -0.2667  0.2651  0.0356
 2642W        W18826  10.926  11.717   1.379 -0.3117 -0.2024 -0.2147
 2643W        W18827   6.773  16.738   2.727 -0.0785 -0.0908  0.0192
 2644W        W18828   2.612  11.213  12.044  0.5005  0.1214 -0.2291
 2645W        W18829  15.273   4.157   3.722 -0.1592 -0.3635 -0.5041
 2646W        W18830  18.944  19.157   3.681  0.0382  0.2282  0.0027
 2647W        W18831   5.238   1.585   0.093  0.0053 -0.0811  0.1124
 2648W        W18832   9.816   4.974   1.179  0.0622  0.2573  0.0965
 2649W        W18833   1.838  16.605  14.820 -0.0152  0.1954  0.2068
 2650W        W18834  11.508  16.012   1.462  0.1780  0.0781 -0.1767
 2651W        W18835   6.020  10.108   4.374  0.0668 -0.0996  0.2821
 2652W        W18836   0.262  12.617   1.391  0.0133  0.0059  0.1212
 2653W        W18837  11.229   6.344   2.443 -0.0320 -0.0130 -0.0156
 2654W        W18838  19.232   1.197  10.975 -0.0546  0.1359 -0.2379
 2655W        W18839  17.276  15.636  12.680 -0.1838  0.0932  0.1261
 2656W        W18840  11.277   8.708   1.286  0.1604  0.0240 -0.1106
 2657W        W18841   5.738   4.395   3.740  0.2817  0.1433 -0.2615
 2658W        W18842   8.176   1.867  13.297  0.1478  0.4511  0.1258
 2659W        W18843  12.943   7.826  13.006  0.2708 -0.1228 -0.3146
 2660W        W18844   3.922  18.770   3.581  0.1487  0.1487 -0.2192
 2661W        W18845   1.382   7.599  12.477 -0.2428  0.2388 -0.2908
 2662W        W18846  10.248  12.979   2.617  0.1394 -0.1093 -0.2239
 2663W        W18847   1.407  10.928  11.258 -0.1537  0.0793  0.2693
 2664W        W18848   5.240  11.322  12.986 -0.1062 -0.0295  0.0077
 2665W        W18849   6.800   9.374  10.603  0.0218  0.2788  0.1620
 2666W        W18850   9.850   9.139  12.925  0.0246  0.2258 -0.1174
 2667W        W18851   9.656   1.606  12.595  0.1801  0.1384  0.2502
 2668W        W18852   8.923  15.645  14.042 -0.0588 -0.2466 -0.1757
 2669W        W18853   6.438   9.844  12.343  0.0688  0.1259  0.1561
 2670W        W18854  18.502   5.755   1.651 -0.1782  0.0514 -0.4654
 2671W        W18855   1.349   3.925  14.516  0.3056 -0.3033  0.1045
 2672W        W18856   3.171  16.770   4.476 -0.2798  0.4108 -0.0309
 2673W        W18857  16.107  18.680   1.334  0.1882  0.0778 -0.0730
 2674W        W18858   1.614  10.911  10.021  0.0878 -0.4296 -0.1491
 2675W        W18859  16.653  16.027   4.099  0.2632 -0.0242  0.1858
 2676W        W18860  10.516  17.945   2.970  0.2636  0.3571  0.3056
 2677W        W18861   0.690  10.167  14.849  0.0165 -0.0637  0.1551
 2678W        W18862  12.427   7.299  10.758  0.1461  0.0311  0.1092
 2679W        W18863  19.117   8.987   5.165 -0.0083 -0.1962 -0.1191
 2680W        W18864   9.026  10.689  14.941 -0.1217 -0.0423  0.2088
 2681W        W18865  18.316   5.649   5.096  0.5970  0.0520 -0.1452
 2682W        W18866   1.656   2.274  12.292  0.2693  0.1888  0.4102
 2683W        W18867   2.357   2.772  14.037 -0.3629  0.1607 -0.4346
 2684W        W18868  15.549   8.599   3.142  0.2453  0.3086  0.2948
 2685W        W18869   0.455   2.200   0.465  0.0658 -0.1794  0.1440
 2686W        W18870   4.536   3.866  13.964  0.2414 -0.1491  0.2528
 2687W        W18871  13.009   7.803   4.757 -0.1665 -0.4119 -0.1451
 2688W        W18872   8.602  19.060  12.878  0.0225 -0.0027 -0.0534
 2689W        W18873   3.303  13.187   2.941  0.1850  0.3320 -0.0204
 2690W        W18874   6.167  12.283  13.779  0.1892 -0.0182  0.1928
 2691W        W18875  14.753   6.304  14.114  0.2071  0.1681 -0.0603
 2692W        W18876  17.234  13.148  13.109 -0.0308 -0.0023  0.0681
 2693W        W18877   8.079  11.113   9.902 -0.4529  0.1143 -0.0635
 2694W        W18878  14.803   6.865  14.915  0.1223 -0.0613  0.0459
 2695W        W18879  17.619  11.809  13.200  0.1815 -0.1433 -0.3267
 2696W        W18880   1.536   8.459   2.704  0.2527 -0.0605  0.2857
 2697W        W18881  15.027  19.207  14.716 -0.3825 -0.0677  0.1543
 2698W        W18882   2.862  13.077   4.351 -0.0582  0.1918 -0.1752
 2699W        W18883  11.525   7.210  14.484 -0.0290  0.1750 -0.0707
 2700W        W18884  16.612   8.299  12.956  0.0089  0.0792 -0.0191
 2701W        W18885   7.909   6.334   1.845  0.4847  0.0757 -0.2556
 2702W        W18886  12.015   3.513  13.872 -0.3083  0.1074 -0.0499
 2703W        W18887   7.612   3.989  10.534 -0.0187  0.1090  0.0022
 2704W        W18888  13.073   1.350   0.651 -0.1900 -0.0038 -0.1931
 2705W        W18889   1.002   5.135   4.289  0.0538  0.0834  0.1225
 2706W        W18890  16.963  15.013   3.155 -0.0666  0.2653 -0.2643
 2707W        W18891   7.795   2.079   0.142 -0.4542 -0.0672  0.0152
 2708W        W18892   7.897  17.657   4.308 -0.0452 -0.0137  0.0506
 2709W        W18893  13.775  17.307   5.088  0.1934  0.0331  0.1122
 2710W        W18894   9.774   3.174  11.607 -0.1255 -0.0747 -0.0683
 2711W        W18895  12.636   6.839   9.274  0.2483 -0.2167 -0.0376
 2712W        W18896   9.696   6.250  12.885 -0.2442  0.0544 -0.3278
 2713W        W18897   3.954  12.217  13.984  0.0935 -0.2451  0.0295
 2714W        W18898   9.052   1.490  12.639 -0.1665 -0.0804 -0.2188
 2715W        W18899  16.465  12.929   3.230  0.1440 -0.1594  0.0023
 2716W        W18900   4.958  13.558  10.157  0.2502 -0.0819 -0.0481
 2717W        W18901  18.030  14.162   0.940 -0.3500  0.0199  0.0295
 2718W        W18902  11.246   3.818   2.571 -0.3916  0.0645 -0.4941
 2719W        W18903  18.759  12.929  12.743 -0.1624 -0.1439 -0.0323
 2720W        W18904  18.367  13.990   4.780 -0.0685  0.3989 -0.4038
 2721W        W18905  16.176   3.447  13.655 -0.0332  0.1505  0.0563
 2722W        W18906   2.696   1.673   2.455 -0.1743 -0.0301 -0.1537
 2723W        W18907  17.543  17.601   0.488  0.1220  0.0582  0.0980
 2724W        W18908  18.628   1.754  14.745 -0.0623 -0.0920  0.1032
 2725W        W18909  15.894  10.355   0.775  0.0723  0.3360 -0.0311
 2726W        W18910   5.853   1.651   3.072 -0.3668  0.2992  0.0954
 2727W        W18911   3.616   3.603  10.260 -0.0176 -0.0106 -0.2851
 2728W        W18912  18.361   2.630  14.408  0.0846  0.1420 -0.2471
 2729W        W18913  14.341   8.581  12.152 -0.0160  0.1770 -0.1679
 2730W        W18914   4.130   5.323   0.268 -0.2097  0.0704  0.1347
 2731W        W18915   1.915   2.558  13.889 -0.3407 -0.0381  0.3528
 2732W        W18916   0.734  15.900  10.858 -0.0075 -0.1927  0.2770
 2733W        W18917  13.233  19.090  12.614 -0.0485  0.1037  0.0629
 2734W        W18918  18.002  13.318   1.938 -0.1037 -0.1181 -0.2692
 2735W        W18919   7.711  18.018   3.477 -0.2119  0.4423 -0.0197
 2736W        W18920   4.429  17.927  13.561  0.0472 -0.0684 -0.1091
 2737W        W18921  14.663  12.135   0.164  0.0229 -0.1361  0.0055
 2738W        W18922  11.185   6.022   1.625 -0.2514  0.1227 -0.0782
 2739W        W18923   5.436   2.438   3.303 -0.4804  0.1701 -0.1390
 2740W        W18924  18.843   5.064   3.770 -0.2473 -0.0222 -0.0685
 2741W        W18925   9.820  12.059  10.963 -0.0617 -0.1025 -0.1855
 2742W        W18926   7.873   9.016  12.108 -0.1070  0.2862 -0.1053
 2743W        W18927  18.231  16.797  13.929 -0.2187 -0.2522 -0.0746
 2744W        W18928   9.781  13.671  12.200  0.3009 -0.3561 -0.4723
 2745W        W18929  16.857  15.898  11.435 -0.2807  0.0323 -0.1392
 2746W        W18930   5.781   4.293   0.496 -0.0402  0.0565 -0.2951
 2747W        W18931   4.601   5.770   3.210 -0.3026 -0.1142  0.1437
 2748W        W18932  18.085   0.215  14.443  0.2194 -0.4075  0.1594
 2749W        W18933  18.308   2.802   1.906  0.1102  0.3508 -0.4039
 2750W        W18934  16.683   9.140  14.502  0.0490  0.0586  0.1814
 2751W        W18935  15.557   1.419  11.287  0.2130  0.3541 -0.1415
 2752W        W18936  18.464  17.981  12.062 -0.0070 -0.1098  0.0282
 2753W        W18937  15.075  17.606   1.770 -0.0262 -0.1788  0.1250
 2754W        W18938  11.970   4.777   2.708 -0.0518  0.3528 -0.0458
 2755W        W18939  16.353   5.329  11.383  0.5331  0.1214 -0.1727
 2756W        W18940   4.608   0.445  14.872  0.0153  0.0217 -0.0128
 2757W        W18941   0.290  16.737   0.214  0.1353 -0.2703 -0.0385
 2758W        W18942   7.203   3.465   2.440  0.1870 -0.0346 -0.3593
 2759W        W18943   4.115   0.900   1.598  0.2771 -0.2496  0.0866
 2760W        W18944   4.007   4.610   0.976 -0.2783 -0.1730 -0.2736
 2761W        W18945  17.110  14.988   2.332 -0.2069 -0.0244 -0.0419
 2762W        W18946  14.951  15.454  10.919 -0.1704 -0.0881  0.0278
 2763W        W18947   5.572   2.407  11.747 -0.3128 -0.0040  0.1546
 2764W        W18948  14.056   6.576   2.431  0.1582 -0.2458  0.3226
 2765W        W18949   0.051  18.899  13.599  0.0311 -0.0436 -0.1680
 2766W        W18950  11.838  13.607   0.464  0.0025  0.0300 -0.2065
 2767W        W18951   6.231   2.598   9.530 -0.1603 -0.0928 -0.2131
 2768W        W18952  13.682  17.013   0.518 -0.4173  0.2078  0.0527
 2769W        W18953  17.961   2.844  12.166 -0.1908 -0.1268 -0.0196
 2770W        W18954  14.336   5.061   0.844  0.3255 -0.1685 -0.0606
 2771W        W18955   4.828   8.894  13.640  0.1673 -0.1234  0.2250
 2772W        W18956   8.634  11.065   2.697  0.1957  0.1492  0.0091
 2773W        W18957   8.463   5.265  12.374  0.2539  0.0813  0.0240
 2774W        W18958  17.250  11.762  12.283 -0.0733 -0.0450  0.0773
 2775W        W18959   1.455  17.173  14.810 -0.3077  0.0612 -0.1396
 2776W        W18960   5.551   0.233  10.562 -0.0595  0.0966  0.0301
 2777W        W18961   6.812   9.704   4.206 -0.3213 -0.0314 -0.3574
 2778W        W18962  13.953   8.789   2.638 -0.2774  0.1539 -0.3843
 2779W        W18963  18.958   9.071  10.452  0.2205  0.1011  0.0702
 2780W        W18964  12.803   1.052  10.628 -0.0893  0.0491  0.0771
 2781W        W18965  19.321   0.589   1.132  0.1502 -0.2013 -0.2605
 2782W        W18966  16.376   8.486  11.344 -0.1655 -0.1241  0.3399
 2783W        W18967   2.880  11.590   0.141 -0.0223  0.0613  0.0822
 2784W        W18968   5.231  16.820   0.550  0.1648  0.0301 -0.0069
 2785W        W18969  17.652  17.498  10.889 -0.1963 -0.1261  0.0034
 2786W        W18970   6.713   4.481   1.553  0.0628  0.1798  0.0893
 2787W        W18971  18.190   7.339  14.298  0.1123 -0.0127  0.0435
 2788W        W18972   8.591   6.329   3.117 -0.1609  0.1923 -0.0215
 2789W        W18973   4.268  19.371   3.019  0.0971  0.0244  0.0593
 2790W        W18974  16.459  10.455   1.923  0.2986  0.3010  0.2451
 2791W        W18975  17.820   1.540  11.126  0.1129 -0.1896  0.0811
 2792W        W18976  14.070   6.134  13.600 -0.0745  0.0706 -0.2349
 2793W        W18977   7.971   2.086   1.506 -0.0094 -0.0537  0.1106
 2794W        W18978  13.788  12.513  14.199 -0.0605 -0.3920  0.1667
 2795W        W18979   2.893  16.515   4.874  0.0510 -0.0208 -0.3070
 2796W        W18980   9.403   7.364   3.949  0.1184  0.2693  0.1905
 2797W        W18981   7.148   0.102   1.017 -0.1332  0.2497 -0.3191
 2798W        W18982  10.523  17.215   4.192  0.0304  0.0815  0.2201
 2799W        W18983  13.820   0.888   0.021  0.0343  0.5425 -0.0416
 2800W        W18984  12.005  15.977  14.146 -0.0432  0.0083  0.0172
 2801W        W18985   9.082  10.421   5.452  0.0075 -0.4877  0.1005
 2802W        W18986  13.111   6.984   5.339 -0.0013 -0.0832  0.0779
 2803W        W18987   1.725  10.075  12.877  0.0908  0.1415  0.2290
 2804W        W18988   7.068  16.897   3.379 -0.2230 -0.2980 -0.2450
 2805W        W18989   8.813   4.559   0.310 -0.2875 -0.1442 -0.1387
 2806W        W18990   2.958  15.264   3.944  0.1927  0.4451 -0.0832
 2807W        W18991   8.212   5.603   3.203  0.0887 -0.1152  0.2254
 2808W        W18992   7.382   3.708  11.656 -0.1986  0.0352 -0.1472
 2809W        W18993  12.856  13.196   1.507  0.1913 -0.3494  0.1377
 2810W        W18994  18.950  17.851   3.184  0.0235 -0.2292  0.1006
 2811W        W18995  13.587  10.925   4.182  0.0807 -0.0464 -0.0914
 2812W        W18996  11.546  13.583   2.897 -0.2488 -0.2046 -0.2684
 2813W        W18997  18.022  11.159  10.802 -0.3579 -0.3517  0.2307
 2814W        W18998   7.989  19.335   3.842  0.1609 -0.1947  0.2161
 2815W        W18999   6.790  15.378   0.051  0.0573  0.1328 -0.0384
 2816W        W19000  10.963   0.627   1.741 -0.0093  0.1493 -0.1957
 2817W        W19001   2.689   0.409   4.230 -0.1055  0.2303  0.1881
 2818W        W19002  17.088  16.172  10.957  0.4024  0.0472  0.0573
 2819W        W19003   2.495  10.630   2.440 -0.3351  0.0877  0.4081
 2820W        W19004  12.417  18.389  13.624 -0.1446 -0.0265  0.2798
 2821W        W19005   7.942   1.503   0.346  0.3663 -0.0901 -0.0088
 2822W        W19006  19.174  18.259  10.746  0.1666  0.1948 -0.0740
 2823W        W19007   0.245   3.343   1.813  0.1538 -0.2668 -0.0203
 2824W        W19008   1.924   8.542   5.102 -0.1646 -0.1573 -0.0006
 2825W        W19009   8.271  13.633   0.022  0.1232  0.2946  0.2357
 2826W        W19010   8.848   6.939  10.939  0.2554 -0.0370  0.1623
 2827W        W19011   5.531   1.183   2.348 -0.3473 -0.0667 -0.0954
 2828W        W19012   5.905   2.220   1.422 -0.4702 -0.1344 -0.0459
 2829W        W19013   3.478  17.889  11.897  0.1396 -0.0996  0.1032
 2830W        W19014   1.714  12.888   4.592  0.2770 -0.0975 -0.3623
 2831W        W19015  11.616   2.393  13.117 -0.0992  0.3246 -0.2025
 2832W        W19016   9.316  12.318   1.669 -0.1348  0.0416 -0.0261
 2833W        W19017   4.649   9.956  10.727  0.0148  0.1367 -0.1448
 2834W        W19018   3.436   1.288   1.228  0.4151  0.1289 -0.1396
 2835W        W19019   8.097   2.451   4.881  0.0973  0.1374  0.0770
 2836W        W19020  16.035  10.515  12.310 -0.0287  0.4789  0.0007
 2837W        W19021  12.901  18.469  13.652  0.2005 -0.4784 -0.0215
 2838W        W19022  12.819   6.719   1.903  0.1923 -0.1801 -0.0298
 2839W        W19023  17.970  15.108  13.927 -0.0972 -0.2550 -0.1792
 2840W        W19024   8.416   8.453   0.805 -0.2095 -0.1428 -0.0452
 2841W        W19025  17.207   7.720  13.300 -0.1437 -0.4169  0.1429
 2842W        W19026   1.539  16.101  14.808  0.0661 -0.2253  0.3136
 2843W        W19027  11.201   7.289  12.096  0.1085 -0.0573 -0.0562
 2844W        W19028  11.563  17.457   9.440  0.1984  0.4571  0.1185
 2845W        W19029  13.537  14.009  13.204  0.0960 -0.1995 -0.0022
 2846W        W19030  10.815  16.477   3.477 -0.2117 -0.1505 -0.0393
 2847W        W19031   8.899  17.954  11.024 -0.1410  0.1283  0.3383
 2848W        W19032  12.559   1.595   1.948  0.0003 -0.0913  0.3494
 2849W        W19033  13.497   2.520   2.081  0.0865 -0.2124  0.1267
 2850W        W19034  13.191   0.591   1.346 -0.0802 -0.1302  0.1640
 2851W        W19035   5.758  10.063  13.533 -0.1932  0.0373  0.1840
 2852W        W19036   4.052  16.788   1.574 -0.1633 -0.5029 -0.1755
 2853W        W19037   2.742   6.945   9.323  0.0190  0.2541 -0.1633
 2854W        W19038   2.077  17.397   2.665  0.2589 -0.2677  0.1048
 2855W        W19039   4.696  17.548  11.167  0.1427 -0.1446 -0.0514
 2856W        W19040  11.717   5.115   3.058 -0.1070  0.1167  0.0148
 2857W        W19041  16.361  15.434   3.210 -0.0204 -0.1521 -0.0558
 2858W        W19042   7.511  14.331   3.807 -0.3570  0.0866  0.1060
 2859W        W19043  10.985   5.194  12.309 -0.3968 -0.1274  0.0038
 2860W        W19044   0.738  14.800  13.643  0.2697 -0.0113 -0.0892
 2861W        W19045  10.746  12.457  14.343 -0.0171 -0.0464  0.1628
 2862W        W19046   8.860  10.011   0.890 -0.2103 -0.0810  0.1532
 2863W        W19047  11.240   1.974  12.477 -0.0228  0.0714 -0.0780
 2864W        W19048   5.817   1.571   3.600  0.3276 -0.0378  0.5161
 2865W        W19049   7.371  18.672  12.126  0.2779  0.3059 -0.1090
 2866W        W19050  16.704  16.996  11.802 -0.0759 -0.0073  0.0769
 2867W        W19051  14.599   1.149  11.778  0.0020 -0.7015 -0.0660
 2868W        W19052   9.441  14.721  14.624 -0.1446  0.0195  0.0958
 2869W        W19053   5.670   6.722  11.760  0.0266 -0.2561 -0.0645
 2870W        W19054   8.799  11.049   0.855 -0.1642  0.0196 -0.1342
 2871W        W19055  16.793   9.372  12.952  0.2891 -0.0520 -0.0343
 2872W        W19056   9.569   3.659  11.924  0.2383 -0.0080 -0.0608
 2873W        W19057  12.162  13.325  11.921  0.2155  0.1099  0.1611
 2874W        W19058   6.255  13.136  12.214  0.4654  0.0299  0.3021
 2875W        W19059  17.814   3.563  13.766 -0.0596  0.0520 -0.4696
 2876W        W19060  15.549   1.748  13.761  0.1817  0.1197 -0.0393
 2877W        W19061   8.242  15.158  11.629  0.4215  0.4877 -0.2349
 2878W        W19062  11.949   5.711  12.044 -0.0560 -0.2364  0.1055
 2879W        W19063  12.090   7.840  10.067 -0.2456 -0.1273  0.1339
 2880W        W19064   0.766   5.901   2.397  0.1807 -0.2475 -0.1536
 2881W        W19065  10.437   1.845  12.428 -0.0811  0.0600 -0.1218
 2882W        W19066   3.431   2.976  14.138 -0.0721  0.1376 -0.0813
 2883W        W19067   0.923   2.839   3.492  0.1019 -0.0700 -0.2333
 2884W        W19068  17.480  17.327   2.602  0.2609 -0.1599 -0.0263
 2885W        W19069   9.417   9.299   4.675  0.2395  0.2350 -0.3086
 2886W        W19070  16.552  17.624  10.973  0.0871  0.0476  0.1091
 2887W        W19071  18.689  18.868  12.361  0.0456 -0.1950  0.2066
 2888W        W19072   8.589   3.628   3.205 -0.3310  0.1928 -0.1907
 2889W        W19073   8.359   3.687   2.697  0.1413 -0.0376 -0.1882
 2890W        W19074  14.114   1.945  12.761 -0.4776 -0.0691  0.1208
 2891W        W19075   2.952  14.872  10.841 -0.0741  0.0096  0.0925
 2892W        W19076  13.182   3.163  14.652  0.1782 -0.0118 -0.0894
 2893W        W19077  11.925  15.147   3.125 -0.2230  0.0340 -0.0557
 2894W        W19078   2.537   6.691  13.488 -0.2068  0.0723 -0.0456
 2895W        W19079  12.284  13.650  13.912  0.1131 -0.1031  0.1509
 2896W        W19080   3.293   7.147  12.368 -0.0979  0.1870 -0.1960
 2897W        W19081   0.245  17.658   0.295  0.2380 -0.2121 -0.3909
 2898W        W19082   9.570   9.488   2.474 -0.1525  0.0623 -0.0466
 2899W        W19083   7.925   6.484  10.181  0.2516  0.0900  0.1753
 2900W        W19084   7.626  18.470  14.343  0.0398 -0.1764 -0.2627
 2901W        W19085   6.201   2.309  14.841 -0.0650  0.1065 -0.1719
 2902W        W19086   6.702   9.363   3.312 -0.1227 -0.2081  0.5031
 2903W        W19087  15.303   7.783   3.666 -0.0617  0.2893 -0.0313
 2904W        W19088  16.708   1.288  13.662 -0.0157 -0.1520 -0.0163
 2905W        W19089   9.430  17.028  12.420 -0.0336 -0.0612  0.0234
 2906W        W19090  13.448   0.406   2.830  0.2139 -0.0877  0.1321
 2907W        W19091  13.296   5.609   5.530  0.0697 -0.0066  0.1923
 2908W        W19092   2.834  16.192   1.841  0.1001 -0.3419 -0.1154
 2909W        W19093   3.804  11.000   0.241 -0.0635  0.2061  0.3687
 2910W        W19094   8.195   4.427   4.085  0.4103 -0.0192 -0.0618
 2911W        W19095   1.227   0.917  14.869  0.0146  0.1914  0.2028
 2912W        W19096   5.782  12.054  14.664 -0.1767 -0.2075 -0.3136
 2913W        W19097  16.859   2.238   3.618 -0.1622  0.0694 -0.0887
 2914W        W19098   8.912  15.214  12.667 -0.1024 -0.0398 -0.1811
 2915W        W19099  16.928  15.664   3.885  0.0378  0.0036  0.4293
 2916W        W19100   8.047   6.146   2.344  0.2995  0.1524  0.1344
 2917W        W19101  11.902   4.235   2.535  0.4412 -0.1809  0.1140
 2918W        W19102  18.495   8.325   2.579 -0.0779  0.3029 -0.3522
 2919W        W19103   5.371  10.568  12.995 -0.0046  0.0957 -0.0147
 2920W        W19104   7.556  10.817   0.878 -0.1023 -0.1532 -0.0246
 2921W        W19105   9.796   2.222   3.480  0.4504 -0.2676 -0.2953
 2922W        W19106   0.033   0.440   3.537 -0.1842 -0.4479  0.5715
 2923W        W19107   9.782   5.636   0.029 -0.0657  0.0865  0.0673
 2924W        W19108   7.063   5.696  14.442  0.1035 -0.0375 -0.2383
 2925W        W19109  15.358   7.555  10.417  0.2990  0.2459  0.0184
 2926W        W19110   2.142  16.864  11.494  0.0250  0.0163 -0.1689
 2927W        W19111   1.286   4.402  14.679 -0.0035  0.0324 -0.1526
 2928W        W19112  12.036  10.529   0.567 -0.1126  0.1741 -0.0027
 2929W        W19113   4.642  13.976  10.350  0.2334  0.0741 -0.2929
 2930W        W19114  17.092   7.875   4.989  0.0885  0.0834  0.2590
 2931W        W19115   9.625   2.974   3.806 -0.1062  0.0968 -0.1055
 2932W        W19116   4.389   8.599   1.536 -0.2308 -0.2443  0.1098
 2933W        W19117  15.878  14.478   5.651 -0.0900  0.0676  0.2065
 2934W        W19118  11.118  14.778  13.816 -0.0802  0.1992  0.1735
 2935W        W19119   5.259  16.236   1.932 -0.2032  0.1359 -0.0203
 2936W        W19120   3.961   6.758   1.294 -0.0061  0.0015 -0.0387
 2937W        W19121   4.295  10.925  12.029  0.2100 -0.0825 -0.1571
 2938W        W19122  14.109   6.609  13.438  0.2204  0.1341  0.1308
 2939W        W19123   3.036   1.161  14.186  0.1012 -0.0119 -0.3782
 2940W        W19124  10.517   9.481  13.849 -0.0418  0.1790 -0.0193
 2941W        W19125   8.098   5.304   1.616 -0.0860 -0.0616  0.0268
 2942W        W19126   2.211   7.385   0.656 -0.1239  0.1240 -0.0868
 2943W        W19127   3.435  18.915   3.572 -0.1621 -0.0975 -0.1657
 2944W        W19128   2.401   6.198  13.536  0.0008  0.0600 -0.1917
 2945W        W19129  13.682   3.028  14.315  0.2925 -0.0876 -0.3257
 2946W        W19130   1.512  14.549   2.614  0.1901 -0.3294 -0.0526
 2947W        W19131  16.676   6.915   4.432  0.2713  0.1330 -0.1039
 2948W        W19132   8.248   7.965  13.571 -0.1231 -0.3569  0.0799
 2949W        W19133  19.092   6.775  12.972 -0.0932 -0.0480 -0.0133
 2950W        W19134   9.259  13.551   2.171 -0.0919 -0.0282  0.0728
 2951W        W19135  18.504   8.732   1.171  0.2195  0.1810  0.2568
 2952W        W19136  16.758   7.114   0.144  0.0360 -0.0363 -0.2264
 2953W        W19137   6.046   5.061   2.809  0.4521 -0.0705 -0.0131
 2954W        W19138  19.148  16.416   5.262 -0.0840  0.4093 -0.0485
 2955W        W19139  17.659  11.886  11.741 -0.0694 -0.0665  0.2139
 2956W        W19140   8.107  17.016  10.674 -0.0728 -0.0782 -0.0997
 2957W        W19141   6.623  11.276  12.881 -0.2310  0.0094 -0.2475
 2958W        W19142   3.125   2.107   3.301  0.2282 -0.3826 -0.0258
 2959W        W19143  11.267  14.790   0.261 -0.2053 -0.2669  0.0357
 2960W        W19144   1.675  13.038   1.770 -0.0896 -0.0794  0.0765
 2961W        W19145  12.389  12.386   2.766 -0.1108  0.0257 -0.1000
 2962W        W19146  19.383   5.040   5.531 -0.1898 -0.0167  0.1183
 2963W        W19147   7.726   9.828  13.282  0.0208  0.1200  0.0101
 2964W        W19148  17.999  10.212   0.206 -0.1908  0.0141 -0.3731
 2965W        W19149  13.720  13.270   1.905 -0.1241  0.0083 -0.2946
 2966W        W19150   3.261  11.857   3.274  0.2579  0.2454  0.1007
 2967W        W19151   5.038   3.148  10.514 -0.0945  0.2730 -0.3026
 2968W        W19152   1.050  16.026   3.953 -0.1730 -0.1261 -0.2024
 2969W        W19153  15.680  18.624   2.075 -0.1636  0.0700 -0.2935
 2970W        W19154   5.176  15.113  12.421  0.0129  0.1825  0.0498
 2971W        W19155   4.571   9.778   3.118  0.1555  0.0941  0.1718
 2972W        W19156  15.625  12.135   1.317  0.0505  0.0816  0.0789
 2973W        W19157   2.816   2.373  10.019 -0.2735  0.3143  0.0208
 2974W        W19158   6.489  17.429   0.613 -0.0555  0.0331 -0.0557
 2975W        W19159   2.326   9.713   1.978 -0.2287  0.1661  0.1056
 2976W        W19160  18.686   1.475   1.179 -0.0336 -0.0988  0.0182
 2977W        W19161  15.140   0.152  10.808  0.0369 -0.0473 -0.0658
 2978W        W19162  12.668  10.071  10.816  0.2858 -0.3736  0.1464
 2979W        W19163   5.003   0.348  14.656 -0.1529 -0.1705 -0.4727
 2980W        W19164  12.620  16.132  11.735  0.1910  0.3415 -0.1568
 2981W        W19165  18.958  17.748  11.938  0.1091  0.2576 -0.3166
 2982W        W19166  15.093   4.999  13.186  0.1616  0.0418  0.0007
 2983W        W19167  18.810   5.383   2.898  0.1320  0.1682 -0.1752
 2984W        W19168  14.846   2.342   0.470 -0.1839 -0.0869  0.2207
 2985W        W19169   1.734   0.649   1.506 -0.1071  0.0635 -0.1485
 2986W        W19170  11.146   8.925  13.066  0.0466 -0.0458  0.0631
 2987W        W19171   9.579  12.439   0.269 -0.0382  0.1065  0.1095
 2988W        W19172   4.425   3.085   0.788 -0.1010  0.1235  0.0468
 2989W        W19173   8.503  10.366   3.991  0.0881 -0.1326 -0.3686
 2990W        W19174   2.423  16.323  13.010 -0.1076 -0.0990  0.1680
 2991W        W19175  11.950   0.328   2.440  0.2872  0.2389  0.2703
 2992W        W19176  16.781  19.309   0.231 -0.1476 -0.0327  0.0811
 2993W        W19177  13.560   9.249  13.367 -0.0775  0.0747  0.2056
 2994W        W19178  11.776   7.643  14.609  0.2428 -0.2249 -0.1837
 2995W        W19179  18.483   4.626   0.607  0.2447  0.2721  0.0632
 2996W        W19180  14.554   7.743   0.552 -0.3133  0.1197  0.0944
 2997W        W19181   9.789  15.986   3.119 -0.1448 -0.0442  0.1990
 2998W        W19182   5.603  15.915   4.238  0.0197  0.2675  0.2309
 2999W        W19183   2.391  17.189   5.127  0.0267  0.0994  0.1730
 3000W        W19184  18.478   0.944  11.190 -0.2315 -0.0326 -0.2202
 3001W        W19185  13.887  15.373   5.343  0.0230  0.2501  0.0631
 3002W        W19186   8.281   5.722  11.017 -0.1473 -0.0840 -0.0797
 3003W        W19187   3.832   9.535   5.064  0.0450 -0.2624  0.0231
 3004W        W19188  13.440   7.306   2.661  0.0370  0.2396 -0.1757
 3005W        W19189  17.343  15.744   1.099 -0.0378  0.0450 -0.0611
 3006W        W19190   3.314  15.889  11.063 -0.1371 -0.0804  0.0240
 3007W        W19191   2.081   1.935   2.535  0.1215 -0.0141 -0.2479
 3008W        W19192   3.503   2.757  14.649 -0.2674  0.2070  0.0467
 3009W        W19193  11.070  12.856   4.689 -0.1907 -0.6303  0.1160
 3010W        W19194   2.487  19.068  12.315  0.2292 -0.0091 -0.2570
 3011W        W19195  14.245  10.502  12.988 -0.1692 -0.0399  0.0849
 3012W        W19196   9.256  18.315  13.964 -0.2062 -0.1000  0.2199
 3013W        W19197  15.522   4.292  13.427  0.2478  0.1453  0.0856
 3014W        W19198   6.833   7.871   2.704  0.0362  0.1021 -0.3149
 3015W        W19199  17.854   5.948   2.281  0.1417  0.1286 -0.2712
 3016W        W19200   9.134   3.431  10.912 -0.1447 -0.2111  0.3750
 3017W        W19201  18.176   3.934  13.972 -0.0431 -0.1119  0.2873
 3018W        W19202   4.075   4.280   2.837 -0.0013 -0.0856 -0.0504
 3019W        W19203  16.308  12.494   2.743  0.2019  0.0316  0.1111
 3020W        W19204  11.612  17.116  13.315  0.3890 -0.0976  0.2783
 3021W        W19205  12.745   7.462   0.783 -0.1215  0.1227  0.1167
 3022W        W19206  12.781  17.924   0.186  0.1585 -0.1064  0.0360
 3023W        W19207   6.707  15.924  10.713 -0.0040  0.3562  0.0287
 3024W        W19208   2.483   1.480   5.053  0.0916 -0.0321  0.1378
 3025W        W19209   6.122   7.345  12.841 -0.0042 -0.3393 -0.0144
 3026W        W19210   9.412  13.009  10.818 -0.0815  0.2249  0.2720
 3027W        W19211  15.336   5.049   5.113  0.2282 -0.2640 -0.1393
 3028W        W19212  10.724  16.443  10.842  0.0352  0.0498 -0.2150
 3029W        W19213   5.215   9.698   1.273  0.2515  0.0770  0.1972
 3030W        W19214  10.898   2.267   1.964 -0.1458  0.1826  0.0816
 3031W        W19215  13.249  16.494   5.470  0.1863 -0.2046 -0.1805
 3032W        W19216   7.763   4.104  14.723  0.3224  0.2713 -0.2892
 3033W        W19217  17.204   6.098   2.055  0.1337  0.0806 -0.2316
 3034W        W19218  17.313  14.331  11.821  0.4665  0.0996  0.0848
 3035W        W19219   2.267   4.594  13.719  0.3333 -0.0619 -0.1332
 3036W        W19220   2.820  15.464  10.259 -0.2844  0.0127 -0.2327
 3037W        W19221  12.154  17.038  11.268  0.0772  0.0252 -0.0081
 3038W        W19222  12.960  13.830  10.735  0.0065 -0.0362  0.2280
 3039W        W19223  17.759   6.319   0.765  0.2270 -0.0926  0.2573
 3040W        W19224  10.248  15.466  13.812 -0.2137  0.0131  0.1998
 3041W        W19225  18.180  14.390   4.385 -0.3611 -0.0802  0.0400
 3042W        W19226  12.297   7.469   2.513 -0.3217 -0.0660  0.1522
 3043W        W19227  18.187   4.683  10.459 -0.0249  0.0727  0.2009
 3044W        W19228   5.252  13.046   5.000 -0.2466  0.3308  0.0935
 3045W        W19229  16.232   0.677  11.337  0.3052  0.2143  0.0199
 3046W        W19230  17.893   9.281  11.674 -0.0204  0.0574 -0.2042
 3047W        W19231  15.060   4.860   4.505 -0.0108 -0.4185 -0.0753
 3048W        W19232  16.264   1.592   3.120  0.0379  0.0497 -0.1529
 3049W        W19233   2.751  19.332  11.416  0.1653  0.0020 -0.0690
 3050W        W19234   9.315  18.784  11.647 -0.0238  0.2224  0.1854
 3051W        W19235  11.977   1.167  10.299 -0.0243 -0.0241  0.3953
 3052W        W19236   4.608   7.343   4.862  0.2706 -0.1638 -0.1049
 3053W        W19237   9.391  11.431  12.418 -0.2789 -0.0793 -0.1044
 3054W        W19238  10.533  16.849   3.821  0.4465  0.1967  0.0815
 3055W        W19239   0.341   9.582  14.056 -0.1230 -0.0272 -0.4702
 3056W        W19240  19.181   4.649   3.628 -0.5169  0.0291  0.1598
 3057W        W19241  17.464   4.609   0.528 -0.0603 -0.0431 -0.0797
 3058W        W19242  15.368   3.138   4.384 -0.2439  0.0161  0.1850
 3059W        W19243  10.632  17.686   0.913  0.1809 -0.0614  0.1114
 3060W        W19244   9.773   6.778   5.507 -0.2441 -0.0685  0.4009
 3061W        W19245   6.498  11.532  11.389 -0.0539  0.0014 -0.1993
 3062W        W19246   1.582   3.919   4.997  0.1921 -0.0252 -0.0738
 3063W        W19247  15.094   4.772  10.272 -0.5054 -0.0550 -0.4553
 3064W        W19248   9.415   2.778  14.622  0.4267  0.1467 -0.0557
 3065W        W19249   9.924  11.740   3.931 -0.5593 -0.0021 -0.5377
 3066W        W19250   5.230   7.933   3.938  0.2832  0.1309  0.0705
 3067W        W19251   1.099  18.807  13.182 -0.3312  0.1089 -0.1049
 3068W        W19252  10.626  11.290  13.467  0.1216  0.3138 -0.0962
 3069W        W19253  17.602  15.276  11.435  0.2124  0.1621 -0.2968
 3070W        W19254   1.796   1.066  13.195 -0.0385 -0.1410 -0.2136
 3071W        W19255   8.474  11.621   0.269 -0.0905  0.0540 -0.0988
 3072W        W19256  12.407  10.217  13.122 -0.2841  0.0617  0.0073
 3073W        W19257  10.208   3.479   0.270  0.1586  0.4720 -0.0347
 3074W        W19258  11.802  13.067   2.902  0.3299  0.1693 -0.0609
 3075W        W19259   6.133   5.522  14.690  0.3093 -0.2005 -0.1082
 3076W        W19260   1.486   3.006   0.918 -0.1346 -0.1879 -0.5674
 3077W        W19261  10.932  17.080   1.547  0.1526 -0.3395 -0.0220
 3078W        W19262  19.330   4.130   2.820 -0.1851  0.1930 -0.1138
 3079W        W19263   7.234   2.444  14.071  0.4242 -0.0321 -0.1014
 3080W        W19264  11.691   7.219  13.991 -0.1959 -0.3890  0.1926
 3081W        W19265   7.643   3.889  12.096  0.2241  0.2564  0.0226
 3082W        W19266   7.929   4.026   4.434  0.2195 -0.1908  0.0346
 3083W        W19267  13.129   9.348   2.674 -0.0162  0.1547 -0.1505
 3084W        W19268  11.369   8.351   5.064 -0.0830  0.0769 -0.0560
 3085W        W19269   5.196  14.900   2.329 -0.1374 -0.0347 -0.0077
 3086W        W19270  10.579   0.502   3.797 -0.1993  0.4043  0.0215
 3087W        W19271   7.601  14.541   0.309  0.2633  0.1397 -0.0357
 3088W        W19272  12.378   2.862   0.888 -0.0599 -0.0094 -0.5629
 3089W        W19273   5.014   3.163   9.976 -0.3911  0.0123 -0.0797
 3090W        W19274  12.803  16.964  12.452 -0.4826  0.0220 -0.1017
 3091W        W19275  13.207   3.956  14.129 -0.0585 -0.2585  0.0816
 3092W        W19276   6.035  13.863   1.151 -0.1962 -0.0246  0.1179
 3093W        W19277   2.118  14.831  14.359  0.2090  0.3829  0.0925
 3094W        W19278   8.622  17.888   5.244  0.0461 -0.2327 -0.2433
 3095W        W19279   5.174   4.913   1.462  0.0982  0.2063  0.0656
 3096W        W19280   3.507   6.720   1.655  0.1143 -0.2732 -0.0105
 3097W        W19281   7.217   5.192  12.057 -0.1003  0.0265  0.0105
 3098W        W19282   6.392  11.961   0.968 -0.2325  0.1438 -0.0407
 3099W        W19283   2.432   1.263  10.865  0.0453  0.2266  0.1220
 3100W        W19284   1.384   5.016   3.312  0.0628  0.0957  0.1024
 3101W        W19285  18.527   6.344   3.980 -0.5288 -0.2406 -0.1871
 3102W        W19286  16.850  13.352   2.568  0.0926  0.2373 -0.1956
 3103W        W19287  10.781   1.700   2.774 -0.1171  0.1518  0.0817
 3104W        W19288  11.269  16.341   2.111  0.1291 -0.2443  0.0077
 3105W        W19289  17.532  17.719  12.336 -0.3094  0.2920 -0.1559
 3106W        W19290  17.333  15.799   2.075 -0.2785 -0.1335 -0.2526
 3107W        W19291   6.113  14.870   1.505  0.0531  0.2320  0.0381
 3108W        W19292   8.752  14.654  11.369  0.2936 -0.1062  0.0038
 3109W        W19293   0.120  16.148  13.806 -0.2190 -0.0442 -0.3462
 3110W        W19294  18.316   3.587   2.596  0.1227 -0.1910 -0.0034
 3111W        W19295   8.607   6.267  13.404 -0.1633  0.0817  0.1426
 3112W        W19296  12.822   9.771  14.104 -0.3494 -0.0205  0.2204
 3113W        W19297   6.549  18.343   0.109 -0.2366  0.1983  0.4698
 3114W        W19298  13.776  13.142  11.924  0.0450  0.2228  0.1264
 3115W        W19299   7.782   6.267  12.713 -0.0356 -0.2176  0.1636
 3116W        W19300   9.212  15.670  14.970 -0.4094  0.0118  0.2852
 3117W        W19301   2.457  11.617   2.208  0.2657  0.2253 -0.2286
 3118W        W19302  10.874  15.880  14.307  0.2654 -0.3176 -0.0330
 3119W        W19303  11.755  17.397   1.942  0.1858 -0.4252 -0.0040
 3120W        W19304   2.902   7.645  13.351  0.1102  0.0267 -0.2313
 3121W        W19305  12.620  10.734   2.687 -0.0724  0.2375  0.1318
 3122W        W19306  14.195  17.388  12.305  0.0648 -0.0413  0.1979
 3123W        W19307   6.181  14.336   3.167  0.0319  0.1006  0.0868
 3124W        W19308  10.956   2.348   2.856  0.0055  0.0662 -0.0865
 3125W        W19309   7.623   8.305   3.373  0.2279  0.0213 -0.2167
 3126W        W19310   8.977  11.167  12.187 -0.2174 -0.0965 -0.1170
 3127W        W19311   4.466  18.437  13.366  0.0578 -0.3754 -0.0724
 3128W        W19312   2.019  16.040  11.076  0.0830 -0.1581 -0.1514
 3129W        W19313   7.775  15.173   5.092  0.1258 -0.5794 -0.2336
 3130W        W19314  17.156  11.964   3.907 -0.3170  0.1430  0.0654
 3131W        W19315   8.839  15.163  14.013  0.3566  0.2761  0.5065
 3132W        W19316   6.291  11.012   4.417  0.2838  0.2426  0.1151
 3133W        W19317   4.726  12.495  10.656 -0.2939  0.0275 -0.0739
 3134W        W19318  14.541   4.175   0.721 -0.0790  0.0308  0.0941
 3135W        W19319  10.899   6.854  12.528  0.2290  0.0808  0.2271
 3136W        W19320   7.347   0.105  14.339  0.0773 -0.1847 -0.1616
 3137W        W19321  11.200  16.873  11.888  0.4428 -0.0421 -0.0071
 3138W        W19322  15.265  16.344   1.601 -0.2339  0.3334 -0.0819
 3139W        W19323   1.361  19.210   1.264  0.2705  0.1359  0.2224
 3140W        W19324  17.194   8.220  14.655 -0.1601 -0.1812 -0.4631
 3141W        W19325  18.203   0.933   0.630  0.5944 -0.0246 -0.2944
 3142W        W19326   5.264  13.292   9.718  0.0597  0.0017  0.3417
 3143W        W19327  19.087  12.140   3.112 -0.3344 -0.1465  0.1058
 3144W        W19328   6.807  12.191  13.419  0.1961  0.2299 -0.1809
 3145W        W19329   4.179   5.215  12.067 -0.0621 -0.3960  0.2274
 3146W        W19330   2.197   4.613  14.565 -0.1209 -0.1738  0.0490
 3147W        W19331   0.752   0.164   5.292 -0.0482 -0.2690 -0.1915
 3148W        W19332   5.409  10.554  14.911 -0.1157 -0.1337  0.2375
 3149W        W19333  10.542  18.808  11.432 -0.2940  0.0953  0.1436
 3150W        W19334   4.328   2.744  13.854 -0.1487 -0.2342 -0.2620
 3151W        W19335   4.930   7.930   4.451  0.0509 -0.3008 -0.0760
 3152W        W19336  16.899  12.202   0.180 -0.0574 -0.1669  0.0711
 3153W        W19337   6.494  15.844  13.727 -0.0581 -0.0443 -0.4352
 3154W        W19338   0.841   4.844  14.949 -0.0310 -0.4687 -0.2238
 3155W        W19339   7.169   5.206  11.137  0.1650 -0.0687 -0.2191
 3156W        W19340  13.500   3.584  13.221  0.1000 -0.0874 -0.1622
 3157W        W19341   1.088   0.542  13.789  0.2555  0.1694  0.2573
 3158W        W19342   7.955  16.427   3.731  0.0748  0.0248 -0.1395
 3159W        W19343  14.268  11.733  13.330  0.1506  0.3854  0.0126
 3160W        W19344  11.822   7.341   0.664  0.2459  0.1941 -0.1117
 3161W        W19345  12.229  15.761  11.640  0.1138  0.1123 -0.3157
 3162W        W19346  12.722  18.877   5.355  0.1048  0.0403 -0.0704
 3163W        W19347  17.948  11.060  13.752 -0.2061 -0.0579  0.0938
 3164W        W19348   5.862  14.863   1.970  0.0026  0.1209  0.1475
 3165W        W19349  12.765   6.578   4.428 -0.0057 -0.0359 -0.0566
 3166W        W19350  12.544  18.682   0.771  0.1443  0.2788  0.1823
 3167W        W19351  15.439  12.635   3.195  0.0464 -0.4480  0.4577
 3168W        W19352  15.372  15.773   3.544  0.0615 -0.3304 -0.0697
 3169W        W19353   8.628  17.800   1.931 -0.2170  0.1589 -0.3690
 3170W        W19354  16.064   6.509  10.551 -0.1845  0.3363  0.0503
 3171W        W19355   6.977  13.908   1.729  0.0213  0.2143  0.0899
 3172W        W19356  17.836  16.262   4.247 -0.1309  0.0285 -0.0457
 3173W        W19357   6.809   2.490   5.331  0.3341  0.2708  0.1267
 3174W        W19358   5.066  15.899   2.692  0.0848  0.0339 -0.1439
 3175W        W19359   7.460   0.869  13.069 -0.0516  0.2299 -0.0380
 3176W        W19360   6.276   2.457  11.467  0.0533  0.0788  0.1985
 3177W        W19361  10.914  19.365  14.850  0.2925  0.2947 -0.2551
 3178W        W19362  17.418  17.232   1.370 -0.1849 -0.0273 -0.0852
 3179W        W19363  15.094  12.739  13.810 -0.1336  0.3667  0.1399
 3180W        W19364   1.694  17.006  13.936  0.1984  0.1014 -0.0430
 3181W        W19365   7.333   6.125   4.954 -0.0566  0.0293 -0.0587
 3182W        W19366   9.510   0.596  14.565  0.0301 -0.0619 -0.2603
 3183W        W19367   7.906  12.480  12.555  0.1778 -0.0299  0.3020
 3184W        W19368   0.530   6.934   1.715  0.0492  0.1833  0.0748
 3185W        W19369   7.289   4.629   4.329  0.1700 -0.1103 -0.3532
 3186W        W19370  10.809   0.517  11.059  0.1164  0.2365 -0.1116
 3187W        W19371  17.617  16.482   3.456 -0.0821 -0.0061 -0.0000
 3188W        W19372   0.002   6.646  13.464  0.4196  0.0034  0.2956
 3189W        W19373  10.526  17.158  13.260  0.0217 -0.1225  0.0437
 3190W        W19374  11.003   5.675   1.969  0.1572  0.0507  0.1008
 3191W        W19375  18.444  15.896   3.586  0.0858 -0.1957  0.2099
 3192W        W19376  10.398   3.345   4.041  0.2814  0.1828  0.0559
 3193W        W19377   7.609  12.286  11.029  0.2510 -0.1348  0.0455
 3194W        W19378  13.547  17.671  10.708  0.2244 -0.1419 -0.1861
 3195W        W19379   3.131  12.461  12.503 -0.0205  0.1471 -0.3290
 3196W        W19380  10.150  15.996   1.487 -0.1225 -0.0014 -0.0506
 3197W        W19381  10.315  18.966  11.030  0.0312 -0.0432  0.0956
 3198W        W19382   8.113  15.586  10.465  0.1082 -0.0938 -0.0024
 3199W        W19383   5.871  16.104   2.744  0.2285  0.0758 -0.2696
 3200W        W19384   2.627   0.660   5.141 -0.2332  0.0944 -0.0153
 3201W        W19385  18.117   3.116   4.284  0.0766  0.1217 -0.0362
 3202W        W19386   5.712  15.113   4.157 -0.3305 -0.2121 -0.1024
 3203W        W19387  18.658   5.640  12.498  0.2120  0.0519 -0.3242
 3204W        W19388  18.507  10.236  13.161  0.2083 -0.0553 -0.0980
 3205W        W19389  16.125   7.867  12.397  0.0296 -0.0916  0.2095
 3206W        W19390  14.283   7.910  11.999 -0.1102  0.1866 -0.1128
 3207W        W19391  18.485   4.512   1.657 -0.1159 -0.1057 -0.3395
 3208W        W19392  15.701   4.543  10.847  0.0852 -0.0444 -0.1206
 3209W        W19393  11.204  14.108   2.040 -0.1390 -0.2192  0.1925
 3210W        W19394   7.235  10.580   4.414  0.5464 -0.1393 -0.1865
 3211W        W19395   2.446   1.512   2.915  0.1863 -0.3284 -0.0482
 3212W        W19396  14.870  18.763  11.602 -0.3295  0.1989 -0.0194
 3213W        W19397   9.301  12.266  13.310  0.1371  0.2720 -0.0315
 3214W        W19398  13.896   8.254  12.111  0.3957 -0.5526 -0.0976
 3215W        W19399  10.543  15.486   9.816  0.1525 -0.1786  0.0938
 3216W        W19400   8.140   7.704  14.251 -0.0855 -0.3676  0.0344
 3217W        W19401   4.310  17.644   1.132 -0.0820 -0.1886 -0.0878
 3218W        W19402   7.877   8.909   2.451 -0.1680  0.1245  0.2441
 3219W        W19403   2.491  17.622   2.972 -0.0563 -0.2632  0.0422
 3220W        W19404  15.667   6.404  10.310  0.2598 -0.1812  0.1145
 3221W        W19405   2.554  15.046   1.262 -0.1197 -0.3951 -0.1841
 3222W        W19406   5.228   2.802   4.238  0.5005  0.0203 -0.1893
 3223W        W19407  19.298  17.972   3.496  0.2703  0.0760  0.1845
 3224W        W19408   2.614   7.067   2.038  0.4763 -0.0828  0.0124
 3225W        W19409   4.563  14.865  12.974  0.0363  0.1462  0.0074
 3226W        W19410   8.058   8.909  13.884  0.0426 -0.1712 -0.1231
 3227W        W19411  12.718  19.259   2.433 -0.0164 -0.1211  0.0584
 3228W        W19412  17.967   9.581   4.502 -0.1432 -0.2821  0.0663
 3229W        W19413   5.831  13.419   0.441 -0.1884 -0.1589  0.0241
 3230W        W19414  15.956  16.534   4.818  0.0950  0.1329 -0.0797
 3231W        W19415   2.940  18.612   4.346 -0.0104  0.1953  0.1854
 3232W        W19416   6.098  16.576   4.613 -0.2513  0.1987 -0.0900
 3233W        W19417  19.091  15.071  14.904 -0.1526 -0.2897  0.0371
 3234W        W19418  15.841   9.338   1.124 -0.1006 -0.1143  0.2019
 3235W        W19419  17.256   1.653  10.194 -0.3254  0.0403 -0.0456
 3236W        W19420   1.300  14.562  13.341  0.0524 -0.4182  0.0113
 3237W        W19421   7.786  12.104   2.621  0.1632  0.2050 -0.5251
 3238W        W19422  13.315   7.791   4.390 -0.2138  0.1267  0.0417
 3239W        W19423  12.704  17.399   3.929  0.0195 -0.2028 -0.4042
 3240W        W19424   0.900  13.968   0.086 -0.2131 -0.1322 -0.0161
 3241W        W19425   8.424   8.037  14.476 -0.1387 -0.1830  0.1253
 3242W        W19426  11.458  12.927  13.956  0.0730  0.1436 -0.2278
 3243W        W19427  19.215  15.462   0.187  0.4059  0.1970 -0.1911
 3244W        W19428  18.458   5.057  14.390 -0.1342 -0.1309  0.2112
 3245W        W19429  15.090  17.549   2.237  0.0781  0.0883 -0.0328
 3246W        W19430   6.393  14.409   1.190  0.2049  0.0801 -0.1196
 3247W        W19431  13.867  12.931  12.443 -0.0777  0.0852  0.1599
 3248W        W19432  10.387   0.570  14.301  0.2564 -0.2699  0.0538
 3249W        W19433   3.284  10.268   4.942  0.3782  0.0456 -0.0286
 3250W        W19434  18.188   6.570  10.938  0.0819  0.3196  0.0134
 3251W        W19435  11.898   4.506   3.304  0.1429  0.0471 -0.1257
 3252W        W19436  11.878  17.444   0.031 -0.0424 -0.2360  0.0558
 3253W        W19437  16.907  10.118   0.868  0.1674  0.1171  0.0626
 3254W        W19438  16.594   9.961   1.411  0.0070  0.0699  0.0422
 3255W        W19439   0.697  19.288   0.635  0.1757  0.1878 -0.1747
 3256W        W19440  10.344  12.325  14.641 -0.1768  0.3988 -0.0365
 3257W        W19441   0.998  14.568   9.727 -0.1762 -0.0142  0.3108
 3258W        W19442  12.813  17.533  13.730 -0.2333 -0.1624 -0.0499
 3259W        W19443  11.484   2.200   2.661 -0.2147 -0.0939 -0.0083
 3260W        W19444  17.576  16.271   2.548 -0.1007 -0.1524  0.0661
 3261W        W19445   1.347   5.441  14.264 -0.2263 -0.2299  0.0929
 3262W        W19446   1.598  15.517   2.562 -0.1248  0.0991 -0.3723
 3263W        W19447  17.480  15.397  13.908 -0.0465 -0.0560 -0.1932
 3264W        W19448   4.121   2.362   1.357 -0.1320 -0.0501  0.1143
 3265W        W19449   2.150  11.039  12.406  0.0694  0.0090 -0.0962
 3266W        W19450  14.748   6.329   0.819 -0.0018  0.0436 -0.1988
 3267W        W19451  15.877  11.983   2.179 -0.2687 -0.1847  0.0025
 3268W        W19452   3.583  18.936   1.772  0.0811 -0.3255  0.0115
 3269W        W19453  10.180   5.461   0.775 -0.1651 -0.1722 -0.2216
 3270W        W19454   2.354   3.204  12.781 -0.0753 -0.0045 -0.1737
 3271W        W19455  14.767  19.180   4.354  0.2914  0.0274  0.1829
 3272W        W19456   2.458  10.661  14.109  0.1618 -0.1119  0.2216
 3273W        W19457  19.000   5.050  13.574  0.0563  0.0664 -0.0332
 3274W        W19458   8.383  10.956   2.148 -0.0507 -0.1987 -0.3437
 3275W        W19459   8.612   2.822   0.644  0.0075  0.1676 -0.1058
 3276W        W19460   2.539  11.591  13.499  0.0208  0.0110  0.1797
 3277W        W19461   2.180  17.066   1.804  0.0605  0.2912 -0.1693
 3278W        W19462   6.721   0.907  14.119  0.0647  0.0548 -0.1014
 3279W        W19463  16.698  18.839   4.547 -0.1653  0.3820 -0.0543
 3280W        W19464   1.643  15.584   4.428 -0.0171  0.1920 -0.0698
 3281W        W19465   3.683  10.988  13.546  0.1505  0.0639  0.0075
 3282W        W19466   5.949   7.786  13.675  0.0891 -0.1638 -0.0353
 3283W        W19467   6.821  16.000   1.864  0.1078  0.1462  0.3000
 3284W        W19468   5.255  12.290   0.751  0.1898 -0.0398  0.0341
 3285W        W19469  12.530  16.263  12.258 -0.1723  0.0805  0.0444
 3286W        W19470   9.305  13.876   0.773  0.2765 -0.0096 -0.1604
 3287W        W19471   3.555   8.312  11.946  0.0762 -0.1156  0.1343
 3288W        W19472   9.731  10.546  13.103 -0.0264 -0.0645 -0.1474
 3289W        W19473  14.190   8.419   4.362  0.1931 -0.1620  0.3034
 3290W        W19474   6.465  19.383  14.645 -0.0272 -0.2215  0.2321
 3291W        W19475   3.874   7.310  10.018  0.2879  0.1799  0.1614
 3292W        W19476  16.716   8.355   1.908  0.2106 -0.0507  0.0082
 3293W        W19477   7.573  18.476   4.959  0.5869 -0.1050  0.2678
 3294W        W19478  18.241  18.472   4.014  0.6183 -0.0547 -0.0963
 3295W        W19479   7.761   7.152   0.216 -0.1563 -0.3912 -0.2092
 3296W        W19480   9.036   8.354  13.328  0.2348 -0.0749 -0.0510
 3297W        W19481  13.223   8.894  14.550  0.1371  0.1655 -0.2033
 3298W        W19482  14.516   5.075   4.552  0.0197  0.0864 -0.1821
 3299W        W19483  14.421   5.433  12.606 -0.0173 -0.3708 -0.1721
 3300W        W19484  13.147  14.104   4.347  0.0169 -0.0199  0.1967
 3301W        W19485   9.710  16.903   3.329  0.0497  0.2518 -0.1858
 3302W        W19486   1.389   8.776  10.834  0.1638 -0.0679  0.0907
 3303W        W19487  19.307   6.985  13.825  0.1169 -0.1876 -0.2380
 3304W        W19488  17.008   7.859  11.494 -0.0646 -0.1055 -0.2824
 3305W        W19489  14.097  15.653  13.510 -0.2232 -0.1407  0.0319
 3306W        W19490  16.919   9.900  11.184  0.0588 -0.1742  0.3649
 3307W        W19491   2.243   2.490   2.091 -0.4262 -0.0743 -0.3139
 3308W        W19492  14.068  18.665  14.448  0.1286  0.0462 -0.2727
 3309W        W19493  10.632   0.953  11.176 -0.3599  0.0159  0.0606
 3310W        W19494  15.062   4.164   3.202  0.3717  0.1272  0.0886
 3311W        W19495   2.510  16.121   4.057  0.1215  0.1550  0.1831
 3312W        W19496  13.171  13.730  14.111  0.1205  0.0623  0.0010
 3313W        W19497  14.606   0.852   2.217  0.0549 -0.1231  0.1560
 3314W        W19498   3.871   5.400  13.485  0.1335 -0.2914  0.1125
 3315W        W19499   0.570   7.578   3.381 -0.0609 -0.2388 -0.1757
 3316W        W19500   7.283   3.950   0.382 -0.0511  0.1108  0.2233
 3317W        W19501   2.873  16.148  12.233  0.1867 -0.0242 -0.1337
 3318W        W19502   4.529  15.283   0.512  0.1154 -0.3205 -0.0502
 3319W        W19503  16.854  19.158   1.220  0.0154  0.0568 -0.3510
 3320W        W19504   9.689  16.063  14.179 -0.2654  0.3173 -0.1862
 3321W        W19505  13.570  18.167   3.289  0.2369  0.1784  0.1342
 3322W        W19506   3.372   4.168  13.332  0.2628  0.2010 -0.3735
 3323W        W19507  17.727   9.076  14.826  0.0858 -0.0825 -0.0587
 3324W        W19508  14.172   2.357   0.953  0.1801 -0.0435  0.1902
 3325W        W19509   4.769  17.330   9.328  0.0867 -0.3180 -0.2563
 3326W        W19510   9.318  11.832  12.880 -0.1617 -0.2631  0.2219
 3327W        W19511   6.496  15.332   3.448 -0.1704 -0.1777  0.1670
 3328W        W19512  17.510   5.138  14.933 -0.0971  0.0842 -0.0753
 3329W        W19513  18.609  18.719   3.684  0.0765  0.1543 -0.0221
 3330W        W19514   6.582   5.137   1.271 -0.4745  0.1956 -0.4049
 3331W        W19515  12.976  15.813  12.012 -0.1074  0.0038 -0.5413
 3332W        W19516   0.690   0.601  14.124 -0.0809  0.0516 -0.1746
 3333W        W19517  17.921  15.641  14.173 -0.2015 -0.2394  0.5483
 3334W        W19518  16.118  15.174  14.426  0.1207 -0.0480 -0.3242
 3335W        W19519  11.884  10.614  14.681 -0.0746 -0.4116  0.1733
 3336W        W19520   6.999   4.193   1.862  0.1104 -0.3212  0.0127
 3337W        W19521   1.895   0.702  11.900 -0.2198 -0.0260 -0.2905
 3338W        W19522  10.304   5.955   2.083 -0.0640  0.1016  0.0858
 3339W        W19523  11.509   1.920  12.929 -0.0147  0.0598 -0.1069
 3340W        W19524  15.264   1.884   3.058  0.1380 -0.1904 -0.0789
 3341W        W19525  13.148   4.175   9.849 -0.0583  0.2125 -0.1785
 3342W        W19526   6.580   1.436  12.817 -0.3850  0.1392  0.1969
 3343W        W19527  15.814  19.377  13.388 -0.3050 -0.1221  0.2830
 3344W        W19528  19.108   5.507  12.626 -0.0487  0.1330  0.1524
 3345W        W19529  14.231  12.017  12.271 -0.1239  0.0125  0.2717
 3346W        W19530   7.217   6.387   3.696 -0.3530  0.1769 -0.0057
 3347W        W19531  18.508   3.824  13.152 -0.0033  0.0414 -0.2416
 3348W        W19532  17.632   8.631   1.146 -0.1121  0.4194  0.1398
 3349W        W19533   8.264   1.563   3.860 -0.0743 -0.3141  0.1299
 3350W        W19534  18.076   6.115   1.753 -0.0614  0.1084 -0.2552
 3351W        W19535  17.615  12.596  12.110 -0.3212 -0.0160 -0.0462
 3352W        W19536  14.335   7.965   4.571  0.1037 -0.2071  0.0336
 3353W        W19537   1.285  12.861   3.700 -0.2931 -0.0840  0.4295
 3354W        W19538   3.244  13.982   2.481  0.0434  0.1949 -0.1592
 3355W        W19539   0.776   4.985   2.470  0.2207 -0.1463 -0.0429
 3356W        W19540   3.581   2.735  10.743  0.3604  0.1974 -0.0693
 3357W        W19541   8.764  19.003   4.666  0.0206  0.2672 -0.1532
 3358W        W19542  14.325  15.073   0.852  0.2898  0.1678 -0.0701
 3359W        W19543  10.527   8.870  10.377  0.1014  0.1068  0.2523
 3360W        W19544  19.182  10.341  14.853  0.1604  0.0265 -0.0678
 3361W        W19545   7.851   0.564   4.209 -0.0918 -0.2713  0.0749
 3362W        W19546  10.181  13.157   3.085 -0.0350 -0.1936 -0.2349
 3363W        W19547   1.080   0.756   0.349  0.2415  0.0414 -0.2581
 3364W        W19548   7.616   4.407   0.560 -0.2049  0.0285 -0.1481
 3365W        W19549  13.874  15.892   4.607 -0.1290 -0.1670  0.1061
 3366W        W19550  13.186   2.697  13.312  0.2313 -0.1669  0.0253
 3367W        W19551   1.446   9.586   0.437 -0.0407  0.1219  0.2952
 3368W        W19552  11.888  11.444  11.387  0.1061  0.2555 -0.0667
 3369W        W19553  11.918  15.958   5.643 -0.4008  0.0023 -0.1321
 3370W        W19554   3.062  17.771  13.917  0.0720  0.1365  0.0862
 3371W        W19555   6.895  16.269   2.906 -0.2124 -0.1988 -0.0164
 3372W        W19556   9.658  11.565   0.586 -0.2049 -0.0092  0.1910
 3373W        W19557   1.834   5.461   0.070  0.5060 -0.0155  0.0689
 3374W        W19558  18.279  10.699   4.536  0.0469 -0.0507  0.0723
 3375W        W19559   4.291   1.873   3.311  0.2818  0.2973  0.1158
 3376W        W19560   4.203  12.658  10.682  0.2492 -0.0020  0.0024
 3377W        W19561  17.345   9.818  10.367  0.1206 -0.2105  0.2209
 3378W        W19562   4.815   4.480   3.822 -0.2093  0.3222 -0.1176
 3379W        W19563  15.206   2.499   3.260 -0.2357 -0.5304  0.2697
 3380W        W19564   3.298  19.095  10.589 -0.2308 -0.0995 -0.1702
 3381W        W19565   1.092   3.005  12.845 -0.0175  0.0863  0.4075
 3382W        W19566   8.927   3.468  12.848  0.0562 -0.0147  0.0207
 3383W        W19567   0.339   0.716  11.087 -0.2795  0.1780 -0.0841
 3384W        W19568  14.858  17.672  11.526  0.4291  0.3577 -0.4264
 3385W        W19569   6.188  15.940   0.568 -0.0803  0.0045 -0.1356
 3386W        W19570  11.710  11.959   0.420  0.0965  0.2008 -0.4814
 3387W        W19571  16.104   5.460  12.542  0.0206  0.1133 -0.1122
 3388W        W19572   1.758  12.566  11.910  0.0043  0.1554 -0.0403
 3389W        W19573  13.871  10.243  13.383 -0.1273 -0.0421  0.1130
 3390W        W19574   8.919  13.226  13.407  0.0544  0.0788 -0.1361
 3391W        W19575  13.288  10.297  14.257 -0.3391  0.0379  0.2762
 3392W        W19576   2.376  13.003   0.641  0.1052  0.1522  0.2443
 3393W        W19577   1.578  17.972  13.653 -0.1492 -0.0012 -0.1462
 3394W        W19578   8.325   3.578  14.208  0.0852  0.0793 -0.0825
 3395W        W19579   8.841   0.465   4.198 -0.0871  0.2615 -0.0417
 3396W        W19580  16.058  17.142   3.177 -0.1254 -0.2937 -0.2214
 3397W        W19581  14.067  12.418   3.184  0.1607  0.1976  0.0882
 3398W        W19582  19.254  14.201   3.095  0.4253  0.1408 -0.1066
 3399W        W19583   3.417  12.781   4.100 -0.1048 -0.0177  0.1119
 3400W        W19584   6.070  17.281  10.884 -0.1013 -0.0959 -0.1544
 3401W        W19585  10.711  17.089   5.064  0.2302 -0.2618  0.0415
 3402W        W19586  11.391   4.821   0.919 -0.1575  0.3237  0.0114
 3403W        W19587   4.246   9.118   1.126  0.1515  0.0107 -0.0804
 3404W        W19588  11.132   2.702   3.729  0.2461 -0.4563 -0.0736
 3405W        W19589   3.356  18.625   1.440  0.0371  0.0838 -0.1331
 3406W        W19590  10.334   8.248   1.871 -0.2537  0.1888  0.1163
 3407W        W19591  12.204  10.682  13.975  0.1348 -0.2655  0.2411
 3408W        W19592  19.177  10.301   4.783  0.0179  0.1926 -0.0641
 3409W        W19593  11.696   7.510   9.526 -0.4670 -0.0837  0.1610
 3410W        W19594   4.673  17.940   2.736  0.2375 -0.0161 -0.0551
 3411W        W19595  12.282  11.911   3.203 -0.1946 -0.2147  0.0372
 3412W        W19596   1.553  16.321  11.889 -0.0705  0.0621 -0.0925
 3413W        W19597   9.122  18.331  11.257  0.2281 -0.1480  0.1684
 3414W        W19598  17.991   4.170   0.528 -0.0593 -0.1346 -0.3579
 3415W        W19599  15.278   3.200   4.869 -0.0598  0.1114 -0.0159
 3416W        W19600   6.127  17.337  14.044  0.1804 -0.2184  0.3137
 3417W        W19601   1.598   8.989   5.184  0.2994  0.0332 -0.0677
 3418W        W19602  12.858  16.039  13.994 -0.1129  0.5718 -0.3601
 3419W        W19603   4.707  11.317   0.681 -0.2835 -0.0511  0.1300
 3420W        W19604   7.272   9.125   4.697  0.0456  0.1818  0.1084
 3421W        W19605  12.977  14.109  11.148  0.0797  0.0433 -0.0591
 3422W        W19606  15.420   1.521  12.679 -0.2554  0.1440 -0.2069
 3423W        W19607   4.318  10.282   9.487  0.1585 -0.2990  0.0019
 3424W        W19608  13.284  13.528   1.590 -0.4454 -0.1124 -0.2200
 3425W        W19609   1.970  14.981  10.585  0.1670  0.1080 -0.2304
 3426W        W19610  12.942   0.465   9.399  0.1323  0.0734  0.0197
 3427W        W19611   8.499   1.263  13.427 -0.2606 -0.0133 -0.0602
 3428W        W19612  15.653  16.025   2.580  0.1898  0.5224  0.0437
 3429W        W19613  13.886   6.466   0.353  0.3265 -0.0906  0.2486
 3430W        W19614   9.025  11.103   3.770 -0.2537  0.2451 -0.3295
 3431W        W19615   3.677  18.798  13.069 -0.3172 -0.1667 -0.0393
 3432W        W19616   0.188   8.912   3.631 -0.0225 -0.0736 -0.0581
 3433W        W19617   9.862   6.263  13.424 -0.5621 -0.0416 -0.1908
 3434W        W19618  16.554  19.369   4.549  0.0656  0.2137 -0.0229
 3435W        W19619  17.539  11.319  12.392 -0.2577 -0.1528  0.1815
 3436W        W19620   9.873  11.711   4.602 -0.4268  0.0485  0.1768
 3437W        W19621   0.669   0.039   4.381 -0.0178 -0.1464  0.0828
 3438W        W19622   0.338  10.355  13.659  0.1894  0.3307 -0.0951
 3439W        W19623   9.530   8.680   4.518 -0.2187 -0.2682 -0.2102
 3440W        W19624   6.899  19.205   1.955  0.2488  0.1016  0.1713
 3441W        W19625   4.446   6.765   0.752 -0.3483  0.2000  0.0841
 3442W        W19626  10.377  16.626  10.446 -0.0191 -0.2106 -0.0808
 3443W        W19627  18.572   5.090  11.558 -0.1129  0.1659 -0.1442
 3444W        W19628  17.418   5.850   3.237 -0.1728 -0.3375 -0.2602
 3445W        W19629  13.052  10.127  13.823 -0.0283  0.1404 -0.1187
 3446W        W19630   3.789  17.672  12.748 -0.1338  0.0152 -0.2386
 3447W        W19631  12.541   7.135   0.416  0.1060  0.0152  0.2612
 3448W        W19632   7.803   0.863  12.681 -0.1977  0.0710 -0.1558
 3449W        W19633   6.948   3.651  14.224  0.0910  0.1420 -0.1671
 3450W        W19634  15.611   4.061   0.370 -0.0530  0.4299 -0.2753
 3451W        W19635  16.144  11.575   3.599 -0.1706  0.0961 -0.0596
 3452W        W19636  17.637  12.812   5.397 -0.0220  0.0525 -0.2682
 3453W        W19637   7.030   4.809   1.228  0.3261  0.0935 -0.2556
 3454W        W19638  15.844   7.781   9.408  0.0556  0.1282 -0.4174
 3455W        W19639   3.592  12.581  10.950 -0.0054  0.0288 -0.2473
 3456W        W19640   1.677   6.785  14.124 -0.0806  0.2110  0.0852
 3457W        W19641   8.544   0.225  12.134 -0.1496 -0.3855  0.0021
 3458W        W19642  17.074  10.124   2.234 -0.0822  0.0161  0.1750
 3459W        W19643  13.570   6.710  13.046  0.1219 -0.0912  0.1509
 3460W        W19644   4.348   7.194   2.620  0.1575 -0.6291 -0.1395
 3461W        W19645   3.528   7.292  12.808  0.1188  0.1056 -0.0711
 3462W        W19646   6.170   8.599   1.196 -0.1780 -0.0376  0.0697
 3463W        W19647   6.528   9.301  11.687 -0.4232  0.2108 -0.1684
 3464W        W19648  16.504   4.310   0.629 -0.0496 -0.0402  0.2422
 3465W        W19649  14.227   9.518   1.303 -0.0743  0.0557  0.6012
 3466W        W19650   1.161   1.994  11.315 -0.2517 -0.3487 -0.4892
 3467W        W19651  14.517   8.593   0.485  0.1977 -0.0727  0.1957
 3468W        W19652  14.801  12.128   1.626 -0.3369  0.1162  0.1651
 3469W        W19653  17.961  14.169  11.059 -0.2452  0.1669 -0.0257
 3470W        W19654   7.124  11.258  14.258 -0.1035 -0.2907  0.0717
 3471W        W19655  13.102   8.165   9.440 -0.1881 -0.2453  0.2723
 3472W        W19656   9.302   5.704   3.079  0.1538  0.0705 -0.2620
 3473W        W19657   4.335  18.654  14.756  0.0712  0.1683  0.3098
 3474W        W19658   6.324   7.288   3.583 -0.0387 -0.0776 -0.1817
 3475W        W19659   2.548   0.992   4.104  0.0535  0.0945 -0.0092
 3476W        W19660  15.787   6.134   1.263 -0.1233  0.2065  0.0115
 3477W        W19661  14.394  15.516   1.119 -0.0453 -0.0447  0.1373
 3478W        W19662   0.647   3.312   1.470 -0.1285 -0.2353  0.0269
 3479W        W19663  10.146   0.296  14.648 -0.0013  0.0268 -0.1724
 3480W        W19664  15.834   4.361   1.556 -0.1409  0.1453  0.1351
 3481W        W19665   6.037   3.549  12.947  0.0410 -0.0015  0.3563
 3482W        W19666   7.051   6.738  14.702 -0.0846 -0.0428  0.0426
 3483W        W19667  15.333   7.251   4.176  0.1780  0.0845  0.1996
 3484W        W19668   0.582  16.451  12.153  0.0957  0.0741 -0.0525
 3485W        W19669  10.316  13.967  12.418 -0.1366 -0.0256 -0.2540
 3486W        W19670  11.916  16.925   1.658 -0.2505  0.0943 -0.2636
 3487W        W19671   0.318  15.260  11.824 -0.0794 -0.0728  0.0609
 3488W        W19672   9.811  13.481   9.723 -0.0082  0.0975  0.0948
 3489W        W19673   9.629  14.582  11.061 -0.1042  0.2792  0.1270
 3490W        W19674  16.023   7.626   1.166  0.2208  0.0089 -0.5049
 3491W        W19675  11.126   9.793  14.735  0.1023 -0.0186 -0.3464
 3492W        W19676   0.887  17.312   2.185  0.1038 -0.5019  0.3682
 3493W        W19677   0.783   8.124   4.556  0.3752  0.1353  0.0783
 3494W        W19678  12.087  11.569  14.252 -0.0117 -0.0521  0.5924
 3495W        W19679   3.823   6.291   2.360  0.0717 -0.0166  0.4261
 3496W        W19680  10.436  14.032  12.977 -0.2239  0.1320  0.0591
 3497W        W19681   3.110  14.702  14.660 -0.1375 -0.1178  0.1114
 3498W        W19682   5.338  15.359  14.829 -0.1149  0.1761  0.0289
 3499W        W19683   3.957   9.275   1.708  0.1301 -0.1994 -0.2122
 3500W        W19684   6.153   9.422  12.045 -0.0471  0.1178 -0.3603
 3501W        W19685  18.708  17.408   2.317  0.1174 -0.1256  0.1107
 3502W        W19686   0.148  16.063   5.082  0.0403  0.2223  0.0268
 3503W        W19687   4.897  13.658  14.243  0.0243  0.0678 -0.0237
 3504W        W19688   9.685  12.888  14.938 -0.0284  0.2960  0.1485
 3505W        W19689   7.487   5.948  14.729  0.0389  0.1939  0.1494
 3506W        W19690  18.650   2.859   1.011  0.2208 -0.0915 -0.0889
 3507W        W19691  14.616   4.725  13.433 -0.0767  0.1481  0.0005
 3508W        W19692  11.765  15.410   4.343 -0.3172  0.2178  0.2674
 3509W        W19693   4.851   6.296  14.812 -0.3018 -0.0529  0.2843
 3510W        W19694  10.856  18.799  13.040 -0.1284  0.0510  0.4970
 3511W        W19695  15.620   8.101  12.612 -0.1893  0.0295  0.1240
 3512W        W19696  18.697  10.120  11.770  0.3088  0.3263 -0.2651
 3513W        W19697   7.373  17.292   0.424 -0.4518  0.0921 -0.2811
 3514W        W19698   6.616   4.734   9.830  0.1989  0.0296 -0.0615
 3515W        W19699  18.200   3.954   1.485  0.1333  0.1447  0.2993
 3516W        W19700  15.030   2.970   5.191 -0.4758  0.1291  0.0828
 3517W        W19701  14.270   1.485  11.989 -0.1714 -0.1861  0.1079
 3518W        W19702   4.930   7.995   2.433 -0.0025  0.6887 -0.1890
 3519W        W19703   0.466   7.387   2.744 -0.1067  0.1686 -0.1809
 3520W        W19704  12.249   4.370  11.150 -0.4570 -0.1231 -0.0748
 3521W        W19705  16.189   5.766   1.186  0.1881  0.1594  0.1013
 3522W        W19706  17.506   2.331  14.415  0.3379 -0.0861  0.0543
 3523W        W19707   5.536  11.441  10.959  0.1298 -0.4056  0.2913
 3524W        W19708   7.465  10.477  13.369 -0.0265  0.0378  0.0883
 3525W        W19709  13.075  17.935  11.100  0.0090 -0.1438 -0.0449
 3526W        W19710  17.339  16.805  14.822  0.0403 -0.5025 -0.0152
 3527W        W19711   8.879   5.660   0.459  0.3279 -0.0776  0.1956
 3528W        W19712  15.428   2.741   9.964 -0.0966 -0.0687  0.0670
 3529W        W19713   3.476  14.116  12.630 -0.0921  0.2818 -0.1580
 3530W        W19714  14.221  11.241  13.462  0.2875 -0.0021  0.0648
 3531W        W19715  14.745  17.173  13.617 -0.1499  0.0498 -0.0898
 3532W        W19716  14.260   1.480   3.278 -0.0853 -0.0783 -0.1669
 3533W        W19717   7.904  17.512  12.494 -0.1151 -0.1272  0.1199
 3534W        W19718  10.727   8.808   5.531 -0.1694 -0.1191  0.3832
 3535W        W19719   4.083   9.929   3.276 -0.3660 -0.0972 -0.1388
 3536W        W19720   3.102  11.724  14.094 -0.0466  0.1223 -0.1202
 3537W        W19721  18.164   2.154   3.878 -0.0282  0.1653 -0.0536
 3538W        W19722  18.675  13.484  10.815 -0.0773 -0.0935  0.0654
 3539W        W19723   4.917  15.882   9.687  0.1737  0.3166  0.0342
 3540W        W19724   3.553   3.002   0.530  0.0839 -0.1833  0.2617
 3541W        W19725   7.051   6.633  14.176  0.1845 -0.2638  0.3197
 3542W        W19726   5.746   5.629   0.877  0.0716  0.1623 -0.1549
 3543W        W19727  16.742   7.315   2.228 -0.1723 -0.1553 -0.0458
 3544W        W19728   3.671   0.206   4.400  0.2557  0.2874 -0.0535
 3545W        W19729   0.713   7.119  12.836  0.1831 -0.2174  0.3251
 3546W        W19730   6.397  14.975   4.355  0.2950 -0.0192  0.2507
 3547W        W19731   9.378   7.963   0.214  0.0449 -0.0245  0.0203
 3548W        W19732  14.535   3.250   3.810 -0.0738  0.0124  0.2950
 3549W        W19733   5.862   0.160   1.511 -0.2518 -0.0394  0.3458
 3550W        W19734  13.817  13.858  11.412 -0.1920 -0.2032  0.2273
 3551W        W19735  18.833   6.130  10.627  0.2544 -0.1340 -0.1728
 3552W        W19736   5.861  10.753  12.991  0.2195  0.0156  0.0443
 3553W        W19737  10.830  10.402  12.889 -0.0987 -0.3074 -0.2831
 3554W        W19738   8.823  14.169   5.908 -0.1782  0.2425 -0.3202
 3555W        W19739  10.678  17.569   0.421 -0.1056 -0.2771  0.2078
 3556W        W19740   7.467   4.341   3.462 -0.2468  0.3237  0.0642
 3557W        W19741   7.075  16.446  10.984  0.0197  0.0961 -0.2521
 3558W        W19742   8.185  12.245  12.867 -0.0066  0.2316  0.1091
 3559W        W19743  17.279   3.585  10.676  0.0188 -0.1281  0.2844
 3560W        W19744  12.621   3.500   4.639  0.0971 -0.0656 -0.0577
 3561W        W19745   3.003   4.931  12.589 -0.1578  0.0076 -0.3684
 3562W        W19746  18.676  15.840   2.023 -0.0714 -0.1197 -0.2253
 3563W        W19747   6.555  11.858   0.464 -0.1800  0.0253 -0.4070
 3564W        W19748   0.682   7.146  14.925 -0.3033 -0.2324 -0.0014
 3565W        W19749   8.328  13.936  11.747 -0.0311 -0.1998  0.2845
 3566W        W19750   0.551   3.813  14.872 -0.0928 -0.3192 -0.0332
 3567W        W19751   5.469  16.589  13.260  0.0751 -0.0031  0.1841
 3568W        W19752  16.304   5.825  14.788 -0.3690 -0.0303  0.1387
 3569W        W19753   2.929   6.940  11.992  0.0844 -0.2504  0.4070
 3570W        W19754  13.233   1.994  10.802 -0.1369 -0.2763  0.1056
 3571W        W19755   5.879   4.810   3.988 -0.2946 -0.0333 -0.0987
 3572W        W19756   2.866  18.163  14.274  0.0261 -0.2138  0.4498
 3573W        W19757  18.816  19.373  12.332 -0.0420 -0.0972 -0.3484
 3574W        W19758  14.555   1.617  10.017  0.1850 -0.2803 -0.1376
 3575W        W19759  11.215  16.225  14.124 -0.1222  0.0002  0.1651
 3576W        W19760  14.830   6.374  14.822 -0.2549 -0.4055 -0.1727
 3577W        W19761  11.885   5.374  14.347  0.0218 -0.3293  0.0050
 3578W        W19762  11.911   6.392   1.023  0.0373 -0.1790  0.4307
 3579W        W19763   9.132  16.216  14.176  0.1010 -0.0230 -0.2661
 3580W        W19764  13.574  11.434  12.796  0.1308 -0.2282  0.1480
 3581W        W19765   2.786  16.609   2.480 -0.1198  0.0284 -0.0495
 3582W        W19766   1.568  17.344  13.111  0.2679 -0.2151 -0.1504
 3583W        W19767  16.014  15.051   3.908  0.0477  0.3047 -0.1732
 3584W        W19768   6.875   6.335   4.585  0.0412 -0.0520  0.1554
 3585W        W19769  17.278   3.835  11.632  0.0379  0.5363  0.2940
 3586W        W19770  12.424   5.529  14.208 -0.1329 -0.4355 -0.4196
 3587W        W19771   9.724   0.807   3.891 -0.3425 -0.3390 -0.1374
 3588W        W19772  10.179  19.276   0.742  0.0565 -0.1244  0.0057
 3589W        W19773  13.842   0.868  10.687 -0.1544 -0.0767  0.2922
 3590W        W19774  18.937   7.634  11.369 -0.0732 -0.0871 -0.1186
 3591W        W19775   8.153   2.482   4.353  0.1035  0.1512  0.2691
 3592W        W19776   9.089  13.930  12.892  0.0862 -0.2207 -0.1485
 3593W        W19777  16.149  17.593   4.999 -0.2711 -0.0324  0.0946
 3594W        W19778   1.034   8.636  11.596 -0.3728 -0.4073 -0.2624
 3595W        W19779  16.179  15.364   4.798 -0.0457 -0.2597 -0.1286
 3596W        W19780   3.255  12.745   2.518 -0.2139 -0.1312  0.1924
 3597W        W19781   0.533  17.966  11.592 -0.0420 -0.0015  0.1423
 3598W        W19782   4.324   9.165  13.789 -0.2655  0.2035 -0.0744
 3599W        W19783   3.660  16.654   2.943 -0.2185  0.2494 -0.4068
 3600W        W19784  15.622   8.737  10.375 -0.0185 -0.0277  0.1640
 3601W        W19785  15.061   4.474  12.005 -0.1346  0.2309  0.0607
 3602W        W19786  16.198  12.766   0.163  0.3231 -0.0465 -0.1175
 3603W        W19787  11.791   4.712   4.112 -0.2200 -0.0166  0.2437
 3604W        W19788  14.059  17.512  12.940  0.0820  0.2345  0.3351
 3605W        W19789   3.725  17.396   2.316  0.3074 -0.1953  0.2998
 3606W        W19790   7.744   1.800  12.904 -0.3258 -0.2768  0.1925
 3607W        W19791  16.287  12.130  10.353 -0.1895  0.3417 -0.0982
 3608W        W19792  19.057   7.195  10.067 -0.1681 -0.2625  0.1475
 3609W        W19793  17.665  19.308   2.912  0.1573 -0.2211 -0.2013
 3610W        W19794  11.011   7.551  12.449 -0.3494  0.0952 -0.1246
 3611W        W19795  10.613  13.943   3.187  0.0984  0.0259  0.1135
 3612W        W19796   4.753   1.854   1.193 -0.2664  0.0819  0.1750
 3613W        W19797  10.577  16.718   4.660 -0.0997 -0.2042 -0.3182
 3614W        W19798   9.804  14.499   4.848  0.0509 -0.2679 -0.2088
 3615W        W19799   2.715   0.282   2.072  0.3854 -0.1973  0.1559
 3616W        W19800   4.962   1.089   1.905 -0.3398  0.0990 -0.0175
 3617W        W19801   2.728  10.136   3.037 -0.1104  0.1430  0.1534
 3618W        W19802   4.804   2.051   0.098 -0.2192  0.1647  0.1607
 3619W        W19803   4.130   7.680  11.560  0.0443 -0.0826  0.0597
 3620W        W19804  18.239  17.227   2.330 -0.1719  0.1294  0.0142
 3621W        W19805  16.904  16.653  12.739 -0.0154 -0.1990 -0.1808
 3622W        W19806   2.347  17.226  14.277 -0.3200 -0.1070 -0.2880
 3623W        W19807   6.221   7.551  11.842 -0.1433 -0.2861  0.0452
 3624W        W19808   3.001   2.929  14.618 -0.0645 -0.1793  0.0114
 3625W        W19809   8.583  12.151   4.698  0.0239 -0.2193 -0.0095
 3626W        W19810   3.900  17.908   1.460 -0.2592 -0.4073 -0.0667
 3627W        W19811   6.466   9.543   0.459 -0.2494  0.1251  0.0741
 3628W        W19812  16.834  12.485   0.638  0.2755 -0.2768  0.1997
 3629W        W19813   3.934  16.495   2.465 -0.3341  0.1915  0.1224
 3630W        W19814   7.580   0.731   0.458 -0.1599 -0.1140  0.1981
 3631W        W19815   2.717  15.969   4.725  0.3965 -0.2085 -0.0932
 3632W        W19816  15.472  16.810   2.189 -0.0449 -0.1118 -0.3144
 3633W        W19817   5.311  11.157   3.815 -0.3158  0.1774  0.2355
 3634W        W19818   9.505   5.052   0.078  0.1243  0.0534  0.0661
 3635W        W19819   3.167   3.410  11.087 -0.2831  0.2659 -0.0061
 3636W        W19820  12.908   3.077  13.559 -0.1063 -0.1599  0.1741
 3637W        W19821   7.432  18.957   2.255  0.1242 -0.1241  0.2745
 3638W        W19822   0.920  13.334   3.884 -0.0160 -0.2135 -0.2223
 3639W        W19823   5.190  13.775  11.820 -0.1020  0.4914  0.0066
 3640W        W19824  13.184   0.895  11.827 -0.1804  0.1748 -0.0480
 3641W        W19825  11.837  13.608  13.552  0.1666  0.0007 -0.3794
 3642W        W19826   1.284   2.812  11.514  0.0730  0.0045  0.3144
 3643W        W19827   4.912   1.743  13.093  0.4749  0.0737  0.2109
 3644W        W19828  10.442  12.458   1.733 -0.0418 -0.4009  0.0194
 3645W        W19829  11.212   1.199   2.467 -0.2445  0.0569  0.2235
 3646W        W19830  11.672  15.789  11.944  0.1094 -0.1781  0.0091
 3647W        W19831   1.017   8.398   4.920 -0.1829  0.0063 -0.0476
 3648W        W19832   0.039  17.343  12.164 -0.0779  0.1025 -0.4622
 3649W        W19833  12.884   9.400  10.519 -0.1532  0.1513  0.1906
 3650W        W19834  16.913  17.785   4.383  0.2676  0.0921 -0.2885
 3651W        W19835   0.505  13.925   3.888  0.1002 -0.1023 -0.1193
 3652W        W19836   5.666   7.296   0.370 -0.1064 -0.1830 -0.2937
 3653W        W19837   4.389  16.756  14.422 -0.6297  0.1370  0.1272
 3654W        W19838  14.920  12.078   3.855  0.0113 -0.0407  0.1045
 3655W        W19839   1.241   7.007   2.233 -0.0035 -0.0634 -0.4779
 3656W        W19840   2.791   9.633   3.063 -0.0038 -0.0683  0.0746
 3657W        W19841   9.945   0.378  13.330  0.1420  0.1784  0.0497
 3658W        W19842  16.749   5.675   2.529  0.1177  0.2283  0.0583
 3659W        W19843   8.549   8.797  12.484 -0.1788 -0.1082 -0.1371
 3660W        W19844   4.715   4.596  13.639 -0.0443 -0.0516 -0.0752
 3661W        W19845  16.357   1.653   4.610 -0.2959  0.1565 -0.1128
 3662W        W19846  12.911  16.670   2.439  0.2948  0.0137 -0.0615
 3663W        W19847  13.055  11.473  12.048 -0.0542  0.2481 -0.1229
 3664W        W19848  11.308   0.923   2.029 -0.2168  0.1905  0.3275
 3665W        W19849  18.037  13.629  11.714 -0.1760  0.1191 -0.0517
 3666W        W19850  16.029  16.935  10.621 -0.0352 -0.0065 -0.1463
 3667W        W19851   8.385  14.817   2.029  0.1069  0.0602  0.0202
 3668W        W19852   3.605  16.659   5.093 -0.1542 -0.1891 -0.0225
 3669W        W19853   8.298  17.243  12.631 -0.0197 -0.2244  0.1259
 3670W        W19854  10.394   3.682   3.024  0.3702 -0.2721  0.0914
 3671W        W19855   6.714  17.768   1.376 -0.1023 -0.3332 -0.0887
 3672W        W19856   3.895  12.983  10.956 -0.2160 -0.0627 -0.2916
 3673W        W19857  17.242  11.050  12.069  0.2722 -0.1481 -0.0926
 3674W        W19858   8.759  12.727  11.382 -0.0458 -0.2294 -0.2376
 3675W        W19859  10.374   7.845  13.838 -0.0623 -0.1488 -0.0994
 3676W        W19860  13.656  17.311   2.612 -0.0930  0.1836  0.1778
 3677W        W19861   1.373  17.408   4.432  0.0493  0.2518  0.2185
 3678W        W19862   5.107   4.225   4.283  0.1362  0.2193 -0.0437
 3679W        W19863   2.587  11.717  12.040 -0.0467 -0.0570  0.3231
 3680W        W19864   6.388   7.211   2.052 -0.1684 -0.2534  0.0736
 3681W        W19865  11.749   5.691  10.648 -0.2704  0.0878 -0.1317
 3682W        W19866   8.175  10.042  11.494 -0.1184  0.1258  0.0374
 3683W        W19867  18.417   5.145  13.808 -0.0143  0.0696  0.2885
 3684W        W19868   2.687  18.334   2.588  0.1210  0.2173 -0.0066
 3685W        W19869   7.093   4.736  12.526  0.2439  0.1709  0.0174
 3686W        W19870   0.011   7.774   3.336  0.1929  0.3936  0.0923
 3687W        W19871  10.807  14.706  13.437 -0.0045  0.3680 -0.2081
 3688W        W19872  11.041  18.921   0.927 -0.0392  0.1268  0.2052
 3689W        W19873   2.761   0.791  11.439  0.1598  0.0204 -0.0304
 3690W        W19874  14.601  15.100  11.253 -0.2347 -0.0290 -0.4089
 3691W        W19875  10.965  16.803  14.785  0.0257  0.0298 -0.0169
 3692W        W19876   9.401  17.951   2.410 -0.0156 -0.1069  0.2007
 3693W        W19877  18.004  10.192  13.601  0.2867 -0.2232 -0.0985
 3694W        W19878   1.578   0.990  14.464 -0.1510  0.0017  0.0556
 3695W        W19879   6.389   3.116  10.202 -0.1450  0.1302 -0.1506
 3696W        W19880  16.818  17.957  11.259 -0.0900 -0.0846 -0.0351
 3697W        W19881  13.366   9.418   0.297  0.0693  0.0836 -0.0301
 3698W        W19882  11.197  16.582   1.641 -0.4420  0.2194 -0.1193
 3699W        W19883   2.382   9.321   3.714 -0.0616 -0.0720  0.0230
 3700W        W19884  10.367   6.510  13.271 -0.2757  0.3253 -0.2050
 3701W        W19885   0.306   0.600   5.145 -0.0695 -0.2920  0.2134
 3702W        W19886  12.546  10.786  13.130  0.1506  0.3284  0.3443
 3703W        W19887   3.071  11.854  11.291 -0.1518 -0.0224  0.2918
 3704W        W19888  15.082  18.438  13.471  0.1317 -0.0433 -0.0556
 3705W        W19889  15.799  13.254  11.098  0.1726 -0.1020 -0.2970
 3706W        W19890  16.416   1.438  11.598 -0.4046 -0.0489  0.0085
 3707W        W19891  16.516  11.694   1.086  0.0633  0.2660  0.1970
 3708W        W19892  13.774  12.215   2.852  0.0311  0.1434 -0.0927
 3709W        W19893   3.799   2.153  12.218  0.1602  0.1232 -0.0123
 3710W        W19894   8.351   1.069   3.556 -0.0738 -0.1606  0.1976
 3711W        W19895   9.769   7.961   5.250  0.3524  0.0445  0.0405
 3712W        W19896   5.721  10.290   4.716  0.2625 -0.0147 -0.2507
 3713W        W19897  13.646  10.922   3.655 -0.0891  0.1009 -0.1108
 3714W        W19898   3.441  11.237   0.517 -0.2684  0.1763  0.0417
 3715W        W19899  15.147  15.976   2.652  0.1038 -0.2037 -0.2207
 3716W        W19900  12.498  16.109  12.739 -0.1985  0.5248 -0.2039
 3717W        W19901  17.416  18.006  12.762 -0.1013  0.1726  0.2966
 3718W        W19902  17.640  18.292   1.450 -0.0933 -0.4203 -0.0965
 3719W        W19903  15.462  16.813   3.682  0.0457  0.0892  0.0077
 3720W        W19904   5.476  11.764  14.874  0.0357  0.0652  0.2926
 3721W        W19905  14.720   6.406   2.298  0.1906  0.2678  0.0309
 3722W        W19906   7.636   6.171  12.183 -0.2743  0.1031  0.0638
 3723W        W19907   0.274   1.238  10.578  0.0125  0.0262 -0.0029
 3724W        W19908  10.540  15.054   9.390 -0.1920  0.0065  0.0243
 3725W        W19909   8.312   3.807  12.391 -0.2029 -0.0492  0.3199
 3726W        W19910   7.392   2.168  11.634 -0.1070  0.0900  0.0687
 3727W        W19911  13.615   7.889  10.624 -0.1376  0.1923 -0.1064
 3728W        W19912   3.356  16.899  14.415 -0.1570  0.2495  0.4545
 3729W        W19913   4.344   7.426  13.857 -0.1378  0.0808 -0.0790
 3730W        W19914   1.731   4.247  12.108 -0.0601 -0.2729  0.1550
 3731W        W19915   9.750  13.006   5.991 -0.1770 -0.2364 -0.3109
 3732W        W19916   9.892   2.779  11.374  0.0412  0.0210 -0.0181
 3733W        W19917   2.849   7.573   2.569 -0.2989 -0.0248  0.1753
 3734W        W19918  17.182  11.504   4.420 -0.1769 -0.0680  0.0367
 3735W        W19919  15.348   8.278   4.996  0.0603  0.3853  0.0184
 3736W        W19920   6.045  19.164   1.714  0.0460  0.1068  0.0711
 3737W        W19921  11.054   5.911  12.211 -0.0472  0.1845  0.0664
 3738W        W19922  16.835   7.396   1.149  0.3159  0.0940 -0.1186
 3739W        W19923  13.898   2.604   4.434 -0.1620 -0.2063  0.0644
 3740W        W19924  12.150  15.790   0.727  0.2886 -0.2304 -0.0474
 3741W        W19925   6.131   0.617  11.538 -0.1701  0.5184  0.0932
 3742W        W19926  13.140   5.222   5.253 -0.1273  0.0419 -0.0797
 3743W        W19927   7.347  15.326  11.630 -0.0283  0.2467 -0.4263
 3744W        W19928  14.331  16.813   2.117  0.0100 -0.0736 -0.1170
 3745W        W19929   7.682   0.607  14.937 -0.0247 -0.0065 -0.1621
 3746W        W19930  11.923  10.257  13.844  0.0573 -0.0486  0.1521
 3747W        W19931  11.445   6.675  14.656  0.1368 -0.0608  0.0979
 3748W        W19932   2.225   0.147  10.551 -0.3435  0.1632 -0.0835
 3749W        W19933   5.308   5.289   0.688  0.0079 -0.0816  0.3442
 3750W        W19934   9.247   9.897   1.994  0.1988  0.1049  0.1519
 3751W        W19935  12.472  18.288   2.605 -0.0698 -0.4054  0.1434
 3752W        W19936   0.480  12.694   3.204  0.1690  0.1199 -0.0651
 3753W        W19937   5.745  16.923   4.715  0.0167 -0.0338 -0.0146
 3754W        W19938  13.984  19.221  14.493  0.3661  0.1196  0.1538
 3755W        W19939  18.264  18.344  13.531  0.1950 -0.1715  0.1409
 3756W        W19940  10.234   5.138   2.652  0.0390 -0.0993 -0.2533
 3757W        W19941  12.322   5.055   3.522  0.1513  0.1371 -0.3483
 3758W        W19942   2.655   7.129   4.784 -0.1379  0.3094  0.3713
 3759W        W19943   2.330   6.639   2.121 -0.0983 -0.0579  0.1568
 3760W        W19944   9.913  13.308   0.132  0.6418 -0.1034  0.1460
 3761W        W19945   6.783   7.497   4.182 -0.0308 -0.0339 -0.1180
 3762W        W19946   6.440   2.786  14.808  0.1291  0.1142 -0.1383
 3763W        W19947  12.841  11.234   0.593 -0.0102 -0.0617 -0.1904
 3764W        W19948  11.084   1.575  13.871  0.2321  0.1959  0.0078
 3765W        W19949   2.214  12.318  12.810  0.3655  0.1931 -0.0516
 3766W        W19950  11.233  11.793   0.624  0.0735 -0.0349 -0.1248
 3767W        W19951   1.961   3.448   3.199 -0.3040 -0.3229 -0.3605
 3768W        W19952   3.101   6.913   3.223 -0.1911 -0.1382 -0.1072
 3769W        W19953  16.271  18.084   2.606 -0.2302  0.0642 -0.0935
 3770W        W19954   9.896  13.341  10.746  0.0141 -0.1600  0.0799
 3771W        W19955   8.358  13.732  14.149  0.1003  0.0793  0.2151
 3772W        W19956   5.020   8.748   0.778  0.0137 -0.0702 -0.1340
 3773W        W19957   3.277  13.687  11.778 -0.1140  0.2293 -0.2684
 3774W        W19958   4.725   1.628   1.676 -0.3104 -0.0457 -0.0618
 3775W        W19959  10.979   8.445  13.287 -0.2869 -0.0393 -0.1804
 3776W        W19960  17.660   3.788  12.438 -0.3380  0.0774  0.0654
 3777W        W19961  18.501   1.817  11.485 -0.0944  0.1574 -0.2441
 3778W        W19962  14.432  13.043   1.374 -0.1143  0.3335  0.0438
 3779W        W19963   6.265   6.127  13.561  0.1930  0.2067  0.4974
 3780W        W19964  10.254   9.535  14.384  0.0041 -0.1597 -0.0554
 3781W        W19965  10.934   4.397   4.145  0.0106  0.3643 -0.1428
 3782W        W19966  18.422   7.341   2.719 -0.3701 -0.1150 -0.0809
 3783W        W19967   9.251   7.256  13.913  0.0598 -0.1720  0.0887
 3784W        W19968  11.450  16.085  11.519  0.3441 -0.0327  0.0264
 3785W        W19969  16.551   7.421   4.539 -0.3550  0.2169  0.0350
 3786W        W19970   2.695  16.842   5.883 -0.3218 -0.0376  0.2623
 3787W        W19971   4.254   2.134   5.721  0.1342 -0.1771 -0.1363
 3788W        W19972   6.612   9.986   0.178 -0.0294  0.1230  0.1322
 3789W        W19973  15.655   3.025  10.963 -0.3260 -0.1168  0.0003
 3790W        W19974  10.060   6.353   3.387 -0.1567 -0.0620  0.0757
 3791W        W19975  11.393   5.743   1.256  0.2942 -0.2386 -0.2208
 3792W        W19976   7.734  16.589  14.470 -0.0624  0.1320 -0.1906
 3793W        W19977  16.254   6.700   0.245 -0.1903 -0.2551  0.0663
 3794W        W19978  16.510  13.004  14.588 -0.2104  0.0444  0.0442
 3795W        W19979   3.057   6.868  10.784 -0.2137 -0.0447  0.3093
 3796W        W19980  13.578   0.410   0.852  0.0293 -0.0026  0.1975
 3797W        W19981  19.343  17.466  11.294 -0.1525 -0.0063  0.0895
 3798W        W19982   1.184   9.131   0.554 -0.0893  0.1315  0.1569
 3799W        W19983  10.186  16.929   3.050  0.0625  0.0484  0.1653
 3800W        W19984  19.005  10.180  14.103 -0.2439  0.1472 -0.1445
 3801W        W19985   2.716  11.018   4.563 -0.4334 -0.1981 -0.1066
 3802W        W19986  14.008   5.303  10.044  0.0226  0.1772 -0.2047
 3803W        W19987  10.487  12.223   3.079  0.1602 -0.1722 -0.0990
 3804W        W19988  19.122   8.385   0.009  0.0115 -0.4501 -0.2928
 3805W        W19989  11.010  16.041   2.621 -0.1668 -0.2789 -0.1961
 3806W        W19990   2.632  15.656   4.280 -0.3103  0.1139  0.0636
 3807W        W19991   5.955   2.460   5.202 -0.2281 -0.2982 -0.0591
 3808W        W19992  11.623  18.821  11.379  0.1128  0.0790  0.1600
 3809W        W19993  12.498   5.555   9.712 -0.0135  0.3604  0.2279
 3810W        W19994   3.983   3.223  10.158 -0.0237 -0.3703  0.0969
 3811W        W19995  17.807   9.945  10.858  0.0596  0.1132  0.0209
 3812W        W19996   5.985   3.722   1.508 -0.2081  0.1629 -0.1942
 3813W        W19997   3.466   1.170  12.487 -0.1882 -0.1657 -0.1736
 3814W        W19998   0.850   6.359  10.811  0.0712 -0.0520  0.0451
 3815W        W19999  14.828   4.308   2.047  0.1121  0.1443 -0.0547
 3816W        W20000  16.280  11.379  12.444  0.0703 -0.2506  0.2354
 3817W        W20001  16.510   9.136   3.537 -0.2665  0.1720 -0.2999
 3818W        W20002   2.564   9.454  12.149  0.0321  0.1834 -0.1883
 3819W        W20003   8.460  16.849   2.691 -0.0149  0.0881  0.0146
 3820W        W20004   4.848  17.130  13.649 -0.1541  0.2664 -0.0915
 3821W        W20005  15.315   9.029   2.378  0.1595  0.1142  0.1666
 3822W        W20006   3.119  14.356   0.091  0.1097 -0.0809  0.3000
 3823W        W20007   2.021   0.931   1.962 -0.1251 -0.4432  0.0271
 3824W        W20008   6.668  18.519   4.745  0.1957  0.1007 -0.2462
 3825W        W20009   2.103   3.588   1.474 -0.0829  0.1292  0.3527
 3826W        W20010   4.720  12.554  11.553 -0.2726  0.3977  0.2664
 3827W        W20011  10.435  14.075  14.548  0.0435 -0.0266 -0.0235
 3828W        W20012   8.401  17.532   2.296 -0.2565  0.2358 -0.1301
 3829W        W20013   2.984   1.178   0.365 -0.0318 -0.0522 -0.1990
 3830W        W20014   3.236  10.916  13.349 -0.2864 -0.1695 -0.1163
 3831W        W20015   2.773   2.345  13.341  0.2813 -0.3481  0.0884
 3832W        W20016   7.121   7.555  14.422 -0.2535 -0.1547 -0.1161
 3833W        W20017   8.158  19.266  13.047  0.3384  0.3172 -0.0535
 3834W        W20018   0.004  19.376  14.480 -0.0058  0.3426 -0.0667
 3835W        W20019   0.942   9.828   4.607 -0.3244 -0.0796  0.2287
 3836W        W20020   0.834   5.009   4.890  0.0514  0.1443 -0.6610
 3837W        W20021   8.708  11.374  13.179  0.2536  0.0145 -0.0040
 3838W        W20022  15.520  14.348  14.704  0.1303 -0.0504 -0.2798
 3839W        W20023  12.919  17.460   3.412 -0.2710 -0.3010 -0.0404
 3840W        W20024   6.625   0.363   3.291  0.0753  0.1359  0.4720
 3841W        W20025   5.854   2.171   2.503 -0.1660 -0.0534 -0.1334
 3842W        W20026  13.899  10.921  14.089  0.2446  0.1253 -0.1297
 3843W        W20027  14.533  13.346  11.299  0.1930 -0.1277 -0.0700
 3844W        W20028   3.803   8.572  11.001  0.1997 -0.0331  0.0263
 3845W        W20029  18.244   1.592   1.400  0.1576 -0.0011  0.0505
 3846W        W20030  11.209   1.982  14.376  0.0234 -0.3065  0.0616
 3847W        W20031   6.522   1.444   2.432  0.0380  0.0035 -0.4960
 3848W        W20032   6.325   8.002  14.044  0.0881 -0.3097 -0.1632
 3849W        W20033   0.717   5.278  12.202  0.0748  0.1788 -0.0076
 3850W        W20034   4.274   4.658   1.745 -0.3689 -0.0142  0.0584
 3851W        W20035   5.346  14.065   4.291  0.0306 -0.1893  0.1858
 3852W        W20036   3.202   0.178  10.497 -0.2745  0.2530  0.0725
 3853W        W20037   6.587   5.823   1.149  0.1819  0.0150 -0.2892
 3854W        W20038  16.579  17.958  14.059  0.2605 -0.3407 -0.0282
 3855W        W20039  18.403   5.796  12.890 -0.0817  0.5562  0.1591
 3856W        W20040   8.045   2.802  14.717  0.0807  0.1376 -0.1460
 3857W        W20041  10.851  14.430  11.338  0.0130 -0.3482  0.0745
 3858W        W20042  17.397   1.519  14.347  0.1450  0.0294  0.0970
 3859W        W20043   0.698  14.886   2.004 -0.0878  0.3399 -0.0087
 3860W        W20044   7.476  10.565  11.481 -0.4223  0.3803  0.0251
 3861W        W20045  10.223  18.409   1.559 -0.0520 -0.2287  0.2421
 3862W        W20046  15.465   5.278  13.557  0.0560  0.0834  0.0645
 3863W        W20047  16.533  13.361  13.807  0.5065 -0.1650 -0.2067
 3864W        W20048   4.986  12.636   4.305 -0.1415  0.0191 -0.1079
 3865W        W20049   1.594   9.505   1.987 -0.2269 -0.2643  0.0521
 3866W        W20050  16.108   4.597  14.913 -0.2114 -0.0263 -0.1929
 3867W        W20051   4.637  12.889   0.171 -0.2277 -0.1868  0.1086
 3868W        W20052   4.688  17.519  13.418 -0.0366 -0.0729  0.2339
 3869W        W20053   4.632  12.696   0.664  0.3002 -0.1064 -0.1640
 3870W        W20054   5.148   4.623   2.893  0.2975  0.1005 -0.0233
 3871W        W20055  16.471  12.354   0.348  0.0121 -0.2621 -0.0458
 3872W        W20056   8.269   9.041   1.178 -0.1490  0.1930  0.2367
 3873W        W20057   1.362   2.436   4.642 -0.1134  0.0918 -0.2629
 3874W        W20058   9.101  11.064   6.152 -0.4198 -0.0058 -0.0422
 3875W        W20059   2.977   9.031   3.475 -0.0316 -0.1762  0.0957
 3876W        W20060   6.396   6.573   4.087  0.2278 -0.0567 -0.5264
 3877W        W20061  16.458   8.692   3.077  0.1253 -0.1066 -0.1158
 3878W        W20062   4.058   3.052  13.495 -0.0566  0.1171  0.1920
 3879W        W20063   0.101   4.189   0.161 -0.0981 -0.1149  0.0387
 3880W        W20064   7.150   7.293   1.825  0.1969 -0.5477 -0.2353
 3881W        W20065   8.772  18.923  10.852 -0.1583  0.0814  0.2429
 3882W        W20066  17.220   9.123  11.217 -0.0670  0.1444 -0.0087
 3883W        W20067   3.132   9.424   2.676 -0.0779  0.2125  0.1964
 3884W        W20068   1.242   1.959   4.651  0.1493 -0.2648  0.3603
 3885W        W20069   0.002   9.381   4.481  0.1177 -0.1018 -0.0670
 3886W        W20070   1.391  17.830   5.869  0.0047  0.2096 -0.0465
 3887W        W20071   7.153   8.947   3.259 -0.0596 -0.5487  0.3733
 3888W        W20072   8.755   1.732   2.534 -0.3487  0.0389  0.0297
 3889W        W20073  13.822  16.898   1.929 -0.0189 -0.2240  0.0637
 3890W        W20074  14.146  15.527  14.117 -0.2626 -0.2374  0.2193
 3891W        W20075  14.437  10.360   3.269  0.2919  0.3523 -0.0619
 3892W        W20076   2.097  14.874  13.484 -0.2086 -0.2913 -0.2895
 3893W        W20077  16.756  18.360   0.814  0.2329 -0.0247 -0.1059
 3894W        W20078  16.443   4.722  12.716 -0.0322 -0.2778 -0.0786
 3895W        W20079   5.896  16.822  13.105  0.1096 -0.1836  0.0045
 3896W        W20080  16.331   7.130   3.183  0.1159  0.1301  0.3397
 3897W        W20081  14.126  11.437   0.610 -0.2211  0.1701 -0.1571
 3898W        W20082  11.514  16.874   1.363 -0.2967  0.1568 -0.1787
 3899W        W20083  16.829  11.160  13.992  0.1388  0.0964  0.0093
 3900W        W20084  16.611   1.924  14.255 -0.2725 -0.0388 -0.1361
 3901W        W20085   6.429   2.997  10.690 -0.0019  0.0650  0.3068
 3902W        W20086  17.098  18.641   1.101 -0.1734  0.1023  0.1507
 3903W        W20087   1.998   8.349  14.597  0.0276 -0.1833  0.0128
 3904W        W20088   1.461  19.170  13.071 -0.0785 -0.0602 -0.0264
 3905W        W20089  10.492  17.514  12.918  0.1439 -0.0525  0.2093
 3906W        W20090  18.239  14.805   4.111  0.0045 -0.2590 -0.1056
 3907W        W20091   6.096   8.836  13.646  0.4811  0.0871 -0.0099
 3908W        W20092   2.719  13.032  12.704 -0.0905  0.1855 -0.1788
 3909W        W20093   3.427   6.002  14.744  0.1807  0.2849  0.3302
 3910W        W20094   7.535  14.556  11.766 -0.0209 -0.0329  0.0370
 3911W        W20095  18.770  18.142   4.074 -0.0589 -0.4863  0.0949
 3912W        W20096  12.337   7.566   0.990 -0.1148  0.1508  0.0309
 3913W        W20097   7.416  11.834   2.825  0.2331 -0.1817  0.0793
 3914W        W20098   3.323  16.007  12.863 -0.0178 -0.2267  0.0656
 3915W        W20099   9.870   3.184  12.800 -0.3164  0.2745  0.0690
 3916W        W20100  10.998  18.015   5.034  0.1360  0.1662  0.2579
 3917W        W20101  18.430   6.694   3.662  0.1551 -0.1107  0.1216
 3918W        W20102  12.056  12.873   0.756  0.2301 -0.1118  0.1305
 3919W        W20103   0.199   9.301   0.957 -0.0136 -0.2613  0.0932
 3920W        W20104   6.679  10.108   3.806  0.0144 -0.2471 -0.0137
 3921W        W20105   4.515   6.078  12.387  0.0084  0.1201  0.3486
 3922W        W20106  14.281  18.035   3.808 -0.1608  0.2282 -0.3661
 3923W        W20107  13.674  14.745  14.710  0.1178 -0.2476 -0.0764
 3924W        W20108  12.615   9.204   2.125 -0.2014  0.0707 -0.2767
 3925W        W20109  13.286  18.714  10.915 -0.0363 -0.0549  0.0860
 3926W        W20110   8.573  15.809   4.985  0.0246 -0.2971 -0.0399
 3927W        W20111   0.235   4.669   3.815 -0.0215 -0.1210  0.2095
 3928W        W20112  19.359   5.110   3.798 -0.2164  0.0706  0.1879
 3929W        W20113   7.031   4.458  13.654  0.2069 -0.0265  0.0538
 3930W        W20114   5.032   7.763  13.891 -0.0356 -0.0842 -0.0750
 3931W        W20115  10.941  15.243   4.700  0.0777 -0.0105 -0.1342
 3932W        W20116  18.017  11.585   0.297  0.1782 -0.0296 -0.1106
 3933W        W20117  12.234   8.409   9.433  0.2023  0.1852  0.1893
 3934W        W20118   4.270   6.222   1.666  0.2763 -0.0227  0.0724
 3935W        W20119   8.291  15.535   1.516  0.0495 -0.2286 -0.1853
 3936W        W20120  15.678  10.644  13.581 -0.1290 -0.1893  0.1177
 3937W        W20121   6.297   3.533  11.583  0.1535 -0.1454 -0.1157
 3938W        W20122   9.430   8.739   1.879  0.2453  0.1113  0.1397
 3939W        W20123   5.699   8.572  12.261 -0.1296  0.0669  0.1011
 3940W        W20124   1.658  18.496   0.704  0.0425 -0.1132  0.0580
 3941W        W20125  12.790  18.499  12.337  0.1720 -0.0331  0.0432
 3942W        W20126   5.585   2.514   2.731 -0.1286 -0.3231  0.2881
 3943W        W20127  12.239   3.721   9.823 -0.0510  0.0121  0.0934
 3944W        W20128  16.555   6.774  10.723  0.3085 -0.0426 -0.0834
 3945W        W20129   4.188   5.427  13.888  0.1776 -0.2452 -0.0318
 3946W        W20130  16.631  12.703   1.906 -0.0101 -0.1926 -0.0004
 3947W        W20131   8.722   2.623   5.021 -0.3742  0.1096 -0.3109
 3948W        W20132   2.491   8.282  10.753 -0.1289 -0.0903 -0.3209
 3949W        W20133  11.762   1.694   0.841 -0.0923 -0.2740 -0.0515
 3950W        W20134  14.159  13.475  12.869 -0.0309  0.4508  0.1699
 3951W        W20135   5.717   6.742   1.984 -0.1096 -0.0147 -0.1213
 3952W        W20136   9.547  11.305   2.050  0.2726 -0.0315 -0.0149
 3953W        W20137   9.612   3.681   0.202 -0.2432  0.2254  0.0482
 3954W        W20138   0.622   3.266  12.830  0.3139 -0.0828  0.0463
 3955W        W20139   5.170   7.102   3.716 -0.2502  0.0139  0.3070
 3956W        W20140  13.820  10.771  10.096  0.3029 -0.3817 -0.2540
 3957W        W20141   6.512   6.653   1.917  0.0584  0.0056  0.3815
 3958W        W20142   5.537   3.372  10.573  0.0781 -0.0191  0.0185
 3959W        W20143  17.247  10.714   2.851  0.3041 -0.0437 -0.1494
 3960W        W20144   7.367  13.189  10.271  0.2880 -0.0126 -0.0634
 3961W        W20145   6.682  17.843  11.196  0.1309 -0.4087 -0.0191
 3962W        W20146   1.710   0.408   2.491 -0.2124 -0.1816 -0.0624
 3963W        W20147   2.650   4.401  11.398 -0.0291  0.0719 -0.0636
 3964W        W20148   6.478   8.188   2.527  0.2959  0.0293  0.0455
 3965W        W20149   6.351  12.564   2.624  0.1346  0.2462 -0.1182
 3966W        W20150   5.337   3.847  11.141 -0.0966 -0.1465  0.2754
 3967W        W20151   8.278  18.801   1.964  0.0506  0.2291  0.0998
 3968W        W20152  13.268  19.372   2.631 -0.2438  0.3287 -0.2219
 3969W        W20153   8.856   0.055   4.944  0.1428 -0.1284  0.2795
 3970W        W20154  10.063  11.402  10.705  0.3326  0.2933  0.0189
 3971W        W20155   4.881  14.178  13.968 -0.0668 -0.4023  0.0633
 3972W        W20156   4.376  11.557  11.529 -0.1593 -0.0923 -0.1036
 3973W        W20157  15.706   4.618  13.089 -0.1721  0.0283 -0.0249
 3974W        W20158   9.476   8.022  11.894 -0.5016  0.5599 -0.0062
 3975W        W20159  11.764   5.113   1.551  0.3334  0.0915 -0.0050
 3976W        W20160  15.049   3.148   0.013 -0.0807  0.1559  0.1517
 3977W        W20161  11.127  19.308  10.515  0.1027  0.3461 -0.1157
 3978W        W20162   9.642   1.244   4.103  0.1290  0.0808  0.1402
 3979W        W20163   6.768   7.539   1.993 -0.1364 -0.4103 -0.2746
 3980W        W20164  15.160   7.524   1.481 -0.1401  0.0895 -0.1769
 3981W        W20165  10.266  18.639  13.690  0.1285 -0.0469  0.1333
 3982W        W20166  13.764   6.860  12.594 -0.1048 -0.0993  0.2377
 3983W        W20167   0.275   0.120   5.204  0.1774  0.1362  0.1233
 3984W        W20168   0.917  12.824  14.274 -0.0281  0.2318  0.1274
 3985W        W20169  19.241  18.322   3.936 -0.3067 -0.1236 -0.0216
 3986W        W20170   9.861  14.186   1.883 -0.2785  0.0114 -0.0654
 3987W        W20171  14.969   5.438   5.223  0.2291 -0.2916  0.0515
 3988W        W20172  15.093  19.059  13.690 -0.2955  0.1326  0.2353
 3989W        W20173   3.408   5.976  13.428 -0.2228  0.2409 -0.0443
 3990W        W20174  16.496  17.252  12.167 -0.3693  0.1897 -0.0161
 3991W        W20175  19.043   6.556   2.827  0.2648  0.2150  0.2569
 3992W        W20176   8.609   1.235   4.674 -0.4303 -0.0735  0.2060
 3993W        W20177   1.530   8.237  14.867  0.0214 -0.0392 -0.3401
 3994W        W20178  18.555  12.152  12.677 -0.1002  0.1561  0.0128
 3995W        W20179   0.693   2.422   5.291  0.0117  0.0474  0.1718
 3996W        W20180  13.607   3.272  11.428 -0.2384 -0.5410  0.4149
 3997W        W20181   9.671   6.082  10.873  0.2807  0.1799  0.1754
 3998W        W20182  10.964   2.961   2.191  0.0024  0.1973  0.0097
 3999W        W20183  16.226   2.173   0.375 -0.1678 -0.3817  0.1403
 4000W        W20184   3.348   4.545   4.885  0.0239  0.0572 -0.0888
 4001W        W20185  12.645  13.308  11.969 -0.2331 -0.0137  0.2220
 4002W        W20186   9.093   4.080  14.131  0.2116 -0.1837 -0.0087
 4003W        W20187  18.534   8.375   2.020 -0.0069 -0.1659  0.2103
 4004W        W20188  13.731   5.686  11.348  0.2349 -0.1499 -0.0421
 4005W        W20189  16.774  11.002  10.928  0.1101 -0.2392  0.3611
 4006W        W20190  14.322   1.239   0.757 -0.1358  0.1676  0.3599
 4007W        W20191   5.959   9.123   1.806 -0.0498  0.1437 -0.2591
 4008W        W20192   7.313  13.300   2.750 -0.0364 -0.0322 -0.3880
 4009W        W20193   8.260   1.908  12.803 -0.3217  0.2366 -0.2113
 4010W        W20194  13.779  16.917  10.900  0.0156 -0.0642 -0.2502
 4011W        W20195  17.905  14.694  14.705  0.1404 -0.0865  0.1017
 4012W        W20196  15.822   5.970  14.964 -0.4892  0.0712 -0.1063
 4013W        W20197  11.938  13.092   2.358  0.0435  0.1261  0.0505
 4014W        W20198  17.851  10.100   3.580  0.3382  0.0895 -0.0331
 4015W        W20199   3.534  11.052  11.773  0.4054  0.0479  0.1485
 4016W        W20200   9.533   9.670   5.500 -0.0833 -0.2501  0.0287
 4017W        W20201  16.957  16.667  10.811 -0.1265 -0.0263 -0.0173
 4018W        W20202  13.375  11.237  12.417  0.1380  0.1479  0.0437
 4019W        W20203   6.929  10.048   2.232  0.1115 -0.0791  0.0579
 4020W        W20204  16.220  19.314   5.239  0.1865  0.0980 -0.0985
 4021W        W20205   0.288   7.042  13.338 -0.1701 -0.3127 -0.0583
 4022W        W20206  16.767   3.551   0.975 -0.0265  0.2417 -0.3541
 4023W        W20207   4.888   5.683   2.566  0.4280  0.0788 -0.0182
 4024W        W20208  17.836  12.341   1.653 -0.2349 -0.0557  0.2804
 4025W        W20209  12.927   3.662   0.297 -0.1221  0.0697 -0.1481
 4026W        W20210   3.342  12.858   0.272  0.0319  0.2464 -0.1873
 4027W        W20211   9.542   0.203  12.347 -0.0426  0.1476 -0.1869
 4028W        W20212  10.739   7.405   9.268  0.2660 -0.2342 -0.3504
 4029W        W20213  14.533   5.501  10.013 -0.2256  0.0352  0.3733
 4030W        W20214   5.997  13.620  12.281  0.1893  0.3948  0.0356
 4031W        W20215   0.993  12.458   1.919 -0.0846  0.2312 -0.0980
 4032W        W20216   0.839   3.754  14.476 -0.1384 -0.2531  0.0466
 4033W        W20217  17.514   6.998   4.163  0.1579  0.2004 -0.1315
 4034W        W20218  14.246   1.582   0.393  0.2358 -0.0976  0.0537
 4035W        W20219   7.869   6.517   2.653 -0.1663  0.0530 -0.0163
 4036W        W20220   3.365  12.725  11.372  0.0193 -0.2516 -0.2579
 4037W        W20221  12.320   3.996  13.016  0.1427  0.0680  0.0037
 4038W        W20222   9.077  11.317   1.149 -0.3390 -0.0068 -0.0626
 4039W        W20223   5.130   0.817   2.379  0.1986  0.0118  0.1829
 4040W        W20224  19.172   6.113  14.473  0.1604 -0.0780  0.1062
 4041W        W20225  15.509   1.286  14.829  0.0677  0.1073 -0.0531
 4042W        W20226   6.982  14.092  13.114  0.0319 -0.1687  0.1885
 4043W        W20227  17.813  16.813  12.357 -0.2541 -0.0029  0.1824
 4044W        W20228  14.459   1.044   1.592  0.0508  0.0929 -0.1683
 4045W        W20229   5.433  15.253  11.270 -0.0068  0.1445 -0.2803
 4046W        W20230  16.573   0.137  12.803  0.0957  0.1865  0.1797
 4047W        W20231   3.382   6.468   0.724 -0.1684 -0.1575  0.4656
 4048W        W20232   8.782   1.788   5.247  0.1724  0.0197 -0.0741
 4049W        W20233  16.445  13.137   4.020 -0.2153 -0.0199 -0.2804
 4050W        W20234   7.385  11.465  14.676 -0.0503 -0.1553  0.2790
 4051W        W20235   1.801   1.888  10.663  0.0115 -0.1937  0.1578
 4052W        W20236   8.036  13.027  14.471 -0.1113  0.4066 -0.1253
 4053W        W20237   8.429   1.707   4.888 -0.0610  0.0743 -0.0782
 4054W        W20238   0.852   4.559  14.051 -0.1588 -0.3561  0.0525
 4055W        W20239  15.566   5.769   0.977 -0.0047  0.0239  0.0272
 4056W        W20240  11.127  12.948   2.960 -0.6101  0.3381  0.0570
 4057W        W20241   3.457   5.781   2.092  0.1142  0.2482 -0.3570
 4058W        W20242  11.656  13.578   1.215 -0.2909  0.0515 -0.1783
 4059W        W20243  12.646   1.142  14.594  0.0638  0.0674  0.1431
 4060W        W20244  10.124  13.924   3.242  0.1489  0.0497  0.3110
 4061W        W20245  14.737   3.305   2.211  0.2081  0.1222  0.3841
 4062W        W20246   0.975  12.007   3.907 -0.1978 -0.0163 -0.1226
 4063W        W20247   1.786   7.232   3.224  0.2004  0.2190 -0.4718
 4064W        W20248  10.051   9.203  10.481 -0.1302  0.1584  0.4703
 4065W        W20249   9.010  12.107   9.742  0.1794 -0.0543 -0.1356
 4066W        W20250  14.832  10.186   4.446  0.2004 -0.0778  0.3540
 4067W        W20251  12.299  16.127   1.233  0.1991  0.1957 -0.0353
 4068W        W20252  19.243   6.554   1.393 -0.2581 -0.1522  0.1006
 4069W        W20253  18.234   2.730   0.008  0.0882  0.0434  0.0880
 4070W        W20254  19.181  12.455  11.955  0.3819 -0.1794  0.0550
 4071W        W20255   8.631  18.427  14.896  0.1959  0.2975  0.2772
 4072W        W20256   9.965   5.611   2.364 -0.1849 -0.0478 -0.0489
 4073W        W20257   2.642   8.541   0.850  0.2475  0.2998 -0.2124
 4074W        W20258  12.986   7.214   2.788  0.3944  0.2178  0.0530
 4075W        W20259  11.955   8.330   3.535 -0.0059  0.1820  0.2918
 4076W        W20260   8.048  12.108   1.521  0.0365 -0.3708  0.0017
 4077W        W20261   7.971   5.719   0.584  0.1342 -0.0777  0.2719
 4078W        W20262  14.755   1.126  13.656  0.0515 -0.1799 -0.0635
 4079W        W20263   9.251   9.681  12.718 -0.3069 -0.4086 -0.1580
 4080W        W20264  13.585   9.298   3.482 -0.1607 -0.1634  0.1065
 4081W        W20265  15.510  10.087   9.989 -0.1458 -0.0021 -0.0228
 4082W        W20266   0.317  18.975   1.934 -0.1503  0.0752  0.0002
 4083W        W20267   1.894   8.332   3.046 -0.3353 -0.1613 -0.2290
 4084W        W20268  10.078   0.372  13.862 -0.0308 -0.0119 -0.1275
 4085W        W20269   2.905  10.586  14.413  0.1385 -0.0300 -0.2292
 4086W        W20270   8.492   5.950   3.797 -0.0981  0.2027 -0.0996
 4087W        W20271  11.584   9.930   0.968 -0.0971 -0.1659  0.0321
 4088W        W20272   4.752   0.886   3.901 -0.0769 -0.0651  0.1908
 4089W        W20273   2.178  14.215  11.192  0.2955 -0.1028 -0.1672
 4090W        W20274  12.995  13.466   1.051 -0.2354  0.3296  0.3764
 4091W        W20275   9.117   0.530   2.330 -0.1181  0.2003 -0.0408
 4092W        W20276  14.931   9.677  12.713  0.0403  0.1255  0.0974
 4093W        W20277   3.245  11.473   1.874 -0.2151  0.1979 -0.0463
 4094W        W20278   7.990   0.231  14.714  0.2703  0.2672  0.3640
 4095W        W20279   7.228   8.013   3.596  0.1243  0.2182  0.0541
 4096W        W20280   1.625   1.742   1.088 -0.0834  0.1819  0.5682
 4097W        W20281  11.696  17.826  12.553  0.0307 -0.3239  0.0383
 4098W        W20282  17.264   4.051  12.640 -0.0049  0.0272  0.1441
 4099W        W20283   6.850  10.545   2.311  0.1481  0.0306 -0.0599
 4100W        W20284   9.970   4.078   1.014 -0.0248  0.1625  0.0340
 4101W        W20285  15.360  10.967  14.837 -0.1451 -0.0008 -0.0862
 4102W        W20286   8.500  14.317  10.678 -0.1021  0.4642  0.2384
 4103W        W20287   2.929   1.743  13.259  0.0563  0.0896 -0.0225
 4104W        W20288   1.210   1.797  10.884 -0.0529 -0.0452  0.0636
 4105W        W20289   6.339   9.968  12.865 -0.1615 -0.2241  0.0818
 4106W        W20290  19.219  12.956  12.230  0.2470  0.0004  0.0322
 4107W        W20291   9.142   0.916  14.878  0.1544  0.0763  0.0491
 4108W        W20292  17.432  15.914   4.284 -0.0998  0.0472  0.2697
 4109W        W20293  17.537  17.229   3.454  0.0171 -0.3454 -0.0374
 4110W        W20294  12.148   0.212  12.797 -0.0567  0.0336 -0.1243
 4111W        W20295   1.711   0.351   4.404  0.0266 -0.1918  0.1752
 4112W        W20296   1.651  17.994  10.961  0.1062 -0.2269 -0.2717
 4113W        W20297   2.452  16.902   0.199 -0.2721  0.2179  0.0585
 4114W        W20298   3.718   1.050   4.903  0.1182 -0.0278 -0.1881
 4115W        W20299  14.758  11.962   2.827 -0.1920 -0.1588 -0.0523
 4116W        W20300   5.927  11.479  13.449  0.2854 -0.0036 -0.2424
 4117W        W20301   4.547  18.639   2.243  0.3233  0.0251  0.1194
 4118W        W20302   8.507   0.954   5.758 -0.0741  0.0515  0.1492
 4119W        W20303   4.534  10.392  11.165  0.2257  0.0173  0.2445
 4120W        W20304   8.994   0.689  11.041  0.0992 -0.0464  0.2852
 4121W        W20305  18.861  15.541   3.824 -0.0325 -0.0452 -0.0190
 4122W        W20306  18.671  11.581  14.809  0.3677 -0.2554  0.2087
 4123W        W20307  10.147  15.663   2.715  0.0385 -0.3504  0.1480
 4124W        W20308   6.932   8.796   3.897  0.3798 -0.3758  0.0395
 4125W        W20309  12.649   9.609  10.859  0.1673  0.2591 -0.0307
 4126W        W20310   1.092  18.701   2.138 -0.0372  0.1444  0.2204
 4127W        W20311  16.199  11.761   4.988 -0.0618 -0.2007  0.2297
 4128W        W20312  13.489  15.489   3.296 -0.0825 -0.1760 -0.1771
 4129W        W20313  12.102   1.926   3.037  0.1888 -0.3026  0.1634
 4130W        W20314   7.428   2.558  11.155 -0.1307 -0.1999  0.2085
 4131W        W20315   8.708   2.904  14.748  0.4240 -0.1423  0.4511
 4132W        W20316   4.371  12.119  11.624 -0.0900 -0.2597 -0.0401
 4133W        W20317   0.473  17.566   2.988 -0.0708  0.2643 -0.1117
 4134W        W20318   0.623  12.413   3.622  0.0893 -0.0280 -0.1835
 4135W        W20319   1.754   9.380  13.712  0.0948 -0.0973  0.0946
 4136W        W20320   9.674   8.225   4.319  0.3580 -0.1047  0.1599
 4137W        W20321   3.345   4.496   4.375 -0.0570  0.1863 -0.2021
 4138W        W20322  12.539  14.068  14.696 -0.1180  0.3055  0.1124
 4139W        W20323  13.334   0.666  12.294 -0.1415  0.1854  0.0561
 4140W        W20324  16.309   4.366  13.949  0.1352 -0.2464  0.1365
 4141W        W20325   0.544  13.616  12.131 -0.0192 -0.1389  0.0510
 4142W        W20326  18.046   4.449  13.845 -0.0532 -0.0145  0.0693
 4143W        W20327   7.822  17.365  10.943  0.0389 -0.0927  0.0681
 4144W        W20328   0.838   6.666  14.919  0.1096 -0.2729 -0.1275
 4145W        W20329   6.267  15.325   0.401  0.0827 -0.0314 -0.0751
 4146W        W20330  11.811   0.999  14.025  0.1990 -0.3653  0.0118
 4147W        W20331  19.225   5.140   0.080  0.0047  0.0409  0.3246
 4148W        W20332  13.427   6.989   3.917  0.2109  0.1413  0.0604
 4149W        W20333   2.237  10.697   0.381  0.1658 -0.1225  0.0093
 4150W        W20334   8.123   8.203   3.385 -0.2308  0.2055 -0.3428
 4151W        W20335   7.616  11.850   1.658  0.1058 -0.1250 -0.0768
 4152W        W20336   2.182  18.995   2.339  0.0880  0.1547  0.2180
 4153W        W20337  17.663  11.374  13.459  0.0366 -0.0365 -0.0130
 4154W        W20338  16.482   5.118  12.387  0.2101 -0.1860  0.0542
 4155W        W20339   7.866  11.544  12.943  0.1006 -0.0092  0.0043
 4156W        W20340  12.284  18.848   3.836  0.0870  0.1250 -0.0073
 4157W        W20341   0.034   7.593   4.173  0.1039 -0.0624  0.2291
 4158W        W20342   9.833  16.422   1.445 -0.2106 -0.3217  0.2519
 4159W        W20343  18.475   3.790   5.560  0.0565 -0.0637 -0.0114
 4160W        W20344   0.584  15.327  10.766 -0.0933 -0.1305  0.1165
 4161W        W20345   1.178  18.055   1.133  0.0636  0.0283 -0.0178
 4162W        W20346  12.107  18.743  11.226  0.0582  0.0562  0.3053
 4163W        W20347   1.476   0.374   3.203  0.0336 -0.1745 -0.0339
 4164W        W20348  16.134   3.712   4.399 -0.1844  0.0129 -0.3669
 4165W        W20349   8.666   5.136   0.530  0.0754  0.4174  0.0882
 4166W        W20350  14.359   3.541   1.895 -0.2222  0.1763 -0.0499
 4167W        W20351   1.915   5.953   3.441  0.2194  0.2609  0.0680
 4168W        W20352  10.062  11.324   3.731 -0.1675 -0.1501  0.2124
 4169W        W20353   4.951  10.836  13.841  0.0449  0.2115 -0.0327
 4170W        W20354   6.195   0.803   3.971  0.3241 -0.1351  0.0831
 4171W        W20355  13.783   4.579  11.239 -0.0483  0.0817  0.3131
 4172W        W20356  13.076   1.392   3.486 -0.1290 -0.1846  0.1655
 4173W        W20357  17.695  18.736   5.255  0.3712 -0.1509  0.1861
 4174W        W20358  12.456  18.026  14.542  0.0390 -0.1866  0.0055
 4175W        W20359  15.686   6.547  13.432  0.2946  0.1956  0.0059
 4176W        W20360   2.773  17.665   4.380  0.1541 -0.0113 -0.0102
 4177W        W20361   6.384  13.553   3.278  0.1037  0.1752  0.0993
 4178W        W20362   9.886   1.492   9.959 -0.0661 -0.0433  0.4386
 4179W        W20363   8.962   1.412   1.319 -0.2231  0.2973 -0.1141
 4180W        W20364  11.847   3.493  11.696  0.1630  0.0358  0.3286
 4181W        W20365   9.045  17.545   2.095 -0.1826  0.0852 -0.0004
 4182W        W20366   2.795   9.135   0.006 -0.0292 -0.1109  0.2788
 4183W        W20367   7.086  13.478   0.841  0.0969 -0.1648  0.1682
 4184W        W20368  15.528   0.206  12.678  0.2893  0.0245  0.0237
 4185W        W20369  19.250   0.898   6.000 -0.0206 -0.0930 -0.2281
 4186W        W20370   5.322   9.715  11.378  0.1946 -0.4992  0.1621
 4187W        W20371   3.373  18.635  11.290 -0.0760  0.1955 -0.1323
 4188W        W20372  16.800  12.504   3.051  0.0499  0.0898  0.0271
 4189W        W20373   2.712   5.595   3.736  0.0616  0.2340  0.3988
 4190W        W20374  13.103   6.227  12.080  0.1265 -0.0970  0.0294
 4191W        W20375   4.073  16.359   1.936 -0.0867 -0.0891  0.1472
 4192W        W20376  17.627  12.131  14.556 -0.2346 -0.1550 -0.1755
 4193W        W20377  10.336   8.392   0.619 -0.0381  0.1712  0.1146
 4194W        W20378  12.960  12.975   0.935 -0.1009  0.0816 -0.3016
 4195W        W20379  11.526  11.208   0.638 -0.1239 -0.2649  0.0655
 4196W        W20380   6.116   5.539  12.994 -0.5231 -0.1837 -0.0855
 4197W        W20381   2.144  14.340  12.193 -0.0827  0.2268 -0.0215
 4198W        W20382   7.969  11.614  13.782 -0.0588  0.1628 -0.1724
 4199W        W20383  13.179   4.160   2.609 -0.1879 -0.0360  0.0842
 4200W        W20384  16.307   4.023   5.115 -0.0145  0.0752 -0.1247
 4201W        W20385  13.557   7.225   2.204  0.1046  0.0336  0.0941
 4202W        W20386  12.396   3.673   0.331 -0.3717  0.0036  0.1136
 4203W        W20387  13.710   2.246   1.628  0.0148 -0.1835 -0.0008
 4204W        W20388   0.289  14.070  12.880  0.0393 -0.0996  0.3080
 4205W        W20389   1.103  18.512   3.069  0.0163  0.0001 -0.1467
 4206W        W20390  15.158  18.181  14.551  0.0425  0.0879  0.1428
 4207W        W20391   5.274  12.550   1.211 -0.0417 -0.2951  0.2794
 4208W        W20392  12.815  14.997   2.124 -0.2040  0.3027  0.3837
 4209W        W20393  10.081   4.883   3.457  0.1851 -0.0882 -0.0243
 4210W        W20394  14.577  17.685   0.500  0.0481 -0.4309  0.2430
 4211W        W20395   6.759   8.308   4.666  0.1122 -0.0259  0.0907
 4212W        W20396  12.475  14.227   3.217 -0.1423  0.2387 -0.0500
 4213W        W20397  12.880   5.276   3.438 -0.0428 -0.1253 -0.0080
 4214W        W20398   5.023   7.278  14.509  0.1698  0.2795  0.1175
 4215W        W20399   0.808   9.337   3.311  0.0720  0.0195 -0.0577
 4216W        W20400   3.578  12.126   1.708 -0.0323 -0.0687  0.3395
 4217W        W20401  10.486   7.996   3.655  0.1134  0.1521 -0.3050
 4218W        W20402   9.507   7.358  11.935  0.0461 -0.2625  0.0609
 4219W        W20403   8.250  15.877   1.909 -0.4393  0.0471 -0.0170
 4220W        W20404  14.106  16.831  14.651 -0.1142  0.0926 -0.2708
 4221W        W20405  17.050   0.167  12.949 -0.1431  0.2525 -0.0915
 4222W        W20406   8.553   7.552  14.465 -0.2880  0.1246  0.2461
 4223W        W20407   8.476  14.310  13.549 -0.3351 -0.0885 -0.0197
 4224W        W20408  15.495   0.722   2.255 -0.2109 -0.0289 -0.1809
 4225W        W20409   8.515   7.350   4.244 -0.2922  0.1538  0.3406
 4226W        W20410  16.144   9.834   2.856  0.3318  0.1697  0.1356
 4227W        W20411   8.515   0.798  14.545 -0.1278  0.2205  0.1370
 4228W        W20412  18.057   0.908   4.461  0.1830 -0.3800  0.0689
 4229W        W20413  17.125  16.085  12.830 -0.0401  0.3060 -0.0809
 4230W        W20414  13.211  11.303   3.068 -0.0289  0.0444 -0.1328
 4231W        W20415  17.407  10.695   4.744 -0.0892  0.0713  0.0635
 4232W        W20416  17.332   9.834   3.418 -0.0070 -0.2074  0.0871
 4233W        W20417   8.871   9.516   9.741 -0.0588  0.1505 -0.0644
 4234W        W20418  11.328  10.683   3.027  0.0412 -0.1250  0.0455
 4235W        W20419  18.724  12.413   2.751 -0.1213 -0.0177 -0.0218
 4236W        W20420   9.613  18.739  12.624  0.1138 -0.0783  0.1107
 4237W        W20421  19.351  14.246  14.923 -0.1121 -0.0488  0.1746
 4238W        W20422  10.141   3.306   5.567 -0.0689 -0.0485  0.1878
 4239W        W20423  11.132  12.631  14.874  0.1460  0.2084  0.0718
 4240W        W20424   4.208   0.453   0.835 -0.0448 -0.1449  0.0831
 4241W        W20425   6.711  15.944  13.244 -0.1991 -0.0450  0.2620
 4242W        W20426   3.464   1.368  11.372  0.1753 -0.2228 -0.0408
 4243W        W20427  11.525  10.222  11.659 -0.1001 -0.1994 -0.3871
 4244W        W20428  10.999  14.931  11.340 -0.0925 -0.1149  0.3514
 4245W        W20429   7.567   4.974  14.364  0.2803  0.1220  0.0022
 4246W        W20430   2.332  14.597   5.104  0.2775  0.0669 -0.2125
 4247W        W20431  15.204   4.022   4.793  0.1711  0.0077 -0.1756
 4248W        W20432   7.984   7.303   3.822 -0.0825 -0.1192 -0.2452
 4249W        W20433  15.009   2.795   1.383  0.2599 -0.0373  0.2022
 4250W        W20434   0.618  11.947   1.170  0.3214 -0.1196  0.1524
 4251W        W20435   5.257   4.183   3.808  0.3589 -0.1988  0.0917
 4252W        W20436   8.401  16.345   1.892  0.0991  0.0849 -0.0099
 4253W        W20437   6.617   2.058  13.623  0.0184 -0.0309  0.1390
 4254W        W20438  16.635  14.354  13.854 -0.2110  0.2043  0.0398
 4255W        W20439   3.342   1.438   5.101  0.1067  0.0360  0.0012
 4256W        W20440   0.527  18.422  14.972 -0.1084 -0.6580  0.0905
 4257W        W20441  18.631  18.815  12.976 -0.1471  0.1424  0.3064
 4258W        W20442  14.142  18.678  12.167 -0.0626 -0.0473 -0.0291
 4259W        W20443  12.593  13.535  12.422 -0.0032 -0.0043  0.2199
 4260W        W20444  15.722   6.346   2.235 -0.1969 -0.1180  0.1118
 4261W        W20445  11.547   1.450  14.262  0.1086  0.0282  0.0813
 4262W        W20446  15.529   5.017  10.939 -0.0219 -0.2232  0.0816
 4263W        W20447  18.086  16.456  14.283 -0.2906  0.1809  0.2662
 4264W        W20448   3.246  17.349  14.221 -0.0451  0.1387  0.0915
 4265W        W20449  18.929  15.239  13.137  0.1222 -0.0994  0.0106
 4266W        W20450  11.169   1.889   3.061 -0.1974 -0.0054  0.0653
 4267W        W20451   8.744   1.185  12.962  0.1270  0.1806  0.3782
 4268W        W20452  14.172   2.175  11.242  0.0884 -0.1684  0.2733
 4269W        W20453   6.384   5.384   3.244 -0.0552  0.0455 -0.2749
 4270W        W20454  10.600  12.880  10.610 -0.1037 -0.2207  0.1370
 4271W        W20455   7.530   5.776  13.313  0.0863  0.3831  0.0364
 4272W        W20456  13.538  13.752  14.769  0.3136  0.5441 -0.2635
 4273W        W20457  11.932  15.680  14.506  0.0174 -0.0327 -0.2412
 4274W        W20458   9.656   1.844  12.115  0.2067 -0.2634 -0.0111
 4275W        W20459   2.691  17.073   4.133 -0.0373  0.6637 -0.0384
 4276W        W20460   9.318  19.275  14.100 -0.0133 -0.1420  0.0170
 4277W        W20461  15.771  15.438  14.212 -0.0500 -0.5197 -0.2523
 4278W        W20462  11.805   1.978  12.555  0.1213  0.0507 -0.1478
 4279W        W20463   2.474  16.266  11.016  0.1491  0.3280 -0.0252
 4280W        W20464   2.059   7.337   3.639  0.1819  0.0079 -0.2194
 4281W        W20465   7.197  15.058   2.275  0.0226 -0.1774  0.0063
 4282W        W20466   7.086   3.820  10.332 -0.4557  0.1064  0.1904
 4283W        W20467   5.751  17.884   2.506 -0.2255  0.0388  0.0244
 4284W        W20468  10.721   8.636   2.552 -0.2091  0.3560 -0.0378
 4285W        W20469  14.790   9.552  11.632 -0.1703 -0.2601 -0.1895
 4286W        W20470   5.634  17.599   1.427 -0.3638 -0.2555  0.1462
 4287W        W20471  15.388  16.300   5.263 -0.1011 -0.2674  0.2653
 4288W        W20472  13.168   1.613  13.699 -0.1410  0.1287 -0.0521
 4289W        W20473   5.035  12.622   0.360 -0.3626  0.1218 -0.0491
 4290W        W20474   0.073  14.492  10.951 -0.1820  0.0868 -0.4270
 4291W        W20475   5.270  18.901   5.635  0.1331  0.2109 -0.0835
 4292W        W20476  17.164  12.430   4.042 -0.1180 -0.1286  0.0971
 4293W        W20477   2.702   0.350   2.538 -0.1546  0.2567 -0.1132
 4294W        W20478  18.395  12.865   4.140  0.0017 -0.2669 -0.4004
 4295W        W20479   1.518  13.321  14.499 -0.3192  0.3487 -0.1112
 4296W        W20480   1.155  10.680  12.117 -0.1092 -0.3598  0.1963
 4297W        W20481   4.770   2.905   3.565  0.0780 -0.4150 -0.1268
 4298W        W20482   8.560  17.648  11.310  0.0929  0.2778 -0.1729
 4299W        W20483  18.047   5.525  13.193 -0.2624  0.6292  0.0624
 4300W        W20484   5.312  13.596  14.981 -0.1936 -0.0251 -0.3069
 4301W        W20485   9.182  12.768   4.460 -0.1521 -0.0166 -0.2295
 4302W        W20486   0.466  18.671  13.857 -0.0133  0.1986  0.0352
 4303W        W20487  12.458   8.551   5.036 -0.2946 -0.1337 -0.2913
 4304W        W20488  18.981  10.826  11.055  0.1938 -0.3410  0.0579
 4305W        W20489  14.599   9.883  11.261  0.0608 -0.2867 -0.3692
 4306W        W20490  15.438   9.439  12.903 -0.1167  0.0920 -0.2997
 4307W        W20491  11.849  12.632  12.772 -0.3295  0.1256  0.1459
 4308W        W20492   8.338  16.228   4.682 -0.0704 -0.0638 -0.1351
 4309W        W20493  17.038  12.709  11.206  0.1074  0.3926 -0.2225
 4310W        W20494   5.786   1.367  12.051  0.2652 -0.1045  0.0782
 4311W        W20495   1.529   6.817   0.688 -0.0513 -0.0119 -0.2399
 4312W        W20496  13.088   5.493  12.219  0.3895  0.0813 -0.0317
 4313W        W20497   0.393   6.045   3.323  0.1404 -0.1687 -0.1894
 4314W        W20498   9.058   0.653   5.174  0.4402 -0.0499 -0.1306
 4315W        W20499  18.769  17.643   4.221  0.0373  0.1841 -0.3092
 4316W        W20500  16.313  13.654   6.116  0.0616 -0.0317 -0.2957
 4317W        W20501   1.533   1.610   4.935  0.2127 -0.1537 -0.0123
 4318W        W20502   6.907  13.096   2.567  0.2551 -0.0930 -0.2254
 4319W        W20503   0.742   2.661  14.360 -0.0657 -0.0896  0.3414
 4320W        W20504  18.462  12.389   3.981 -0.0618  0.0643 -0.2226
 4321W        W20505   7.775  16.154  13.913  0.1552 -0.1441 -0.1209
 4322W        W20506   1.529   3.692   1.848 -0.0048  0.1528  0.3663
 4323W        W20507   0.396   2.887   4.350  0.1900  0.1343  0.2540
 4324W        W20508  13.105   6.681  12.832  0.1717  0.3287  0.0273
 4325W        W20509  13.797  15.394   4.831  0.0650  0.2172 -0.0380
 4326W        W20510   2.849  18.149   0.199  0.2719 -0.2387  0.1511
 4327W        W20511  14.853  10.557   2.002  0.4038  0.3496 -0.0438
 4328W        W20512  12.583   0.208   4.211  0.2524  0.1810  0.2301
 4329W        W20513  17.625   2.614  10.332  0.1672  0.0337  0.0409
 4330W        W20514   9.263   9.072  14.110  0.1375 -0.0525  0.0084
 4331W        W20515  10.370   4.572  14.521  0.0272  0.1722 -0.0742
 4332W        W20516  11.747   1.804  11.263  0.1868  0.2007  0.2013
 4333W        W20517   3.984  17.822  13.397 -0.0823  0.0259  0.1517
 4334W        W20518   8.387   4.659  11.338 -0.0834 -0.5950 -0.0889
 4335W        W20519  17.222   2.589   0.220  0.2385 -0.0714 -0.1618
 4336W        W20520   3.627  10.764  10.912  0.1397  0.0198  0.0307
 4337W        W20521   1.667   4.005   9.886 -0.1905  0.1064 -0.3826
 4338W        W20522   0.225   5.562   4.747  0.0501 -0.2992  0.0255
 4339W        W20523   9.310   4.950  14.622 -0.0930  0.1609 -0.1415
 4340W        W20524   1.736  10.923   5.021 -0.3526 -0.1713 -0.2201
 4341W        W20525   3.765  13.759  10.385  0.0667 -0.0758  0.1056
 4342W        W20526   0.834   2.282  11.108  0.0592  0.0526 -0.0043
 4343W        W20527   6.552   5.160  14.899 -0.1437 -0.2342  0.0325
 4344W        W20528   0.862  11.630   4.353  0.2170  0.0520 -0.1922
 4345W        W20529   2.428   3.796  10.539 -0.2488  0.1179 -0.0309
 4346W        W20530   6.644   4.536  11.244  0.2607  0.2573  0.1390
 4347W        W20531  14.282  17.158   0.362  0.0192  0.1675 -0.0482
 4348W        W20532  13.400   5.532   2.631  0.0497  0.1035  0.1404
 4349W        W20533   4.237   9.347  11.263 -0.0928 -0.2375 -0.4169
 4350W        W20534   4.342  15.088   4.400 -0.0593 -0.0789  0.0323
 4351W        W20535  11.645  15.375  13.923 -0.3471 -0.0255 -0.2648
 4352W        W20536  14.701   4.724  13.978  0.1039  0.0398 -0.0981
 4353W        W20537   5.011   2.521  12.506 -0.2183 -0.1041 -0.0147
 4354W        W20538  15.080   3.550   2.480 -0.2200  0.0786  0.3602
 4355W        W20539  11.393   0.155   4.241 -0.0123 -0.1147  0.4389
 4356W        W20540   3.823  12.859  13.484  0.1411 -0.4777  0.2173
 4357W        W20541   3.394   0.928  11.571  0.0374 -0.1140  0.1794
 4358W        W20542   2.571  18.012   4.697 -0.3694 -0.0791  0.2005
 4359W        W20543  10.301   8.014   4.253  0.0592 -0.2344  0.2480
 4360W        W20544   0.268   2.505   4.042  0.2138  0.3894  0.3206
 4361W        W20545  14.310   7.849   5.073 -0.1952 -0.1707 -0.1409
 4362W        W20546  12.695   4.349  10.033 -0.2407 -0.1652 -0.0138
 4363W        W20547  12.383   1.102   0.350 -0.3069 -0.1798  0.1605
 4364W        W20548   8.091  17.034   4.518 -0.1523  0.1850  0.1444
 4365W        W20549  15.638   5.752   4.184  0.3232  0.0428 -0.0968
 4366W        W20550  18.317  13.851  10.820 -0.0506 -0.1902  0.0843
 4367W        W20551  13.279  17.456  14.212  0.0071 -0.0852 -0.0568
 4368W        W20552  19.152  16.912  12.263 -0.0001 -0.1988  0.2275
 4369W        W20553  10.016   3.351  14.314 -0.0594 -0.4480 -0.4823
 4370W        W20554  16.861  12.435  11.724 -0.1858  0.2666 -0.2414
 4371W        W20555   0.804   2.458   4.441 -0.0805  0.0993  0.0091
 4372W        W20556  18.824  17.991  12.397  0.0421  0.0941 -0.2473
 4373W        W20557   3.585  11.705  10.514 -0.0961 -0.2181  0.3000
 4374W        W20558   8.810   0.677   0.228  0.3538  0.0785  0.1112
 4375W        W20559   5.406   2.056  12.971 -0.1501 -0.1193  0.0062
 4376W        W20560   7.623  14.526  14.751  0.0173 -0.0710  0.1309
 4377W        W20561   2.585  12.047   4.811 -0.1565 -0.0777  0.0064
 4378W        W20562   2.820   4.521   2.915 -0.0468 -0.0843 -0.1079
 4379W        W20563   1.240  18.617   0.482 -0.1753  0.2555  0.2380
 4380W        W20564   4.346   9.092  14.277  0.1575  0.1964 -0.1757
 4381W        W20565  13.731   8.632  13.020 -0.1508  0.2187 -0.0505
 4382W        W20566  10.102   5.125  13.948 -0.3103 -0.2579  0.1077
 4383W        W20567   0.582   8.493   2.865 -0.1333  0.1662 -0.1473
 4384W        W20568  14.049  18.583   5.458 -0.0409  0.3151 -0.0460
 4385W        W20569  13.920   5.871  10.194  0.0127 -0.2016 -0.1332
 4386W        W20570  13.651  18.480   0.235 -0.0407 -0.2872 -0.0518
 4387W        W20571   4.165  11.817  14.522  0.0320  0.2801  0.0723
 4388W        W20572  17.568  18.774  11.299 -0.0730  0.1789  0.0483
 4389W        W20573  19.382  10.552  12.138  0.0088 -0.0863 -0.0374
 4390W        W20574   9.609   1.023   1.779  0.3831  0.0695 -0.2173
 4391W        W20575  16.292  15.194   5.245  0.0726 -0.1947  0.0412
 4392W        W20576   8.935  15.652  11.131 -0.2872  0.0397  0.1998
 4393W        W20577  16.330   5.397   3.930  0.3904  0.1816  0.1201
 4394W        W20578   3.137  17.184  13.806 -0.3442  0.3051 -0.2633
 4395W        W20579   1.651   9.529   1.451  0.3338  0.0710 -0.1162
 4396W        W20580  16.031  11.386   0.299  0.4248 -0.1323  0.0267
 4397W        W20581  17.208  11.970   4.404 -0.0528 -0.1891  0.0186
 4398W        W20582   8.463  13.107   2.871  0.0059 -0.1189  0.0326
 4399W        W20583  18.934   2.892   2.863 -0.2047 -0.1967 -0.0241
 4400W        W20584  15.486   0.573   3.057  0.0738  0.0897  0.0184
 4401W        W20585   8.849   5.215  10.219 -0.0155 -0.1639  0.2766
 4402W        W20586   8.030   8.547   3.055 -0.0224 -0.0059 -0.0013
 4403W        W20587   0.289   5.245  11.929 -0.0123 -0.1108 -0.0952
 4404W        W20588   8.107  14.516   0.980  0.0792  0.0097 -0.1295
 4405W        W20589  13.388   9.388   2.222  0.0514  0.0392 -0.0407
 4406W        W20590   6.488   5.144  13.215  0.0731 -0.1106  0.1381
 4407W        W20591   6.217   9.977   2.884 -0.0686 -0.0417  0.2012
 4408W        W20592   0.216  13.942  13.343 -0.0194 -0.0638 -0.2479
 4409W        W20593   7.226  13.864  12.709  0.5475 -0.1063  0.1547
 4410W        W20594   6.632  16.038   5.034  0.5374 -0.1183  0.2655
 4411W        W20595  15.360  10.451   0.174 -0.1042  0.2185  0.2783
 4412W        W20596  10.652   1.050   3.664  0.1114 -0.0444  0.0973
 4413W        W20597   8.899   1.082  12.433 -0.1566 -0.1389 -0.1022
 4414W        W20598   0.038   7.737   2.275  0.1376 -0.1584 -0.3100
 4415W        W20599  14.385   5.073  14.839  0.3145 -0.0786 -0.3428
 4416W        W20600   0.271   2.509   3.024  0.2857 -0.0785  0.0016
 4417W        W20601  15.348   6.727  13.774  0.0850 -0.1110 -0.3011
 4418W        W20602   9.499   3.497  14.729 -0.0460 -0.0008  0.3264
 4419W        W20603   0.521  13.465   4.168  0.4504  0.1193 -0.6296
 4420W        W20604  17.757  16.043   2.092  0.0591  0.0199  0.1815
 4421W        W20605  19.035  10.513   2.146  0.0897  0.1292  0.0718
 4422W        W20606  14.149   7.682  14.523 -0.1921  0.4006 -0.2064
 4423W        W20607   0.886  10.573   2.766 -0.2041  0.2713 -0.3646
 4424W        W20608  12.461  16.624  12.707  0.0477  0.0012 -0.1979
 4425W        W20609  15.676  12.324   5.086 -0.5343 -0.2397 -0.1537
 4426W        W20610  10.734  16.545   1.580 -0.1095  0.0921 -0.1495
 4427W        W20611   5.583   6.737   3.549 -0.1782 -0.0688  0.1029
 4428W        W20612   0.228  16.721   1.450 -0.1648 -0.0012 -0.1938
 4429W        W20613  13.791  10.678  13.608 -0.1754  0.0975 -0.0409
 4430W        W20614  15.435   5.485   5.410  0.0313  0.0216 -0.0937
 4431W        W20615  11.125   7.195   1.840  0.2600 -0.1189 -0.0301
 4432W        W20616   7.008  18.987  13.609 -0.1019  0.0058 -0.0828
 4433W        W20617  14.450  11.961  12.766  0.0531 -0.1835  0.3190
 4434W        W20618   8.528  17.623   5.620 -0.1193 -0.2226 -0.2123
 4435W        W20619   6.368   2.251  13.150 -0.3785  0.0398  0.3575
 4436W        W20620  10.883   6.656   3.188  0.0945 -0.0203  0.1745
 4437W        W20621  15.178   8.230   3.386  0.1657  0.0972  0.0524
 4438W        W20622  12.225  17.110   3.891 -0.0472  0.0348 -0.4986
 4439W        W20623  15.750  12.559  12.342  0.0548  0.0649  0.0138
 4440W        W20624   9.497  14.428   1.535 -0.1872 -0.1193 -0.0098
 4441W        W20625   4.208  14.073   4.006 -0.0432 -0.1456 -0.1773
 4442W        W20626   2.735   7.190  13.494  0.2746  0.0928  0.0414
 4443W        W20627   1.098   7.272  11.836 -0.1405  0.2456 -0.0256
 4444W        W20628   0.274   8.204  14.268  0.3184  0.1509 -0.3206
 4445W        W20629   2.333  13.465  12.104 -0.0088  0.3523 -0.2369
 4446W        W20630   4.749   7.117  10.380  0.0806 -0.3475 -0.2356
 4447W        W20631   6.131  15.176  14.447  0.0315 -0.3409 -0.2964
 4448W        W20632   9.485  18.122   1.972  0.2432  0.0337 -0.1083
 4449W        W20633  12.448   6.464   4.813 -0.2429  0.0409  0.0321
 4450W        W20634   1.702  13.335   2.568  0.0203 -0.1069 -0.0969
 4451W        W20635   4.602  12.035  14.707  0.1411 -0.2355  0.2756
 4452W        W20636   4.772  10.019   4.340 -0.1247 -0.4148 -0.3781
 4453W        W20637  13.044   9.216  13.304 -0.0572  0.1003  0.0025
 4454W        W20638   2.319   6.226   3.155  0.1677 -0.1144  0.1880
 4455W        W20639  13.572   5.402   2.116 -0.2522  0.0675  0.0915
 4456W        W20640   4.392   0.574  12.728  0.3501  0.0757 -0.2803
 4457W        W20641   3.705  16.946   2.535 -0.0103 -0.2017  0.3536
 4458W        W20642   3.474   6.793   3.621 -0.2042  0.0125  0.2554
 4459W        W20643  10.951   6.609  14.531 -0.1099 -0.1635 -0.0574
 4460W        W20644  12.864   0.528   3.256  0.0335  0.2517 -0.0796
 4461W        W20645   6.028   2.872  13.721 -0.0894 -0.0903  0.1627
 4462W        W20646  10.954   6.759   3.740  0.0956 -0.0940 -0.1825
 4463W        W20647   0.896  17.332   1.661  0.1097  0.0598  0.0444
 4464W        W20648  11.341  16.042   0.233  0.1348 -0.1390 -0.1240
 4465W        W20649  11.489   3.815  13.410 -0.0027 -0.0445  0.2839
 4466W        W20650  10.795   3.932   3.401 -0.0950 -0.0391 -0.1728
 4467W        W20651  11.100  12.670  11.714 -0.0468  0.1897 -0.0381
 4468W        W20652   9.046  18.089  14.913  0.0977 -0.1039  0.2576
 4469W        W20653   3.021   4.667   0.149  0.1240  0.1733  0.3317
 4470W        W20654  11.137  12.731   4.233  0.1028 -0.2589  0.1732
 4471W        W20655   9.609  15.236   3.698 -0.0851 -0.2338  0.0912
 4472W        W20656   2.897  15.172   0.877  0.4902 -0.0477 -0.0761
 4473W        W20657  15.109  15.026   4.581  0.1207  0.2278  0.0619
 4474W        W20658   1.878  19.098   1.492 -0.2160 -0.1979 -0.2492
 4475W        W20659   8.276   8.604  14.825 -0.1515 -0.0783 -0.1908
 4476W        W20660  14.859  18.177  11.354  0.4358  0.0038 -0.1453
 4477W        W20661   4.040   8.413  13.789  0.2434 -0.1081  0.0220
 4478W        W20662   6.307  11.952   4.069  0.0725 -0.2167  0.2131
 4479W        W20663   6.400   3.355  13.299 -0.4904  0.0454  0.3995
 4480W        W20664  13.514  11.305   0.591  0.0644 -0.0922 -0.4300
 4481W        W20665   1.340  17.335  11.762  0.0166  0.0204 -0.0286
 4482W        W20666  13.820  18.885  12.526  0.0893 -0.2463  0.0852
 4483W        W20667  13.437   3.432  12.243  0.0363 -0.0241  0.1907
 4484W        W20668  18.414   2.274  10.483 -0.0253 -0.1899  0.0558
 4485W        W20669   4.905  14.416  14.902  0.1482 -0.0618 -0.0436
 4486W        W20670   0.225  16.747  13.042 -0.0882 -0.0961 -0.1754
 4487W        W20671  17.120  10.837   3.329  0.2506  0.1746 -0.0134
 4488W        W20672  14.727  10.364   1.361 -0.0039 -0.0784  0.1011
 4489W        W20673  17.204   9.502  13.192  0.2552  0.1846  0.1946
 4490W        W20674  15.859   9.340  12.541  0.0614 -0.0076  0.1038
 4491W        W20675   9.536  15.197  11.887 -0.1363 -0.0394  0.2393
 4492W        W20676  10.273   0.120  13.003 -0.0670  0.2247  0.0564
 4493W        W20677  17.396   0.526  13.728 -0.0184  0.3359 -0.1709
 4494W        W20678  15.550   3.954   0.907  0.1116  0.4854 -0.1071
 4495W        W20679  14.437  18.771   1.715 -0.2764 -0.1709  0.1315
 4496W        W20680  10.191   4.825   0.472  0.1220 -0.3281  0.0761
 4497W        W20681   3.835   7.745   4.730  0.1843 -0.1139 -0.3131
 4498W        W20682   7.595  10.996   0.309  0.2808 -0.1382 -0.1343
 4499W        W20683   5.000  17.860  13.605  0.1048 -0.1429  0.0868
 4500W        W20684   1.473  16.685  13.489  0.0080 -0.3491 -0.0954
 4501W        W20685  12.396  18.274   0.075 -0.0654  0.2904  0.0838
 4502W        W20686   8.083   4.421  13.832 -0.0560 -0.0546 -0.3347
 4503W        W20687  14.305   0.164  14.761  0.0019 -0.1893 -0.0452
 4504W        W20688  16.638  13.575   0.600 -0.3028 -0.0150  0.4116
 4505W        W20689  15.238  13.070   4.833 -0.0642  0.2376  0.2200
 4506W        W20690  10.590  17.024   2.775 -0.1224 -0.0355 -0.0524
 4507W        W20691  10.467   0.859  11.714 -0.0382  0.1437 -0.0563
 4508W        W20692   0.851  18.930   4.347 -0.0157  0.2257 -0.1375
 4509W        W20693  10.568   4.637  12.457  0.0378  0.1029 -0.1317
 4510W        W20694   0.964   7.899   3.154 -0.1079  0.2041  0.2203
 4511W        W20695  16.997   9.899  11.769 -0.0669  0.0250 -0.3364
 4512W        W20696  16.866   9.987   3.456  0.2281 -0.0067 -0.2014
 4513W        W20697   1.772  14.440  11.289  0.1412 -0.1872  0.1572
 4514W        W20698   4.626  19.287   3.757 -0.4662 -0.1202 -0.0666
 4515W        W20699  17.063  18.328  10.043 -0.2799  0.0416 -0.0389
 4516W        W20700   8.500   5.082  14.838 -0.0919 -0.0061 -0.0211
 4517W        W20701   2.441  15.782  13.343  0.0090  0.0966 -0.0902
 4518W        W20702   8.419   2.023  14.593 -0.2206  0.1458 -0.1702
 4519W        W20703  16.916   9.637  13.763 -0.0938  0.2845 -0.1544
 4520W        W20704  12.456  16.560  13.207 -0.0094 -0.0097  0.2559
 4521W        W20705  18.923   5.868   2.075  0.0118  0.0397  0.1051
 4522W        W20706   4.848  14.887   1.383 -0.1878 -0.1000  0.2736
 4523W        W20707  12.835  15.559   5.141  0.2436  0.0595  0.2919
 4524W        W20708   7.014   5.292   2.021 -0.2121 -0.5911  0.0254
 4525W        W20709   6.550   7.152  11.824  0.0418 -0.1114 -0.1592
 4526W        W20710  12.782   0.324   1.316  0.1791  0.0548 -0.1403
 4527W        W20711  18.970  13.808  14.052  0.1117  0.1274  0.3815
 4528W        W20712   7.103  14.531  14.872 -0.1498 -0.0228 -0.2571
 4529W        W20713  15.057  15.550   5.486 -0.0717 -0.1534 -0.0937
 4530W        W20714   7.650   4.683  12.437  0.1717 -0.2499 -0.2103
 4531W        W20715   1.936   2.779   3.605 -0.0410 -0.1960 -0.0807
 4532W        W20716   0.168  14.083   2.088  0.0396  0.0279  0.4749
 4533W        W20717   6.445  11.393  10.910  0.0777 -0.0343  0.0303
 4534W        W20718  10.042  11.926   2.418 -0.2513 -0.3998 -0.0329
 4535W        W20719  11.887  17.728  10.080 -0.0740 -0.0178 -0.0010
 4536W        W20720   6.852   1.571   1.865 -0.0609 -0.1082  0.0679
 4537W        W20721  16.330  15.021  11.783  0.2097  0.3743 -0.0396
 4538W        W20722   9.539  10.397   4.778  0.1778 -0.1166  0.0112
 4539W        W20723   2.737  16.490  13.693 -0.2175 -0.0796  0.1146
 4540W        W20724  19.079  18.156   5.040  0.4703 -0.0022 -0.0063
 4541W        W20725  13.805  11.301   2.127  0.1028 -0.0124  0.1017
 4542W        W20726   9.169   1.022  11.999  0.2377 -0.1533  0.1987
 4543W        W20727  13.927  13.666   2.846 -0.0143  0.0744 -0.0519
 4544W        W20728   6.905   5.603   4.054  0.0723  0.0727  0.0741
 4545W        W20729  19.020  14.502  11.593 -0.0647 -0.1444  0.0487
 4546W        W20730   3.673  13.915   2.670 -0.1999 -0.1897  0.1911
 4547W        W20731  13.877   4.856   0.755 -0.0191  0.1795 -0.4550
 4548W        W20732  11.600  18.286  12.347 -0.0990  0.2233 -0.4052
 4549W        W20733  11.425  13.944  13.684  0.2220 -0.1250  0.1753
 4550W        W20734   7.568   8.726   0.927  0.2096  0.3030 -0.0319
 4551W        W20735  18.936   9.673   2.160 -0.0573 -0.2012 -0.2956
 4552W        W20736   0.313  16.763   4.160 -0.2522 -0.3698 -0.2881
 4553W        W20737   9.259  17.841   3.332 -0.1057  0.1812  0.1428
 4554W        W20738   2.236  10.631   1.034 -0.2598 -0.2272  0.0783
 4555W        W20739   3.299  18.304   2.839 -0.3098  0.3860 -0.1390
 4556W        W20740   4.761   8.561   0.408 -0.0438  0.3722  0.0213
 4557W        W20741  12.434   9.440  10.272 -0.0127  0.2067  0.1187
 4558W        W20742   4.560   2.387   2.591 -0.3138  0.1054  0.1679
 4559W        W20743   8.060   7.218  13.281 -0.0774 -0.5603  0.3305
 4560W        W20744  15.454  12.354  10.279 -0.0864 -0.0395 -0.2279
 4561W        W20745   5.756   2.153   0.015  0.2341 -0.2505  0.0424
 4562W        W20746  12.968   9.460   1.888  0.3013  0.2277 -0.0964
 4563W        W20747   6.412  17.147   2.041  0.2719  0.1928  0.2690
 4564W        W20748  11.521  15.660  14.926 -0.1652 -0.1221 -0.3255
 4565W        W20749  18.321   4.243  12.712 -0.3857  0.0315  0.0308
 4566W        W20750  14.265   9.959  10.099  0.0438  0.1342 -0.3137
 4567W        W20751   5.189  12.363   9.409 -0.1800  0.0424 -0.1588
 4568W        W20752   5.075  15.649  11.365  0.1113  0.0159  0.3032
 4569W        W20753  15.784   8.746   2.282  0.2276 -0.2315  0.3161
 4570W        W20754  11.705   2.985  10.036 -0.1786  0.0243  0.0907
 4571W        W20755  17.280   9.677   4.392 -0.0316 -0.2232  0.1388
 4572W        W20756  18.940   2.679   3.474 -0.1212  0.1673 -0.1217
 4573W        W20757   0.045   5.851  12.733  0.0805  0.1339 -0.0402
 4574W        W20758   3.990   9.747  11.485 -0.0431 -0.2247 -0.2726
 4575W        W20759   9.102   4.419  12.623  0.1634 -0.0854 -0.1184
 4576W        W20760   8.787  15.642   4.078  0.1345  0.0446 -0.0672
 4577W        W20761  13.327   1.570  12.284  0.3730  0.0556 -0.0792
 4578W        W20762   8.348  13.469  11.633 -0.0648  0.0552  0.0945
 4579W        W20763  13.858  16.426   5.736  0.3329 -0.6491 -0.2599
 4580W        W20764  16.582   4.362   0.012 -0.0221 -0.1701 -0.0577
 4581W        W20765   3.259  15.778  11.942 -0.0038 -0.1479 -0.2143
 4582W        W20766  19.205  17.362   9.779  0.0528  0.0562 -0.0058
 4583W        W20767  11.551   6.363  12.806  0.1212  0.1850  0.3329
 4584W        W20768   0.551  11.007  12.753  0.2388  0.1474 -0.0387
 4585W        W20769  13.463  15.043   0.092 -0.1101 -0.1307 -0.1800
 4586W        W20770  10.420   4.696   3.963  0.2143  0.0279  0.0231
 4587W        W20771   7.769   2.825  10.113 -0.0081  0.3416 -0.0989
 4588W        W20772  16.803   5.269   4.002 -0.2652 -0.1258 -0.0897
 4589W        W20773   9.231   5.554  13.623  0.1646 -0.0664  0.0109
 4590W        W20774   3.650  15.251  14.515  0.0539  0.3738  0.1195
 4591W        W20775  16.009   9.943  14.238 -0.0667 -0.0202 -0.0695
 4592W        W20776   6.783   0.799   1.767 -0.0474 -0.0882  0.3506
 4593W        W20777   7.471   0.739  11.936  0.1690 -0.2291 -0.1579
 4594W        W20778  13.677   8.108   0.768  0.1841 -0.1294  0.1470
 4595W        W20779  19.291  17.905  12.295 -0.0681 -0.0103 -0.1765
 4596W        W20780  12.448  17.074   1.754  0.0087  0.0932 -0.1953
 4597W        W20781  14.647  13.771   2.999  0.1312  0.0354  0.2208
 4598W        W20782   5.579   6.308  11.042  0.1357 -0.2815  0.3234
 4599W        W20783   7.156   5.190   4.276 -0.0711 -0.1387 -0.1734
 4600W        W20784  14.470  13.390   2.635  0.2578 -0.0736 -0.0081
 4601W        W20785   1.433   6.131  13.059 -0.5351  0.0616  0.1006
 4602W        W20786   9.053  16.210   0.680  0.1395 -0.0253 -0.2501
 4603W        W20787   3.978   8.155   2.572 -0.1975  0.0034 -0.0745
 4604W        W20788   6.089  10.794  10.794 -0.1663 -0.0859  0.0069
 4605W        W20789   3.511   0.861  14.515 -0.0118 -0.0592  0.0308
 4606W        W20790  11.425  13.144   3.313  0.2024 -0.2678 -0.0919
 4607W        W20791   1.380   4.856  10.835 -0.1686 -0.2127 -0.1173
 4608W        W20792  13.806   9.700   4.292 -0.2200  0.1131 -0.0654
 4609W        W20793  13.854  13.798   0.644  0.1868 -0.0502 -0.2742
 4610W        W20794   0.144  15.794   2.393  0.2720 -0.2081  0.3796
 4611W        W20795   3.904   9.673   4.303 -0.1097  0.1759 -0.1079
 4612W        W20796  18.749  19.055  10.574 -0.1437  0.4491 -0.2988
 4613W        W20797   2.205  13.512   2.601 -0.3399 -0.2667 -0.0452
 4614W        W20798  10.147  13.104   0.672  0.3508 -0.0761  0.0798
 4615W        W20799  15.002  16.525  12.480 -0.4350  0.0744 -0.3345
 4616W        W20800  17.339   4.619  11.904  0.1712 -0.2789 -0.2599
 4617W        W20801  11.246   9.778  11.742 -0.2499  0.4297 -0.0444
 4618W        W20802  16.237  14.738   5.010  0.2944  0.0009  0.1301
 4619W        W20803   3.802  14.199  13.119 -0.2348 -0.3816 -0.0267
 4620W        W20804  12.086   3.028  14.757  0.1964  0.0011  0.0614
 4621W        W20805  11.297   7.858  12.794  0.0238  0.0798  0.2475
 4622W        W20806  11.287   6.530   1.533  0.6207 -0.0111  0.1303
 4623W        W20807   5.090   5.254   2.597 -0.0081 -0.0700  0.2012
 4624W        W20808  11.337   4.070  11.056  0.0716  0.0806 -0.0640
 4625W        W20809  11.058  16.136  11.184 -0.2301 -0.1188 -0.1455
 4626W        W20810   5.513   0.388   4.030 -0.1411  0.3864  0.1475
 4627W        W20811   0.875   9.752   3.070  0.0509 -0.1439  0.3640
 4628W        W20812   8.118  17.318   0.747  0.0292  0.3143  0.1746
 4629W        W20813  19.375  10.137   0.423  0.0202 -0.2335 -0.1696
 4630W        W20814   6.022   2.448  13.378  0.0644  0.0697  0.1694
 4631W        W20815   0.422  16.290   3.962 -0.1707  0.0912  0.3049
 4632W        W20816   0.893  18.785   4.869 -0.1471 -0.1169 -0.0892
 4633W        W20817   2.425   5.128   3.851  0.1098 -0.1843  0.1362
 4634W        W20818  16.173   0.778   0.019  0.3659 -0.0645  0.0335
 4635W        W20819   7.897   4.095  12.469 -0.1523 -0.0576 -0.0353
 4636W        W20820  12.960   6.044  10.649 -0.2287  0.1534  0.2323
 4637W        W20821   8.819   2.371  11.358 -0.1451 -0.1642  0.1311
 4638W        W20822  12.492  16.024   0.414  0.2091  0.2136  0.0887
 4639W        W20823   2.862   2.868   3.816 -0.0163  0.2171  0.0909
 4640W        W20824   0.916   0.609  11.724  0.1188  0.0349  0.2331
 4641W        W20825  17.578   2.486   2.362  0.1107 -0.0730  0.1104
 4642W        W20826   4.544   5.498  10.432 -0.0514  0.1942  0.2104
 4643W        W20827   7.275   3.496   4.521  0.2837  0.2526 -0.2202
 4644W        W20828   1.141  11.828   1.641  0.0684 -0.0100  0.0935
 4645W        W20829   6.305  15.390   3.926 -0.1214 -0.1877  0.0240
 4646W        W20830  18.327   5.024  12.427 -0.0331  0.0957 -0.3534
 4647W        W20831  12.797  17.366   0.198 -0.2719  0.0166  0.1956
 4648W        W20832  17.236  12.558   1.906  0.0945 -0.0471  0.0677
 4649W        W20833   4.788  10.313  14.105 -0.1116  0.0001  0.3914
 4650W        W20834  18.268   0.821   3.622  0.1534 -0.1644  0.0318
 4651W        W20835  19.253   9.352   3.546  0.1750 -0.1725  0.2421
 4652W        W20836   3.582   6.454   1.185  0.0256  0.0101 -0.2768
 4653W        W20837  18.376   5.052   0.457 -0.0946 -0.1694 -0.1387
 4654W        W20838   8.310  13.308   0.894  0.2977  0.1504 -0.0760
 4655W        W20839  18.032   9.047  10.687 -0.2763 -0.0622 -0.1226
 4656W        W20840   9.515  10.642   5.273  0.1659 -0.2590  0.1885
 4657W        W20841  11.727  12.347   1.322  0.2094  0.3875  0.1943
 4658W        W20842  18.089  14.864   4.695  0.2542  0.2547  0.4339
 4659W        W20843  13.956  17.798  14.255  0.1809 -0.2514 -0.0432
 4660W        W20844  16.294   8.080  10.579  0.0945 -0.1907 -0.1750
 4661W        W20845   8.502  15.520  11.867  0.3246 -0.0569 -0.0414
 4662W        W20846   9.925  15.192  14.777  0.0789  0.3415  0.0809
 4663W        W20847   5.654  17.751   9.623  0.0672  0.2441 -0.2109
 4664W        W20848   6.160   3.137   2.509 -0.1949 -0.0188 -0.2129
 4665W        W20849  11.540  10.225   0.547  0.0991  0.1227  0.0179
 4666W        W20850   7.242   2.273  10.694  0.4300 -0.1344  0.0883
 4667W        W20851  13.390  16.275  10.588  0.1819 -0.0869 -0.0851
 4668W        W20852  10.343   4.703   2.392  0.0523 -0.0858 -0.1071
 4669W        W20853  14.425   9.036  13.008 -0.2034  0.1135  0.1105
 4670W        W20854   6.574   8.548  14.313 -0.0831 -0.1158 -0.0329
 4671W        W20855   4.404   6.252   2.981  0.1171  0.1850 -0.1767
 4672W        W20856   2.310   5.633   1.860  0.1843  0.0743  0.1595
 4673W        W20857   6.231  15.525   2.582  0.1228 -0.2833 -0.1117
 4674W        W20858  13.695   1.541  13.494  0.0731  0.0892 -0.3162
 4675W        W20859  17.898   5.584  14.708  0.3011  0.0798 -0.0972
 4676W        W20860  11.725   1.494   3.710 -0.1134  0.3529  0.2336
 4677W        W20861   6.911   4.321   4.618 -0.0297  0.0825 -0.0362
 4678W        W20862   2.111   0.435  14.057 -0.1771  0.1501  0.4597
 4679W        W20863  15.182  15.550  12.496 -0.0423 -0.0037 -0.1308
 4680W        W20864   3.826   8.882   0.958  0.2113 -0.0126 -0.1358
 4681W        W20865   5.140  12.672  10.469  0.6127  0.1727 -0.1082
 4682W        W20866   6.738  13.040  14.546  0.0752  0.0010  0.0655
 4683W        W20867   8.419  18.187  13.887 -0.3524 -0.1280 -0.1081
 4684W        W20868   3.515   6.068  10.617 -0.0996 -0.3211  0.0166
 4685W        W20869  13.348   3.145  13.185 -0.2322 -0.2218  0.1396
 4686W        W20870  11.039  17.125   3.474  0.0510  0.0944  0.1380
 4687W        W20871   8.613   2.663  11.761 -0.1656  0.3116 -0.0972
 4688W        W20872   0.279  13.432   0.478 -0.0109 -0.0624 -0.2438
 4689W        W20873   6.836   2.145  11.925 -0.1135 -0.0070 -0.1336
 4690W        W20874   4.823   1.659   0.357 -0.0469  0.2027 -0.1155
 4691W        W20875   3.064  12.395   0.249 -0.2477 -0.0994  0.1244
 4692W        W20876   9.609   5.029  10.333  0.1599 -0.0253  0.0223
 4693W        W20877   5.293  14.352   3.817 -0.1856  0.2769  0.4121
 4694W        W20878   4.888   4.351   0.396  0.1998 -0.0985 -0.0257
 4695W        W20879   5.796   6.026  14.323 -0.0516 -0.3162  0.0745
 4696W        W20880   7.135  15.201   4.825  0.0902  0.1857 -0.2856
 4697W        W20881   6.680   7.258   1.016 -0.2145  0.1384  0.0818
 4698W        W20882  16.954  10.746  14.312 -0.1074 -0.3073 -0.1968
 4699W        W20883  16.997  11.451  12.589 -0.1799  0.0037  0.1478
 4700W        W20884  16.256   0.909   1.037 -0.0835  0.0094  0.0006
 4701W        W20885  18.138   6.168   5.245 -0.0173  0.2024 -0.2969
 4702W        W20886   2.116   2.431   2.738 -0.0478 -0.1566 -0.1228
 4703W        W20887  12.134   5.490  12.877  0.1924 -0.0960  0.3591
 4704W        W20888   3.929   6.734  14.912 -0.1639  0.1973  0.1042
 4705W        W20889   2.296   6.255   0.315  0.0965  0.0881 -0.1804
 4706W        W20890  16.566  10.015   2.063 -0.1152  0.3363  0.1199
 4707W        W20891  16.130  13.635   0.391  0.1414 -0.2087  0.1831
 4708W        W20892  10.507  12.642  11.902 -0.2552 -0.0526  0.0406
 4709W        W20893   0.580   7.301   5.005  0.1123 -0.2295 -0.0717
 4710W        W20894  13.030  11.430   4.818  0.0577  0.1166 -0.1550
 4711W        W20895   1.406  16.644   1.030 -0.3118  0.1594 -0.1978
 4712W        W20896  13.162   2.101   3.338 -0.0645  0.0020 -0.3549
 4713W        W20897  16.167   3.365   2.394 -0.0122 -0.1184 -0.1933
 4714W        W20898  14.627  18.095  14.644 -0.0581  0.1104  0.0490
 4715W        W20899  16.147   0.295  10.947  0.0212  0.1946 -0.3412
 4716W        W20900   5.770  15.645   0.567  0.2396 -0.2215 -0.1881
 4717W        W20901   2.250   4.601  12.685  0.1046  0.1625  0.0650
 4718W        W20902  12.466   6.861   4.027  0.0060 -0.0227 -0.0913
 4719W        W20903   8.342   3.440   0.911 -0.0741  0.1456 -0.3845
 4720W        W20904   9.171   8.491   0.232  0.0720 -0.1021 -0.2194
 4721W        W20905  19.062  18.133   5.554  0.0378 -0.1603 -0.1629
 4722W        W20906   1.569   3.103  13.419  0.0630 -0.1552  0.0895
 4723W        W20907   7.406  17.566  14.438 -0.0254 -0.0689  0.0249
 4724W        W20908  14.660   5.856   0.908 -0.2260 -0.0492  0.0136
 4725W        W20909  14.189   4.791  13.672  0.0575 -0.2385  0.1314
 4726W        W20910  13.329   9.547  13.035 -0.2053  0.3051 -0.2606
 4727W        W20911   0.104   0.621  12.496  0.1825  0.0208 -0.0342
 4728W        W20912   1.479  10.946   3.786 -0.0174  0.0879 -0.0621
 4729W        W20913   8.217   4.135   0.133 -0.0439  0.2194 -0.0119
 4730W        W20914  11.764   1.830   5.454 -0.0449 -0.2321 -0.1291
 4731W        W20915  15.254   7.315   9.983 -0.0353  0.0573 -0.0004
 4732W        W20916   4.668   6.512  13.510 -0.1149  0.2230  0.2655
 4733W        W20917  10.397  15.003   9.846  0.2552  0.0400  0.0325
 4734W        W20918   3.916  18.570   0.109 -0.1311  0.0598 -0.2402
 4735W        W20919  15.837  17.097   4.102 -0.0245  0.0508 -0.0566
 4736W        W20920  13.958  14.017  12.840  0.1449 -0.0123 -0.0630
 4737W        W20921   7.915  13.033   0.984 -0.0500 -0.0474 -0.1128
 4738W        W20922   4.686  16.859   4.631 -0.1171 -0.0128 -0.2628
 4739W        W20923  17.521  15.999  14.133  0.1125  0.0652  0.0011
 4740W        W20924   0.490  16.880   2.828 -0.1143 -0.3743  0.2746
 4741W        W20925   9.719  19.095  11.754 -0.0246  0.0454  0.0467
 4742W        W20926  15.764   1.867  11.067 -0.1837  0.2415 -0.1278
 4743W        W20927   7.451   4.362  12.801  0.0550  0.0549  0.1143
 4744W        W20928   9.021   7.883   1.251  0.0774  0.1793  0.0233
 4745W        W20929   4.251  17.818  14.947 -0.0864 -0.0690  0.0426
 4746W        W20930  15.765  15.118   4.874 -0.1346 -0.1214  0.0317
 4747W        W20931  16.413  11.481   5.404  0.0533  0.0622  0.3928
 4748W        W20932   0.717   9.437  14.713  0.1471 -0.3678 -0.2156
 4749W        W20933  10.984   7.602   0.526  0.1695 -0.0431  0.1715
 4750W        W20934  18.479   4.579  10.043 -0.3507  0.1778  0.0080
 4751W        W20935   4.233   8.109   0.019 -0.3896 -0.3515  0.0271
 4752W        W20936   2.011   2.992  14.279  0.2894  0.1930 -0.2068
 4753W        W20937  18.166   0.458   4.737 -0.1898 -0.1734  0.0346
 4754W        W20938   2.681  18.551  14.061 -0.1923  0.0299 -0.3092
 4755W        W20939  17.185   2.143   4.496  0.0868 -0.0675  0.2373
 4756W        W20940  13.618   0.558   0.309  0.2237 -0.1768  0.1636
 4757W        W20941   4.391   7.502  12.810  0.0508  0.2494 -0.0480
 4758W        W20942  16.074  18.791  13.036 -0.3694 -0.1621  0.0558
 4759W        W20943  12.614  16.232   4.029  0.2207 -0.0756  0.0274
 4760W        W20944   8.774   0.864   2.241  0.3823 -0.1728  0.3150
 4761W        W20945   1.765   2.806  11.271 -0.1489 -0.1759  0.1981
 4762W        W20946  17.981   8.908  12.306  0.7057 -0.2324 -0.3165
 4763W        W20947   2.467   8.166   1.644  0.0213  0.0561 -0.3032
 4764W        W20948   3.961  15.566   0.007  0.2798 -0.0151  0.3190
 4765W        W20949  14.581  13.316   5.605 -0.1562 -0.3148 -0.2684
 4766W        W20950   7.899  17.599  14.597 -0.0288 -0.0549  0.1145
 4767W        W20951   9.659  16.925   4.179  0.2384 -0.3216  0.1569
 4768W        W20952  11.185  19.108   4.730 -0.1199  0.0982  0.1288
 4769W        W20953  10.328  18.099  12.930  0.0982 -0.1843  0.0290
 4770W        W20954   9.794   1.107  14.853  0.0383 -0.1186  0.0537
 4771W        W20955  16.961  15.632   4.395  0.0350 -0.2613 -0.0279
 4772W        W20956   5.053   1.014   4.779 -0.1430 -0.3090  0.0859
 4773W        W20957   8.500   4.777   4.239 -0.2985 -0.2180 -0.1050
 4774W        W20958   5.930   0.846   2.782  0.0288 -0.0813 -0.2715
 4775W        W20959   2.238   6.508   3.726  0.0704 -0.2509  0.1162
 4776W        W20960  15.585   6.898   3.789  0.2584 -0.1514 -0.0203
 4777W        W20961   9.085   0.826  14.354 -0.0302 -0.1640 -0.0759
 4778W        W20962   2.861   0.218  11.866 -0.1198  0.0182 -0.2305
 4779W        W20963  12.133  10.129  11.389 -0.3291  0.0224  0.0335
 4780W        W20964  14.838   4.927   4.940  0.0115 -0.0933  0.3411
 4781W        W20965  14.146  15.474   0.082  0.1510  0.1776  0.4639
 4782W        W20966   3.303   2.583   4.063  0.0420  0.0593  0.1079
 4783W        W20967   6.896   7.180   4.549  0.0225 -0.1480  0.2760
 4784W        W20968  13.714  11.805   2.552  0.2793 -0.2887 -0.3522
 4785W        W20969   5.440   4.577   4.128  0.2651  0.0685  0.2898
 4786W        W20970   8.788   1.451   5.673 -0.2108  0.1959  0.0002
 4787W        W20971   6.229  14.004   2.246 -0.2077  0.0976 -0.0386
 4788W        W20972   7.451  19.064  10.937 -0.0598  0.1848  0.2941
 4789W        W20973   6.930   8.184  13.297 -0.0119 -0.1770 -0.4084
 4790W        W20974   3.921  13.553   1.330 -0.1042  0.0908  0.0131
 4791W        W20975   4.477  10.244   3.332  0.0171  0.4855  0.1365
 4792W        W20976  13.898   6.210   1.292 -0.2179 -0.1476 -0.1792
 4793W        W20977  16.716  15.892  14.421 -0.1857 -0.0299 -0.0684
 4794W        W20978  17.471   1.308  13.793  0.1132 -0.3189 -0.2919
 4795W        W20979  16.343  14.333   1.729  0.0120  0.0968  0.2343
 4796W        W20980  17.555   7.124  11.020 -0.0857 -0.1140  0.4133
 4797W        W20981   1.839  16.973   0.142  0.2112 -0.1178 -0.1745
 4798W        W20982   9.293   7.468   1.393  0.0642  0.0323  0.2740
 4799W        W20983  15.952  17.409   0.699  0.2481  0.0119 -0.0978
 4800W        W20984   5.656   3.651   4.521  0.1735  0.1225 -0.1351
 4801W        W20985  14.983  11.360  10.854 -0.0111 -0.1981 -0.1075
 4802W        W20986   6.631  13.592   0.636 -0.1349 -0.3469  0.3299
 4803W        W20987   1.478   2.628  13.588 -0.2663 -0.3079 -0.2696
 4804W        W20988   4.359   8.213   3.688  0.1506  0.0810  0.0430
 4805W        W20989  14.269   6.484  14.065  0.2426 -0.0827 -0.1144
 4806W        W20990  13.986  15.472   2.431  0.0353 -0.1142  0.1208
 4807W        W20991   0.979  17.484   3.103  0.0846 -0.0313 -0.1610
 4808W        W20992   7.120  12.937  13.777 -0.2673  0.0528  0.0481
 4809W        W20993   9.924  12.242   1.837 -0.2471  0.1433 -0.0136
 4810W        W20994  17.893   2.713  14.618 -0.0604  0.0766 -0.1243
 4811W        W20995  17.274   3.690  13.992  0.1803 -0.3875 -0.1329
 4812W        W20996   8.243  11.846   1.115 -0.1493 -0.2579 -0.0029
 4813W        W20997  17.873   3.675   9.395 -0.0321 -0.2470  0.0696
 4814W        W20998  17.152   6.394  10.462  0.5201  0.3510 -0.1608
 4815W        W20999  15.574   2.916   1.398 -0.2253 -0.1508  0.0340
 4816W        W21000   0.516  16.854  10.723  0.2660  0.2982 -0.1242
 4817W        W21001  16.703  17.702  13.176 -0.0605 -0.0079 -0.4604
 4818W        W21002  13.370  13.866   5.225  0.2732  0.2236  0.1472
 4819W        W21003   2.855  10.154   0.137 -0.1098  0.2109  0.2587
 4820W        W21004   7.737   4.321   2.463 -0.2236 -0.0730 -0.0218
 4821W        W21005   7.054   7.406  11.925 -0.0436 -0.0142 -0.1386
 4822W        W21006   8.986   7.569  13.631 -0.2413  0.0454 -0.2546
 4823W        W21007  18.244  16.770   1.879  0.0298 -0.0649  0.0498
 4824W        W21008  14.720   9.985  13.931  0.1022  0.1871  0.1469
 4825W        W21009  18.954   4.539  13.921 -0.2273 -0.0311  0.0191
 4826W        W21010  15.284  14.918  13.092  0.1120 -0.4821 -0.1072
 4827W        W21011  11.551   2.750  11.008  0.2120 -0.1515 -0.3955
 4828W        W21012  17.765   7.500  14.780  0.0746 -0.3265  0.1047
 4829W        W21013   6.706  11.228   0.398  0.0713 -0.0177  0.1833
 4830W        W21014  12.897  12.886  12.224 -0.0181 -0.0601  0.0065
 4831W        W21015   7.797   4.424  12.058  0.1237  0.0282 -0.0307
 4832W        W21016  15.960   3.334  14.793  0.2186 -0.0540 -0.0962
 4833W        W21017  15.556   4.796  11.366 -0.2869  0.2162  0.0437
 4834W        W21018   3.419   5.337  12.803 -0.1079  0.2607 -0.0832
 4835W        W21019  17.623  13.389   3.727  0.1223 -0.4482  0.1099
 4836W        W21020  18.251   2.893   5.282 -0.2135  0.2035  0.0510
 4837W        W21021  15.225  12.256  12.765 -0.0792  0.4082 -0.0008
 4838W        W21022  11.565   4.649   0.476  0.1728  0.2782  0.0631
 4839W        W21023  10.951   5.302   3.376 -0.1052  0.1420  0.2437
 4840W        W21024   9.610  11.050  13.306  0.0105  0.2247 -0.1255
 4841W        W21025   8.592   9.650  13.219  0.0786  0.0413  0.1389
 4842W        W21026   5.364  16.240   0.267 -0.0195 -0.0659 -0.3306
 4843W        W21027  10.213  13.773  11.962  0.4906  0.0975 -0.1778
 4844W        W21028  11.843  12.264  13.173  0.0331 -0.1667 -0.0570
 4845W        W21029  14.729  17.818   3.052  0.3237 -0.2440 -0.0362
 4846W        W21030  13.122   7.720   1.055  0.4668 -0.0229  0.3400
 4847W        W21031  10.033   5.117  13.441 -0.1899 -0.1786  0.0119
 4848W        W21032  15.412  13.367   2.423  0.1342 -0.2354 -0.2593
 4849W        W21033   7.416   0.014   3.460  0.0489 -0.0031  0.0604
 4850W        W21034  12.357   5.647  10.634  0.0513 -0.4654 -0.0640
 4851W        W21035  15.933  17.127   1.485  0.3242  0.0312  0.0692
 4852W        W21036  16.028   4.753   2.651 -0.0415 -0.1049  0.1745
 4853W        W21037  16.687  15.833   2.555 -0.0076  0.0942 -0.1844
 4854W        W21038  12.859   3.514  14.811 -0.1561  0.4924 -0.2394
 4855W        W21039  13.982  10.247   1.970 -0.2953  0.0991 -0.1683
 4856W        W21040   1.926   3.468  13.428 -0.1143  0.3148 -0.0996
 4857W        W21041  10.223  17.981  13.804 -0.5415 -0.0992 -0.2133
 4858W        W21042  14.267   5.655  10.513 -0.0800 -0.0492 -0.2256
 4859W        W21043   6.203  19.222  11.341  0.0538 -0.1650  0.4317
 4860W        W21044  12.484   5.945   3.086 -0.2060 -0.0322 -0.0743
 4861W        W21045   7.951   9.590  11.649  0.1380 -0.2178  0.1746
 4862W        W21046  11.110   2.160   1.120 -0.1095  0.0499 -0.1502
 4863W        W21047   4.454  13.571  10.439  0.3177  0.2123 -0.4560
 4864W        W21048  18.731  19.146  11.050  0.0897  0.0609 -0.3378
 4865W        W21049  14.829  19.140  14.201  0.0044  0.2471 -0.1621
 4866W        W21050   2.967  15.961   3.977  0.1698 -0.0177  0.0907
 4867W        W21051  17.078   5.685   1.270 -0.0225  0.1344 -0.0012
 4868W        W21052   1.339   6.477   2.249 -0.1228  0.0757  0.1663
 4869W        W21053  19.168  14.005  10.147  0.5807 -0.1327 -0.3627
 4870W        W21054  13.367   9.092   9.168  0.4324 -0.2133  0.1286
 4871W        W21055   5.257  10.020   3.846  0.2827 -0.1004 -0.4724
 4872W        W21056  16.641   5.482   1.495  0.0689 -0.2176  0.0754
 4873W        W21057  15.353  15.513   2.684  0.6744  0.0867  0.0931
 4874W        W21058   4.034   1.045   3.030  0.1420  0.1716 -0.0798
 4875W        W21059  10.282   7.502   2.475  0.2698 -0.1878 -0.5040
 4876W        W21060  14.796  16.324   3.001 -0.0393  0.5513 -0.0349
 4877W        W21061  12.075  11.251   1.622  0.0216 -0.1105 -0.3417
 4878W        W21062  16.781   8.739  13.882 -0.0360  0.1043 -0.3034
 4879W        W21063  16.833  10.770   1.983 -0.0913  0.0448  0.0005
 4880W        W21064  13.278  17.748   3.165  0.0648 -0.5036  0.1476
 4881W        W21065   7.297   1.056   1.940 -0.1083 -0.0215 -0.2490
 4882W        W21066   1.203  11.033   2.926  0.0584 -0.0067 -0.2354
 4883W        W21067   2.565  18.595  11.965  0.0772  0.1073 -0.1019
 4884W        W21068  16.812  18.440  10.536  0.1030  0.0352  0.0544
 4885W        W21069   1.024  19.243  11.098  0.1106 -0.0733 -0.1777
 4886W        W21070  11.589  14.273  12.684 -0.0240 -0.1364 -0.1606
 4887W        W21071   0.614   3.592  13.262 -0.2540  0.1923 -0.1201
 4888W        W21072   7.328  14.326   4.833 -0.1717  0.4800 -0.1028
 4889W        W21073   0.738  12.627   6.017 -0.1394  0.0423  0.2801
 4890W        W21074   7.953   1.452  13.519 -0.1413  0.4692 -0.0343
 4891W        W21075   5.154  10.051  14.293  0.1871 -0.1182 -0.0243
 4892W        W21076  15.751   0.884  14.705 -0.2790  0.3695  0.1212
 4893W        W21077   7.978  16.701  12.916 -0.3865  0.4118  0.0265
 4894W        W21078  17.009   0.814  12.268  0.1933  0.1034  0.1394
 4895W        W21079  10.234   8.167  13.429  0.2144 -0.0805 -0.0437
 4896W        W21080  17.113  12.276  13.114 -0.3809  0.0681  0.0460
 4897W        W21081  14.359   8.261   0.971  0.0100 -0.3064  0.2059
 4898W        W21082  12.061   4.390   5.190  0.1190  0.0413  0.0915
 4899W        W21083   6.410  19.194   2.186 -0.3834  0.2460  0.3848
 4900W        W21084   2.519  10.187   0.987 -0.1637  0.0387  0.0916
 4901W        W21085   5.454  13.727  11.355 -0.3435  0.0473  0.0012
 4902W        W21086  16.563   2.713  13.513 -0.2295  0.2901  0.5568
 4903W        W21087   6.082  16.296   2.316 -0.0187 -0.1618  0.1209
 4904W        W21088  15.803  13.819   5.174 -0.0156  0.0163  0.1331
 4905W        W21089  18.607   4.470   2.955  0.0686  0.0880 -0.1901
 4906W        W21090   6.978   2.382   1.818  0.2919  0.1906  0.1675
 4907W        W21091   7.724  18.975   4.066  0.0325 -0.1342  0.0797
 4908W        W21092  11.382  14.007  12.266 -0.3941 -0.0602 -0.1704
 4909W        W21093   4.899  11.477   1.604 -0.1202 -0.4758  0.0974
 4910W        W21094   6.673  16.558   0.920 -0.0436 -0.0242  0.0257
 4911W        W21095   8.124  18.735  13.744 -0.0269  0.1475  0.0913
 4912W        W21096  14.107  18.177  11.689  0.0446  0.2993 -0.2134
 4913W        W21097  19.262  18.893  14.576  0.1546 -0.0951  0.1310
 4914W        W21098  18.765  16.704  12.678 -0.1105 -0.0291 -0.0908
 4915W        W21099  11.550   0.800  12.253  0.2595  0.2431  0.1409
 4916W        W21100   2.607  19.188   0.570 -0.0474  0.3649 -0.2461
 4917W        W21101   2.606   5.711  14.948  0.1489 -0.0131 -0.1087
 4918W        W21102   8.234   4.046  12.829 -0.3472 -0.3252  0.0274
 4919W        W21103  12.475   4.858   0.933  0.4320  0.2395 -0.3101
 4920W        W21104  17.892  13.666   3.426  0.1117 -0.1402 -0.2777
 4921W        W21105   4.158   7.506  10.371 -0.1443 -0.1190  0.2144
 4922W        W21106   8.402   2.421   1.839 -0.2490  0.1219 -0.1217
 4923W        W21107   1.598   3.360  14.385  0.0205  0.1406 -0.2970
 4924W        W21108   0.618   8.825   3.416 -0.0044  0.2342  0.4631
 4925W        W21109   2.056   8.837   0.361 -0.1823  0.0805  0.1650
 4926W        W21110   7.984   8.125   4.172 -0.2358 -0.2278  0.2130
 4927W        W21111   9.075   2.207  13.046  0.2166 -0.1800  0.0597
 4928W        W21112  18.597  11.613   5.072 -0.2131  0.2272  0.3587
 4929W        W21113   1.298  18.519  11.329  0.1711 -0.1828  0.2129
 4930W        W21114   6.235   9.346   2.142  0.1041 -0.0632 -0.1677
 4931W        W21115   7.974  16.472  13.582 -0.0572 -0.0925 -0.1536
 4932W        W21116   2.963  14.619   4.378 -0.0052  0.0959 -0.4004
 4933W        W21117  19.197  13.217  12.687 -0.0316 -0.3198 -0.2920
 4934W        W21118   6.274  12.752   0.193 -0.1604  0.0923 -0.0432
 4935W        W21119  10.594   1.342  11.425 -0.2595 -0.2262 -0.0442
 4936W        W21120  12.624  15.108  14.960  0.2147 -0.0573 -0.2672
 4937W        W21121  17.491   3.501  12.028 -0.0565  0.1569 -0.0541
 4938W        W21122  18.702   7.229  13.060 -0.1249  0.2242 -0.1933
 4939W        W21123  14.061  10.420   5.558 -0.1769  0.1334  0.0468
 4940W        W21124  18.924   2.206  10.680 -0.0755 -0.2247  0.1755
 4941W        W21125  11.315   6.475  11.756  0.0409 -0.0438  0.0849
 4942W        W21126  13.909   4.908   2.842  0.3516 -0.0778 -0.0851
 4943W        W21127   7.031   3.562   0.238 -0.2153 -0.1098 -0.0015
 4944W        W21128   2.811  16.153  13.275 -0.1133 -0.1128 -0.1504
 4945W        W21129  14.843   0.666   4.297  0.0064  0.1169  0.5147
 4946W        W21130  10.398   0.353  12.046 -0.1196 -0.1141 -0.4884
 4947W        W21131   2.475  15.915  11.737 -0.1777  0.2102  0.0257
 4948W        W21132  18.743  18.181  11.219  0.3239  0.0066 -0.4409
 4949W        W21133   3.399   4.355   0.359  0.0354 -0.0404 -0.2914
 4950W        W21134  11.380   1.766  10.864  0.2521 -0.1982  0.3186
 4951W        W21135  12.628   1.982  14.280 -0.3215 -0.2579 -0.1564
 4952W        W21136   0.743  17.869   3.402  0.0635 -0.0299  0.3714
 4953W        W21137  10.726   1.212   2.887  0.1855 -0.0570  0.2965
 4954W        W21138   7.814   8.626   9.875 -0.1218 -0.0329  0.0142
 4955W        W21139   6.969  14.654  13.957  0.0190  0.1779  0.2165
 4956W        W21140   8.958   9.955   3.236 -0.4151  0.0631  0.1094
 4957W        W21141  14.302   9.946  11.688  0.3171 -0.2691  0.1454
 4958W        W21142   9.159  18.642  10.365 -0.1800 -0.3083  0.2507
 4959W        W21143  15.344   6.075  10.078  0.0098 -0.0584 -0.0144
 4960W        W21144   8.442  13.314  12.556 -0.0006 -0.2815 -0.3882
 4961W        W21145  10.404  17.743   4.223  0.2727 -0.1110 -0.0204
 4962W        W21146  17.235   7.098  10.092 -0.0833  0.3191 -0.0693
 4963W        W21147  13.171  18.124   1.004 -0.1504 -0.3644  0.1154
 4964W        W21148   9.670   6.252  14.241  0.2165 -0.2109 -0.1306
 4965W        W21149   5.599  10.213  10.008 -0.0285 -0.2387 -0.3579
 4966W        W21150   8.634   5.654  10.138  0.1833 -0.0232  0.2607
 4967W        W21151  17.347  16.494   4.145 -0.1336 -0.2486 -0.0411
 4968W        W21152   1.420  12.167  14.291  0.1715  0.0563 -0.2319
 4969W        W21153   2.274  15.314  11.191 -0.3592  0.3269  0.3658
 4970W        W21154  10.142   7.712   1.498  0.0618  0.2765  0.0294
 4971W        W21155  16.458   9.976  14.379 -0.0699  0.1899 -0.0801
 4972W        W21156   6.172  14.276  14.838  0.4186  0.1073 -0.2712
 4973W        W21157   6.279   6.844  12.659  0.2503 -0.1673  0.1026
 4974W        W21158   1.142   1.537   2.515  0.2440  0.1033  0.0570
 4975W        W21159   5.714  10.777   3.205  0.0107  0.0338 -0.1713
 4976W        W21160   0.792   7.680   0.282 -0.4523 -0.0853 -0.0061
 4977W        W21161   0.574  11.717  10.299 -0.4372  0.1782  0.1082
 4978W        W21162   3.631  10.591   4.209 -0.1962 -0.2310  0.1581
 4979W        W21163   5.471  18.686  11.119  0.0941  0.1102 -0.0028
 4980W        W21164  16.367  18.089  11.964  0.0735 -0.2203 -0.1651
 4981W        W21165   4.484  11.575  14.875 -0.1247  0.0547  0.1869
 4982W        W21166  11.535  11.763  14.755 -0.0529 -0.1763 -0.0124
 4983W        W21167  12.781   3.859  14.384  0.3533 -0.2717  0.2756
 4984W        W21168   0.125   3.314   4.052 -0.2936 -0.0062  0.2021
 4985W        W21169   3.463   8.786  12.141  0.0884 -0.1107 -0.1748
 4986W        W21170   1.578  18.225  14.776  0.2409  0.0371 -0.1047
 4987W        W21171  18.184   9.391  10.131  0.1640 -0.0619  0.0906
 4988W        W21172  11.621   1.615  11.721  0.1050  0.4801  0.0725
 4989W        W21173   4.044   8.427   2.161  0.1571 -0.3423 -0.0006
 4990W        W21174  15.732   7.019   1.337 -0.0146  0.2136  0.0475
 4991W        W21175  18.633  18.399   0.183  0.2693 -0.2177 -0.0453
 4992W        W21176  17.949   5.540  11.781 -0.1581 -0.2532 -0.1565
 4993W        W21177   3.156  11.895  10.723  0.1474  0.2056  0.1366
 4994W        W21178   0.831   2.023  10.643  0.3028 -0.5516  0.0745
 4995W        W21179   5.545   3.220   4.110 -0.0155 -0.2130  0.3271
 4996W        W21180  10.239   6.091  13.013 -0.0447  0.1319  0.1256
 4997W        W21181  19.072  17.835  11.045  0.0466 -0.1979 -0.2073
 4998W        W21182  16.825   2.475  14.925 -0.0814 -0.2296  0.0493
 4999W        W21183   5.213   1.155  12.964  0.1654 -0.0988 -0.0553
 5000W        W21184   3.855   2.478   4.580 -0.1900 -0.2800  0.0241
 5001W        W21185  17.856   0.654  13.450  0.0382  0.1839  0.2216
 5002W        W21186  10.338   2.417   1.867  0.2663  0.1022  0.0953
 5003W        W21187   6.985   7.954  12.005  0.0040  0.2137 -0.1038
 5004W        W21188   6.404  18.461  11.967 -0.0033  0.1035 -0.0387
 5005W        W21189  16.658   0.898   1.878  0.1549  0.0025  0.0029
 5006W        W21190   8.685  17.323  14.329  0.0908  0.1794  0.1100
 5007W        W21191  11.522  11.100  10.395 -0.2473 -0.2074  0.2426
 5008W        W21192   9.742   1.252   3.283 -0.0078  0.0878 -0.3126
 5009W        W21193  16.734   0.744   3.403  0.3243 -0.2823 -0.1696
 5010W        W21194   9.124  14.963  10.287  0.0353  0.1951 -0.0809
 5011W        W21195  11.607   4.304  14.803 -0.1574 -0.0413 -0.0978
 5012W        W21196   2.850   1.701   4.074 -0.0059  0.0439  0.0302
 5013W        W21197  15.452   5.800   0.520 -0.1567 -0.1449 -0.0135
 5014W        W21198   0.427   3.768   3.472 -0.0207 -0.0908 -0.0870
 5015W        W21199   3.153  19.087   0.637  0.3469  0.0268  0.2551
 5016W        W21200   5.291   8.723   0.347 -0.1817  0.0365 -0.0691
 5017W        W21201   3.617   1.928  13.743 -0.1114 -0.1095 -0.2216
 5018W        W21202   1.086   3.336  13.199  0.2694  0.2147  0.1626
 5019W        W21203  14.774   7.921  13.685 -0.0828  0.1083 -0.0084
 5020W        W21204   0.684   9.289   1.321 -0.1238  0.0297 -0.0916
 5021W        W21205  10.798   9.500   5.097  0.2401 -0.5019  0.3340
 5022W        W21206  10.637   6.302   4.068 -0.1474  0.1974 -0.0728
 5023W        W21207  11.776   0.777   0.150  0.3004 -0.0195  0.0959
 5024W        W21208   0.918  18.304   4.827 -0.0411  0.1909  0.0800
 5025W        W21209  13.457   2.095   3.773  0.0078 -0.0249 -0.1753
 5026W        W21210   0.063   4.991   0.637 -0.0076 -0.3070  0.2731
 5027W        W21211   3.824  16.120  12.556  0.2174 -0.0330 -0.0325
 5028W        W21212  15.794  10.048  10.396 -0.3668 -0.3176 -0.0194
 5029W        W21213  10.796   6.647   1.522 -0.0378 -0.1311  0.0361
 5030W        W21214  15.839   3.656  10.848  0.0658 -0.0439  0.5095
 5031W        W21215  12.910  16.450  12.507  0.2996 -0.0968  0.5558
 5032W        W21216  11.276  17.099  13.701 -0.0566  0.0082  0.0448
 5033W        W21217  19.122  18.672  10.479  0.1962 -0.2430 -0.1378
 5034W        W21218  10.558   5.210   2.299  0.1892  0.1335 -0.2233
 5035W        W21219   4.223  13.047  13.130  0.0362 -0.1719 -0.2510
 5036W        W21220   4.220   6.365   1.125 -0.2280  0.0322  0.0980
 5037W        W21221  11.057   7.899  12.030 -0.0859 -0.2056  0.1766
 5038W        W21222  16.170  16.225   0.048  0.0302 -0.1863  0.0559
 5039W        W21223   4.325   8.771   2.003  0.1280  0.1227  0.0286
 5040W        W21224  17.483   1.013   9.817  0.1822 -0.0948 -0.2798
 5041W        W21225   0.746  13.791  14.578 -0.5149 -0.0337  0.1926
 5042W        W21226  11.527   5.723  14.481  0.2517 -0.1309  0.2278
 5043W        W21227   2.379  13.898   1.468  0.1866 -0.2927  0.0668
 5044W        W21228   6.887  10.750  12.702  0.2497 -0.1783 -0.0280
 5045W        W21229   9.313   3.024  13.430 -0.2136 -0.1366  0.0418
 5046W        W21230   2.621   2.482   2.864 -0.0842 -0.3528 -0.1305
 5047W        W21231   9.677   4.505  11.520  0.0650  0.1375 -0.2863
 5048W        W21232  17.807  16.519  14.805 -0.0820  0.1124 -0.1283
 5049W        W21233   6.698  14.477  10.921 -0.1111 -0.0656 -0.2747
 5050W        W21234   5.197   6.656   4.530 -0.1327 -0.1424  0.1556
 5051W        W21235  17.705  16.671  13.947 -0.1382 -0.0487  0.1071
 5052W        W21236  14.523   1.889   1.410 -0.1669  0.1379 -0.3262
 5053W        W21237  15.420   4.112   2.825  0.0289 -0.0105 -0.1915
 5054W        W21238   8.130   2.996   0.867 -0.2840 -0.1653  0.2339
 5055W        W21239   7.971  13.209  14.944 -0.0243 -0.0296  0.0652
 5056W        W21240  19.327  17.745   1.247 -0.4092 -0.2876  0.0387
 5057W        W21241   6.462   5.578   9.610  0.1494  0.0674 -0.0902
 5058W        W21242   4.221   3.774   3.602 -0.0111  0.1517  0.1973
 5059W        W21243   2.306   6.702   0.052  0.2212 -0.0774 -0.0653
 5060W        W21244  16.848  19.247  11.230 -0.1734 -0.1039 -0.1630
 5061W        W21245   1.403   1.850  14.402 -0.0653 -0.3130  0.0166
 5062W        W21246   4.040   2.077  14.869  0.0850  0.2052 -0.0239
 5063W        W21247   5.043  14.859   3.756  0.0338  0.2354 -0.3638
 5064W        W21248   0.490  11.044   0.759  0.1154  0.0184 -0.3241
 5065W        W21249  18.094   5.350   4.669 -0.1216 -0.0460  0.3880
 5066W        W21250  13.043  17.253   2.539 -0.3385 -0.0709 -0.0422
 5067W        W21251  12.945  16.605   3.899  0.0055  0.1351 -0.1124
 5068W        W21252  14.270   2.193  11.733 -0.3253  0.1451 -0.3253
 5069W        W21253  18.105   6.562  13.060 -0.0694 -0.0150  0.3592
 5070W        W21254  11.064  13.505   2.995 -0.1546  0.0823  0.2506
 5071W        W21255  16.256   5.998   0.297 -0.0901 -0.1344 -0.0546
 5072W        W21256   9.608  18.447  11.250 -0.0955  0.0875 -0.0206
 5073W        W21257   8.136   6.853  10.461 -0.1573 -0.1686  0.1569
 5074W        W21258  15.855  13.327   5.285 -0.2565  0.0018 -0.0530
 5075W        W21259   2.389  14.892   4.691  0.1825  0.0001  0.4759
 5076W        W21260   0.166  14.774   4.539  0.1233 -0.3171  0.0569
 5077W        W21261  15.649   4.864   2.151  0.0671  0.2480  0.0419
 5078W        W21262   2.551  17.835  11.261  0.1138 -0.1149  0.0978
 5079W        W21263  10.898   4.901   3.882  0.1943  0.1440 -0.0902
 5080W        W21264  10.701   2.297  11.246 -0.1676 -0.1493  0.1502
 5081W        W21265  17.911  16.916   2.635 -0.1259 -0.4225 -0.1716
 5082W        W21266  18.509   5.458   0.622  0.1857 -0.5291 -0.2661
 5083W        W21267   4.876   8.295   3.628 -0.1268  0.1634 -0.0851
 5084W        W21268  18.341   6.167   0.149  0.0436 -0.1515  0.0098
 5085W        W21269   8.625  14.082   3.192 -0.0094 -0.2330  0.2777
 5086W        W21270   2.669   5.247   4.317  0.1776 -0.0708  0.1393
 5087W        W21271   3.238   9.173  13.564 -0.3311  0.5297 -0.1116
 5088W        W21272   4.618   7.915  13.580 -0.1706  0.1419 -0.0193
 5089W        W21273   8.124   7.075  11.787  0.3235  0.1146 -0.0083
 5090W        W21274   2.779   3.712  14.141 -0.2159  0.0807 -0.0464
 5091W        W21275   4.428   5.941  11.845  0.0047  0.0719 -0.1596
 5092W        W21276  10.187  18.804  11.846  0.0246 -0.1591  0.1255
 5093W        W21277   0.405   7.945  11.623  0.1688 -0.3045 -0.4493
 5094W        W21278   1.268  10.311  14.671  0.1441 -0.3353 -0.0575
 5095W        W21279  18.908   6.615  12.526  0.3708 -0.1014  0.2367
 5096W        W21280  16.835   4.565   1.417  0.2532 -0.1049 -0.1808
 5097W        W21281   4.488   0.878   3.245 -0.0721  0.2471 -0.1129
 5098W        W21282   2.137  10.102  13.358  0.1624  0.1444 -0.2542
 5099W        W21283   8.226   0.615   3.268  0.0338  0.4131 -0.1847
 5100W        W21284   9.576   0.085  11.107  0.0420  0.0103 -0.1590
 5101W        W21285  12.475   9.016  11.605  0.1592  0.0371 -0.2149
 5102W        W21286   2.885  13.394   0.773  0.0443  0.0211  0.2032
 5103W        W21287  16.700  10.759  10.520 -0.0115 -0.2831  0.0809
 5104W        W21288  11.558   6.350   0.568 -0.0031 -0.1696  0.3214
 5105W        W21289  17.314   6.879  14.171 -0.0857 -0.1342 -0.1113
 5106W        W21290   2.630   8.200   0.036 -0.0880  0.2408  0.2340
 5107W        W21291  18.224   2.699   0.680 -0.2262 -0.1349 -0.1705
 5108W        W21292   0.293   1.098   5.061  0.0500 -0.3554 -0.0564
 5109W        W21293   2.269   4.190  12.373 -0.0443 -0.1138 -0.1160
 5110W        W21294   4.306   0.893   0.133 -0.1653  0.0363 -0.2527
 5111W        W21295  10.399  12.884  14.356 -0.2078  0.0452  0.1786
 5112W        W21296   0.424  12.145   3.177 -0.3002  0.2430  0.0019
 5113W        W21297   1.164   4.330  12.605  0.0927  0.1902  0.3815
 5114W        W21298   9.256  17.064  11.478  0.0223  0.1904  0.0284
 5115W        W21299   0.509  13.235  14.570 -0.3180  0.0145  0.0506
 5116W        W21300   0.062  15.536  13.013  0.0324  0.3457 -0.0138
 5117W        W21301  14.440  18.818   4.496 -0.3857 -0.2691  0.1785
 5118W        W21302   5.028  14.831   3.230  0.3988 -0.1283 -0.1400
 5119W        W21303  16.982  11.718   3.068 -0.4707 -0.3304 -0.2067
 5120W        W21304   1.599  11.647   3.796 -0.2370 -0.2369 -0.0800
 5121W        W21305  19.193   1.092  10.432 -0.1097  0.2674  0.0750
 5122W        W21306  16.535  12.063   3.207 -0.2531  0.0752  0.1381
 5123W        W21307   4.320   0.415  12.244  0.2937  0.0109  0.2439
 5124W        W21308   9.372   0.556  10.782 -0.0671 -0.1149 -0.0656
 5125W        W21309  13.101  12.115  11.728  0.2551 -0.0095  0.1176
 5126W        W21310   3.106   0.810  12.723  0.1641  0.0588 -0.0355
 5127W        W21311   9.967  19.091  14.479  0.1461  0.0421 -0.0591
 5128W        W21312  15.035  15.052   0.229  0.3871  0.1013 -0.0222
 5129W        W21313   9.632  18.219   2.794  0.1805 -0.1438 -0.0114
 5130W        W21314  12.363   6.386   1.889 -0.1344 -0.0475 -0.2417
 5131W        W21315   3.499   4.810   1.086 -0.1411  0.0907 -0.0718
 5132W        W21316   2.228   0.472   2.763  0.0687 -0.2172 -0.1057
 5133W        W21317   2.194   8.521  14.176  0.0516 -0.1584 -0.4659
 5134W        W21318   1.252   3.463   4.743  0.0020 -0.0440 -0.1406
 5135W        W21319  15.061  17.337  11.021 -0.3036  0.2609 -0.3098
 5136W        W21320   3.856   1.160   3.911 -0.0207  0.0227  0.2690
 5137W        W21321   5.953  12.841  11.361  0.3410 -0.0076 -0.2550
 5138W        W21322   2.250   7.901  14.799 -0.3254 -0.0871  0.0005
 5139W        W21323   6.305   3.823  13.439 -0.3112 -0.0016  0.0232
 5140W        W21324   1.454  16.632  10.177  0.1608 -0.1609  0.2807
 5141W        W21325  17.342  15.972   0.588  0.0973 -0.3075 -0.1731
 5142W        W21326  14.940   1.164   1.795  0.0058 -0.0215  0.0268
 5143W        W21327   0.428   2.066   2.084  0.2665 -0.1247  0.0302
 5144W        W21328  10.459   2.524   1.375 -0.0527  0.3349 -0.0908
 5145W        W21329  15.979  17.697   3.917 -0.2045  0.2245  0.1229
 5146W        W21330  18.299  10.780   3.988  0.1614  0.0836  0.3628
 5147W        W21331   6.701  12.985  10.128 -0.0190 -0.2571  0.1772
 5148W        W21332  17.327   9.430  12.683 -0.2591  0.0772 -0.5886
 5149W        W21333  14.679  11.383  13.288 -0.0344 -0.2753 -0.3076
 5150W        W21334  16.905  10.715   1.521  0.2875 -0.0393 -0.2125
 5151W        W21335  11.142  11.607  13.339 -0.3813 -0.1767 -0.0248
 5152W        W21336  11.261  16.587  13.617 -0.0129  0.1419  0.2772
 5153W        W21337  11.746  11.764   4.957  0.2954  0.0909 -0.3341
 5154W        W21338  18.296   9.027  11.904  0.1097 -0.2144 -0.0264
 5155W        W21339  14.458  18.091   4.278 -0.1063  0.1486  0.2871
 5156W        W21340  17.122   8.180  13.086  0.0608 -0.0054 -0.0440
 5157W        W21341  12.067   5.416   1.836 -0.0040 -0.2029 -0.2315
 5158W        W21342   8.048   8.784   0.766 -0.0006  0.0705 -0.3774
 5159W        W21343  17.194  17.724   0.158 -0.2487  0.1626 -0.1382
 5160W        W21344  13.672   8.945  14.247  0.0383  0.1117  0.0306
 5161W        W21345  12.298  11.234   2.057 -0.1305 -0.0810  0.0174
 5162W        W21346   9.447   3.388  13.784  0.0962  0.0464 -0.3539
 5163W        W21347  16.135   5.754   3.613  0.0959  0.0484 -0.0972
 5164W        W21348   0.709  18.608  10.604 -0.0463 -0.2454  0.5179
 5165W        W21349   7.203   1.426   9.059 -0.0505  0.3124  0.1532
 5166W        W21350  19.237  19.165   2.195 -0.0883  0.2230 -0.2356
 5167W        W21351   8.346   8.991   4.526 -0.1533  0.1743  0.3100
 5168W        W21352   6.992  11.293  13.269 -0.0184  0.2187 -0.0247
 5169W        W21353   8.033  10.177   4.038 -0.2652  0.2238 -0.0763
 5170W        W21354   6.783  16.872  13.457  0.2213 -0.0719  0.3186
 5171W        W21355  16.188   0.075   3.837 -0.2403  0.1102  0.0740
 5172W        W21356  13.460  11.569  13.804 -0.1523  0.0541  0.0398
 5173W        W21357  15.543   1.726   0.172 -0.2284 -0.2070  0.1173
 5174W        W21358  11.906  19.107  14.452 -0.0178  0.2974 -0.1090
 5175W        W21359  13.306  12.468  13.240 -0.1748  0.1125  0.1843
 5176W        W21360  10.753   8.464   3.537 -0.1355  0.0716 -0.0056
 5177W        W21361   8.400  10.384  14.547  0.0085  0.0775  0.2977
 5178W        W21362  15.783  13.530  12.205 -0.0979  0.2373 -0.0066
 5179W        W21363  18.250  13.661  14.565 -0.1319  0.0258  0.1593
 5180W        W21364  14.528  14.674   2.833  0.2793  0.0950  0.1058
 5181W        W21365   8.952   6.107   1.683 -0.0888 -0.2203  0.0643
 5182W        W21366  10.099  13.601   1.945 -0.0304  0.0309  0.3686
 5183W        W21367  17.340   4.461   2.287 -0.0199  0.3563 -0.3466
 5184W        W21368  13.558  11.557  10.820  0.0417  0.2462 -0.1018
 5185W        W21369  14.628  16.593  14.519 -0.1430  0.3813 -0.0215
 5186W        W21370  15.276   9.821   2.492  0.0828 -0.0936  0.2206
 5187W        W21371   3.567   7.026   2.051  0.2178 -0.1732 -0.2585
 5188W        W21372   9.238  16.013   3.304 -0.3710  0.0440 -0.0537
 5189W        W21373   0.537   4.911  14.019  0.2717  0.0734 -0.3506
 5190W        W21374  17.982   5.090  12.956  0.4712  0.0950 -0.0773
 5191W        W21375   0.186   1.851   1.588  0.2637 -0.1334  0.0446
 5192W        W21376   9.833   8.611   3.994  0.0701  0.0315  0.0216
 5193W        W21377  12.399   1.918  10.843  0.2995 -0.0236 -0.0480
 5194W        W21378  17.972   2.011  11.351  0.0309  0.0047  0.0372
 5195W        W21379   2.365  15.388   0.954 -0.0906 -0.1954  0.0950
 5196W        W21380   6.313  18.174  13.787  0.1423 -0.2959 -0.1001
 5197W        W21381  18.543  13.431  11.840  0.1375 -0.0014 -0.0424
 5198W        W21382  17.712   0.634   4.657 -0.0152 -0.1243 -0.1534
 5199W        W21383   5.088  19.041  10.862 -0.1122  0.0891 -0.2511
 5200W        W21384   5.418   0.263  11.162  0.2456  0.0997  0.0073
 5201W        W21385  16.553   0.937  14.726 -0.1297 -0.1540  0.0515
 5202W        W21386   5.586  13.771   4.672 -0.0577 -0.0707  0.0539
 5203W        W21387  18.689   3.190  14.543  0.0570  0.2356 -0.1161
 5204W        W21388   2.693   9.416   0.498  0.0675  0.0171  0.0201
 5205W        W21389   3.819  12.222   2.162 -0.1052 -0.0724  0.2183
 5206W        W21390   4.105  16.554   4.784  0.0470 -0.0634  0.0724
 5207W        W21391   5.937  11.899  12.664  0.1999 -0.1543 -0.0628
 5208W        W21392   1.643   7.239   2.010 -0.0115  0.2576 -0.1623
 5209W        W21393   2.238   9.764  12.479 -0.0354  0.1275  0.0566
 5210W        W21394   7.866   6.767  14.422 -0.1538  0.2169 -0.1947
 5211W        W21395   2.871   1.498   0.884 -0.1441 -0.1782  0.1243
 5212W        W21396  17.871   6.372  14.415 -0.1108 -0.0547  0.3632
 5213W        W21397  12.476   6.030  13.959  0.4185  0.0424  0.3207
 5214W        W21398  18.851  19.022   1.972 -0.1568 -0.0618  0.1931
 5215W        W21399   8.998   2.995  13.810  0.1198  0.2823 -0.0700
 5216W        W21400  14.081   0.926   4.019 -0.0380  0.0716  0.1239
 5217W        W21401  12.348   8.563   0.022  0.1066 -0.1101 -0.0097
 5218W        W21402  11.968  18.753  10.718 -0.0325 -0.0757 -0.0820
 5219W        W21403   8.327  13.139   1.499 -0.2667 -0.0439  0.0304
 5220W        W21404  15.727   1.694   3.014 -0.0955 -0.1942 -0.1431
 5221W        W21405  19.195   2.657  13.838  0.1062 -0.2824  0.0803
 5222W        W21406   0.737  16.294  14.556  0.0826  0.4675 -0.0284
 5223W        W21407  17.969   5.585  11.203 -0.3421 -0.3476  0.2094
 5224W        W21408  11.152   9.983   0.267  0.1816 -0.1401 -0.1495
 5225W        W21409   6.567  11.166  14.329  0.0853 -0.1396 -0.0254
 5226W        W21410  15.480  12.282  11.297 -0.0414 -0.4274  0.1420
 5227W        W21411   9.126   2.158   1.323 -0.0052 -0.2984 -0.0391
 5228W        W21412  11.386  12.864   3.759 -0.1826  0.0349 -0.3601
 5229W        W21413   9.142  11.228   1.651  0.0529  0.1529 -0.1056
 5230W        W21414   2.996   4.011   2.975 -0.0185  0.3194 -0.0006
 5231W        W21415  13.041  11.718   3.252 -0.2883  0.3356 -0.1033
 5232W        W21416  18.880  17.673  10.581 -0.1655 -0.1787  0.3824
 5233W        W21417   9.053  17.992   2.815  0.1413  0.0985  0.3328
 5234W        W21418   4.994   4.107  10.830  0.1161 -0.0776  0.1672
 5235W        W21419   1.961  13.484   3.405 -0.1128  0.0947  0.2480
 5236W        W21420  18.726   6.732   0.718 -0.1417 -0.2373  0.0603
 5237W        W21421   8.149   3.261  11.006 -0.1158 -0.0521  0.2776
 5238W        W21422   1.576   4.435   4.894 -0.0147 -0.1635  0.2233
 5239W        W21423   3.972   1.288   0.314  0.0019 -0.2018 -0.1510
 5240W        W21424  14.378  13.839   5.696 -0.1908  0.0138 -0.0506
 5241W        W21425   4.221   3.451   2.755  0.0123  0.1150  0.2225
 5242W        W21426   1.518   9.178   3.868 -0.0986  0.1138 -0.1271
 5243W        W21427   0.702   9.177   0.851  0.0595 -0.0525  0.1115
 5244W        W21428   8.153  13.329  13.606  0.1511 -0.2979 -0.0931
 5245W        W21429  13.432  10.345   0.830 -0.1220  0.0934  0.0402
 5246W        W21430  16.970   2.525  11.333  0.0953 -0.0239  0.0119
 5247W        W21431  18.649   3.322  13.388  0.1868  0.0158  0.0324
 5248W        W21432   8.876   5.980   3.417 -0.0656  0.0444  0.2831
 5249W        W21433   3.680   5.762   4.050 -0.2249  0.0537  0.2514
 5250W        W21434   4.618  16.805   1.123  0.1434  0.0800 -0.0975
 5251W        W21435   9.650   3.153   0.712 -0.1301  0.2621 -0.1302
 5252W        W21436   4.410   9.058   0.305 -0.2918 -0.1956  0.0325
 5253W        W21437  12.830   7.567  13.797 -0.0695  0.0895  0.1971
 5254W        W21438   2.125  10.386  14.379  0.0471  0.2334 -0.1920
 5255W        W21439  11.370  10.087   5.587 -0.0690 -0.0549  0.0392
 5256W        W21440   9.544   3.552  14.234 -0.0742  0.4777  0.0560
 5257W        W21441   9.402   8.760  12.562 -0.0394  0.2987  0.1051
 5258W        W21442  13.949   4.736  13.023  0.2699 -0.4413  0.0501
 5259W        W21443   9.183   4.772  10.101 -0.3652 -0.1306  0.2981
 5260W        W21444  14.400  13.837  12.514 -0.0577 -0.2768  0.0161
 5261W        W21445   5.494   7.484   4.478  0.1082  0.2634  0.2088
 5262W        W21446  14.216   8.111   0.480  0.2642  0.0903  0.1952
 5263W        W21447  12.788   8.979   3.550  0.1632  0.3237  0.1041
 5264W        W21448   1.186  16.826  14.043 -0.1242 -0.0696 -0.1848
 5265W        W21449  14.405  17.956  13.031  0.0224 -0.0837  0.1657
 5266W        W21450   6.648  17.716  11.707  0.0153  0.1847  0.1098
 5267W        W21451   2.458   4.617   3.856 -0.1769  0.2761 -0.2036
 5268W        W21452  17.779   8.220   4.765 -0.0466 -0.3395 -0.1197
 5269W        W21453  17.120   1.505   3.204 -0.1501  0.5009  0.1230
 5270W        W21454  13.296  12.685  14.238  0.0643  0.1469 -0.1143
 5271W        W21455   3.118  15.251   1.907 -0.0939  0.1612  0.2135
 5272W        W21456  17.044   3.936  13.112 -0.0160 -0.0120 -0.2183
 5273W        W21457   8.138   6.599  12.875  0.0374  0.2515  0.0944
 5274W        W21458  11.092  17.234  13.275 -0.2048  0.1667  0.1989
 5275W        W21459   2.344   3.076  13.259 -0.1743  0.2015 -0.3970
 5276W        W21460   1.863   0.698   3.030  0.0371  0.1416  0.2215
 5277W        W21461  11.441  11.527   0.255 -0.1356 -0.1290  0.0544
 5278W        W21462   7.924   3.899  13.813 -0.1518 -0.1407 -0.1352
 5279W        W21463  11.739   2.479   1.941  0.1860 -0.0478 -0.2403
 5280W        W21464  13.793  18.684   4.791  0.3175 -0.1293  0.0417
 5281W        W21465   6.863   6.003  11.080  0.2384  0.0604  0.0798
 5282W        W21466  10.416   2.638   3.912 -0.1618  0.0567  0.1015
 5283W        W21467  14.912  16.871   3.977  0.1981 -0.0131  0.2063
 5284W        W21468   5.301  19.043  13.594  0.0424  0.0922  0.1302
 5285W        W21469  12.514  18.424   4.088  0.3952 -0.1018 -0.0671
 5286W        W21470  15.924   6.499  12.390 -0.1776  0.0313 -0.0849
 5287W        W21471  18.644  15.569   2.492 -0.4428  0.1501 -0.1897
 5288W        W21472   4.241   0.116  14.846 -0.0268 -0.1400  0.2060
 5289W        W21473   3.056   4.406  11.766 -0.0156  0.2955  0.2766
 5290W        W21474  10.521  11.110  11.555  0.1953  0.4397 -0.1018
 5291W        W21475  17.870   4.482   2.379  0.1056  0.4589 -0.1247
 5292W        W21476  18.232  11.929   2.100  0.3389 -0.1938 -0.0341
 5293W        W21477  15.776   4.124   4.116  0.1411 -0.0907  0.0365
 5294W        W21478   8.596  18.327   4.915  0.1597  0.3887  0.1387
 5295W        W21479   3.596  15.310   1.774  0.1828  0.2940  0.1601
 5296W        W21480  10.332   2.126  11.584 -0.1807 -0.0920  0.2350
 5297W        W21481   4.681   7.132   3.711 -0.3132  0.1125  0.0597
 5298W        W21482   2.340  15.965   3.070 -0.1991  0.1762 -0.0063
 5299W        W21483  11.831   1.051   1.894 -0.0303 -0.0720 -0.2145
 5300W        W21484  13.118   7.107  11.354 -0.0641 -0.4080 -0.3399
 5301W        W21485  17.159   4.886  11.544 -0.4538  0.4037  0.0604
 5302W        W21486   2.502  12.526  13.724 -0.0562 -0.1240  0.3655
 5303W        W21487   3.188  14.310  10.011  0.2686 -0.2277  0.2724
 5304W        W21488   0.531  15.361  12.955 -0.3941  0.1137  0.0994
 5305W        W21489   6.058  14.485   3.653  0.0961  0.0842  0.1844
 5306W        W21490   5.780  13.074   1.525  0.2646 -0.0724  0.2016
 5307W        W21491  17.215  12.944  10.789  0.1386  0.1045 -0.1022
 5308W        W21492  17.280  15.872   2.609 -0.3506  0.3251 -0.0278
 5309W        W21493   9.337  14.466   4.765  0.1608 -0.2965 -0.1336
 5310W        W21494   0.725   4.560   2.827 -0.2954  0.1180 -0.0292
 5311W        W21495   1.784   3.725  10.280  0.0221 -0.1223  0.1278
 5312W        W21496  13.367  15.165  14.517  0.1828 -0.3428 -0.0206
 5313W        W21497   6.073   8.824  14.191  0.0957 -0.1650 -0.0576
 5314W        W21498  18.063   4.067  11.712 -0.0093 -0.0348  0.1971
 5315W        W21499  13.511   4.438  14.204 -0.1632 -0.0545  0.1259
 5316W        W21500   5.904   1.232   1.714 -0.1839 -0.3594  0.0906
 5317W        W21501   6.230   1.842   2.508 -0.1976  0.0109 -0.0850
 5318W        W21502  16.691  12.682   9.853 -0.1644  0.1413  0.1654
 5319W        W21503  15.735  15.042   2.159 -0.0635  0.0815  0.1227
 5320W        W21504   6.719  16.254   0.040  0.3238 -0.1389  0.1725
 5321W        W21505   5.491   6.782  13.813 -0.0896 -0.0851  0.2685
 5322W        W21506  13.600   2.033  14.343 -0.0261 -0.0115 -0.3157
 5323W        W21507   0.197   7.182  12.860  0.1109 -0.3146  0.0329
 5324W        W21508  18.148  12.028  13.717  0.0622 -0.3052  0.0887
 5325W        W21509   8.958  15.978  14.694  0.0829 -0.0821  0.0670
 5326W        W21510  14.950   0.399  11.850 -0.2560 -0.0743  0.0318
 5327W        W21511   3.576   9.744   3.292 -0.0069 -0.0031 -0.0044
 5328W        W21512   2.756  11.042  12.484  0.1582 -0.3112  0.1309
 5329W        W21513  17.614  10.702   3.145 -0.1279 -0.1378  0.1594
 5330W        W21514  11.315   6.289  10.917  0.1652 -0.1985 -0.2253
 5331W        W21515   9.026   1.054   0.448 -0.3349  0.1470 -0.3008
 5332W        W21516  15.548   7.414   1.118  0.5099  0.0711  0.1341
 5333W        W21517   7.198   9.451   3.101 -0.0171  0.1262  0.0061
 5334W        W21518  16.763   1.802  10.187  0.1884 -0.1147 -0.1794
 5335W        W21519   3.174   1.033  11.125  0.1473  0.1319  0.1667
 5336W        W21520  14.505   6.985  11.354  0.0949 -0.0553 -0.1547
 5337W        W21521  17.654  11.912  10.589  0.1809  0.2007  0.1415
 5338W        W21522   4.925   8.264  13.000 -0.1315 -0.1887  0.0374
 5339W        W21523   6.951  11.517  11.054 -0.2357  0.0535 -0.3396
 5340W        W21524  12.328  19.336  11.032  0.2860 -0.3358 -0.3264
 5341W        W21525   2.705  11.006   4.060 -0.2154 -0.0373 -0.0404
 5342W        W21526  16.251   7.199   2.351  0.0982 -0.1037  0.1165
 5343W        W21527  13.388   6.001  12.382 -0.3011  0.0162  0.0453
 5344W        W21528  15.875  19.055   4.250 -0.0188 -0.1824  0.3718
 5345W        W21529  15.504   3.743  14.109  0.2570  0.0711  0.0244
 5346W        W21530   5.188  19.359   3.963 -0.2772  0.1107 -0.0214
 5347W        W21531  15.999  11.853   1.655 -0.2081 -0.0923  0.1349
 5348W        W21532  17.855  11.688  12.188 -0.1663  0.2024  0.1258
 5349W        W21533  14.345  17.714   1.446 -0.1816 -0.0023 -0.1080
 5350W        W21534   1.132  14.903   2.319 -0.1105 -0.0294 -0.0032
 5351W        W21535   9.507  15.362   4.924  0.0460  0.0195  0.4741
 5352W        W21536  18.639  15.887   0.228 -0.0597 -0.1792 -0.0084
 5353W        W21537   0.204   1.310  13.788  0.0542 -0.2143 -0.0548
 5354W        W21538  12.781   4.345   2.295 -0.1738  0.0344  0.2102
 5355W        W21539   0.433   9.969   4.291  0.1314 -0.1123 -0.1145
 5356W        W21540   8.935   6.491   0.370 -0.2139  0.0426 -0.0627
 5357W        W21541  17.802  15.049   4.299 -0.1764  0.0393 -0.2954
 5358W        W21542   3.968  14.156  12.509 -0.1486  0.2239 -0.2115
 5359W        W21543  18.070   6.980  11.353 -0.1445  0.3158 -0.1508
 5360W        W21544  15.616   6.662  10.760  0.2868 -0.1781 -0.0598
 5361W        W21545   0.257  18.737  10.715  0.3104  0.1458 -0.5701
 5362W        W21546   4.312   3.914   2.600  0.2499  0.4320 -0.0683
 5363W        W21547  17.539   2.025   4.826 -0.0674  0.1903  0.0519
 5364W        W21548   5.363   8.424  13.075 -0.1874 -0.1236 -0.1773
 5365W        W21549  17.869   4.114  13.552  0.3232  0.1755 -0.0675
 5366W        W21550   2.174  19.052   2.925  0.0101 -0.0462 -0.2408
 5367W        W21551  17.997   7.536  13.882 -0.2170  0.0662  0.3437
 5368W        W21552   0.247  13.768  11.342 -0.2007  0.0914  0.1523
 5369W        W21553   6.916  10.231   4.462  0.1822  0.0712  0.0165
 5370W        W21554  11.491  18.124  12.919  0.1607  0.1295  0.1074
 5371W        W21555  18.450   8.980  12.641  0.0078  0.0299  0.1426
 5372W        W21556  10.478   6.310   0.673 -0.1826  0.1211 -0.0061
 5373W        W21557   1.204  18.831   4.039 -0.0686 -0.2442  0.1502
 5374W        W21558  10.912  12.425   1.707 -0.1748  0.1644  0.1538
 5375W        W21559  11.242  13.315   4.487  0.2453 -0.3651 -0.0521
 5376W        W21560  18.620  18.048  14.747  0.0881 -0.2017  0.2527
 5377W        W21561  12.408  13.041  12.378  0.0335 -0.3128  0.1332
 5378W        W21562   5.785  11.361   0.377 -0.5028  0.1000 -0.1307
 5379W        W21563   6.981   1.505  12.569  0.0294  0.1370  0.1760
 5380W        W21564   5.167   0.627   0.745 -0.0307 -0.0154 -0.0355
 5381W        W21565   3.486   0.512  13.483 -0.0957  0.4651  0.1325
 5382W        W21566  13.727  18.533   9.334 -0.2963  0.4326  0.0820
 5383W        W21567   2.100   2.628   1.644  0.1270  0.2242 -0.2320
 5384W        W21568   6.052   3.972   4.520  0.3506 -0.2966 -0.0678
 5385W        W21569  13.709  14.970   5.135 -0.4977  0.0296  0.5841
 5386W        W21570  18.475  15.729  11.701  0.0084 -0.3037 -0.0421
 5387W        W21571   7.267  18.120   1.927 -0.1860 -0.0255 -0.2309
 5388W        W21572  14.875   1.980   3.734 -0.0822 -0.0366 -0.1708
 5389W        W21573   1.798  10.857   1.349  0.2614 -0.0504 -0.1229
 5390W        W21574  17.699  11.192  14.202  0.3761 -0.0086 -0.2969
 5391W        W21575   9.333   3.233  11.777 -0.1101  0.0220 -0.1320
 5392W        W21576  15.725  11.262   9.722  0.2272 -0.0086  0.1430
 5393W        W21577  11.946  11.956  14.972 -0.0600  0.3683  0.2655
 5394W        W21578   2.412   0.120  12.898 -0.2469 -0.0539  0.5643
 5395W        W21579  16.941   2.610   3.311  0.0511 -0.0570  0.0916
 5396W        W21580   8.545   8.089   4.372  0.1278  0.1025  0.0077
 5397W        W21581   2.325   1.026   4.789  0.1749 -0.1239 -0.2725
 5398W        W21582   5.487   9.294  11.874 -0.1789 -0.4208  0.1167
 5399W        W21583  17.492   1.681   0.611  0.0972 -0.2787  0.0038
 5400W        W21584  12.455   3.946  11.254 -0.1494 -0.1421  0.1420
 5401W        W21585  10.713  10.163  12.399  0.1674 -0.1852 -0.1119
 5402W        W21586   3.459  13.677  14.786 -0.0880 -0.0653 -0.0446
 5403W        W21587  12.785  16.284   1.341 -0.0751 -0.0814  0.2123
 5404W        W21588  11.754  10.695  12.490  0.2869  0.0392  0.2559
 5405W        W21589  17.586  11.723   4.112 -0.1100 -0.1067 -0.4507
 5406W        W21590   9.228  15.647   2.416 -0.1307  0.2797  0.1553
 5407W        W21591  16.087  15.215   0.421  0.0506  0.1133 -0.0560
 5408W        W21592  14.966   5.544  11.088 -0.1596  0.2302  0.1629
 5409W        W21593  13.433  17.399   1.639 -0.1791  0.1191 -0.0757
 5410W        W21594  15.842   0.791   1.869 -0.2575  0.1868  0.0063
 5411W        W21595  16.793  10.241  10.573 -0.2457  0.2987 -0.1168
 5412W        W21596  12.920  17.283   5.758 -0.0306 -0.2017 -0.1994
 5413W        W21597   5.206   0.394  12.098  0.1675 -0.0067 -0.0690
 5414W        W21598   2.071  10.516  13.110  0.3771  0.2027  0.1709
 5415W        W21599  13.614  10.536   9.726  0.0782 -0.1319  0.3010
 5416W        W21600   8.209   1.222  12.192  0.0404 -0.1996 -0.0079
 5417W        W21601   5.641   6.745   5.279 -0.0074  0.0735 -0.0994
 5418W        W21602  17.610  12.148  12.846  0.0359 -0.4151 -0.0156
 5419W        W21603   8.353   4.256   2.404 -0.3711  0.0491  0.1553
 5420W        W21604  13.822  18.523  13.298 -0.0123  0.0708  0.0991
 5421W        W21605   9.546   5.963   0.880 -0.1217 -0.0255 -0.0634
 5422W        W21606   3.394   0.301  11.930 -0.0384 -0.1095 -0.0435
 5423W        W21607  10.387  16.074  14.708  0.1124 -0.0280  0.1486
 5424W        W21608  14.872   7.142  11.987  0.0812  0.1153  0.0928
 5425W        W21609   8.775  14.605   0.202  0.0406 -0.4720 -0.0890
 5426W        W21610  10.146   6.389   1.012  0.1932 -0.3784  0.1418
 5427W        W21611  18.332   2.998   1.426 -0.1778 -0.0304 -0.3198
 5428W        W21612   5.462   9.097   2.679 -0.2504 -0.0463  0.1793
 5429W        W21613   2.387  15.614  14.647 -0.1381 -0.0740 -0.0435
 5430W        W21614   6.571  17.548   3.976  0.1798 -0.1423  0.3085
 5431W        W21615  12.318   1.817  14.643 -0.0200 -0.0344 -0.1280
 5432W        W21616   9.104  16.924   2.345  0.0885 -0.1699 -0.0709
 5433W        W21617  13.675   3.870   0.631 -0.0937 -0.0829  0.1315
 5434W        W21618   1.710   5.605   2.555  0.1455 -0.1924 -0.1399
 5435W        W21619  13.955   3.547  12.398 -0.2605 -0.0040 -0.0078
 5436W        W21620   3.271  10.623   1.251  0.2444 -0.0619 -0.3359
 5437W        W21621   0.326  13.055   1.180  0.2338 -0.3347 -0.0149
 5438W        W21622   1.176  17.980   1.718  0.1202 -0.2245  0.0617
 5439W        W21623   2.695  14.058  13.283  0.0376 -0.2836 -0.1395
 5440W        W21624   6.475  13.426  14.654  0.0626 -0.0745  0.0459
 5441W        W21625   1.640  17.680  10.107  0.3307  0.1090 -0.1098
 5442W        W21626  12.211  14.868  14.703  0.1754 -0.3315 -0.2198
 5443W        W21627   1.266  15.451   0.629  0.0077 -0.1896 -0.2567
 5444W        W21628   2.774  19.266   3.971  0.2364 -0.0942  0.0186
 5445W        W21629  16.024   9.734  12.893 -0.0123  0.3264  0.0076
 5446W        W21630   2.580   1.004   0.552 -0.1729  0.2454 -0.0696
 5447W        W21631   3.686   2.674   1.035  0.2406  0.3296 -0.2152
 5448W        W21632  15.064   1.322  13.255  0.0122  0.0446  0.1167
 5449W        W21633  15.333  17.171   1.474 -0.0007 -0.1217  0.2142
 5450W        W21634   3.870   3.881   5.142 -0.1148  0.2201 -0.1154
 5451W        W21635  11.297   8.321  11.837  0.4014 -0.0860 -0.2982
 5452W        W21636   0.384   8.205   1.165  0.0473 -0.2457 -0.1105
 5453W        W21637  15.877   0.421   1.530 -0.1724 -0.0842 -0.0479
 5454W        W21638   3.090   2.805  13.190 -0.0103 -0.1697  0.1725
 5455W        W21639  18.787  12.791   0.069 -0.1065  0.1208  0.2186
 5456W        W21640   2.449  14.330  14.191 -0.1053 -0.0414 -0.3139
 5457W        W21641  12.686  16.610  10.977  0.0848  0.2241 -0.0328
 5458W        W21642   0.987  10.777  14.005  0.1324 -0.1035  0.1000
 5459W        W21643   3.974   3.833   1.985 -0.3032  0.1635 -0.1212
 5460W        W21644   0.848  16.766  10.349 -0.0634  0.2453  0.3896
 5461W        W21645  13.458  11.347  14.664 -0.0505 -0.0121 -0.0058
 5462W        W21646   7.606  12.778  14.943 -0.0302 -0.0276  0.0587
 5463W        W21647   1.028   8.332  12.258  0.3493  0.1394 -0.2554
 5464W        W21648  11.972   3.072  13.688  0.5566 -0.0933 -0.2925
 5465W        W21649  16.901  14.712   0.727 -0.5604  0.0029  0.1039
 5466W        W21650   7.474  12.544  12.094  0.3378  0.0594 -0.3718
 5467W        W21651  16.086  16.985  13.198  0.4002  0.0823  0.0937
 5468W        W21652  13.420  11.151  14.063 -0.0528  0.1324  0.1138
 5469W        W21653   9.309  19.128  13.625  0.3142 -0.1935 -0.4183
 5470W        W21654  11.987   9.746  12.886 -0.0458  0.1800 -0.0775
 5471W        W21655   9.888  10.566  11.388  0.2005 -0.0126  0.0056
 5472W        W21656  19.129   3.864  13.106 -0.0361 -0.1858 -0.0540
 5473W        W21657  18.123  17.465  11.170  0.1340  0.0284 -0.0191
 5474W        W21658  14.992   3.966  11.738  0.4387  0.5081 -0.0234
 5475W        W21659   4.424  16.014   1.924 -0.2115 -0.0590  0.3675
 5476W        W21660   4.978  12.835   2.445 -0.3384 -0.3086  0.0543
 5477W        W21661  12.600  13.701   0.738 -0.1389  0.1595 -0.3216
 5478W        W21662  16.901   8.646  12.246 -0.0213  0.0032 -0.2281
 5479W        W21663   6.016  19.361   4.768  0.1205  0.0444  0.1603
 5480W        W21664   6.142   0.710  14.136 -0.0903 -0.1177  0.3276
 5481W        W21665  16.268   8.212   5.381 -0.0287 -0.2609  0.2387
 5482W        W21666   4.506   1.400   1.281 -0.1762 -0.1118 -0.2945
 5483W        W21667   8.645  19.266  11.209 -0.0018 -0.1428  0.4168
 5484W        W21668   4.198   4.959  11.234 -0.0657 -0.2598  0.3194
 5485W        W21669   8.934  19.311   3.043  0.2095  0.2642  0.0247
 5486W        W21670  10.354  17.754  14.230  0.0859 -0.0233  0.0189
 5487W        W21671  18.829   5.415  12.081 -0.2104  0.0891 -0.0478
 5488W        W21672  12.122   2.607   2.344  0.0366 -0.2851 -0.0836
 5489W        W21673  11.299   9.677   1.340 -0.1104 -0.1479 -0.0655
 5490W        W21674  15.568  17.762   4.194 -0.0997 -0.0107  0.5116
 5491W        W21675   5.074  18.747  13.937  0.0862 -0.1137  0.0543
 5492W        W21676   5.548   9.604  13.958  0.2123  0.1175  0.3742
 5493W        W21677   5.038   3.519  13.181  0.1109 -0.1945 -0.4101
 5494W        W21678  16.260   5.975  10.567  0.1883  0.0527  0.0542
 5495W        W21679  13.861  19.257   0.021 -0.2183  0.0591 -0.2323
 5496W        W21680  18.581  13.551   4.091  0.5765  0.1183 -0.2796
 5497W        W21681  12.647  15.388   2.613  0.1467  0.1689 -0.1276
 5498W        W21682   2.701  13.062  14.440 -0.0612 -0.4474  0.1481
 5499W        W21683   1.083   2.465  13.010 -0.3320  0.1599  0.2846
 5500W        W21684   7.043   5.878   9.529 -0.0507 -0.1690 -0.2497
 5501W        W21685   9.817  13.495  13.178 -0.0115  0.1865 -0.4775
 5502W        W21686  18.493  14.644   4.887  0.2984 -0.2392 -0.0882
 5503W        W21687   5.054   3.908   1.460 -0.0888  0.0463  0.1781
 5504W        W21688   5.437  13.273  12.985 -0.0937 -0.2147  0.1785
 5505W        W21689  12.307   3.334   1.699  0.1436 -0.0356  0.2149
 5506W        W21690   3.913  16.048  10.414  0.0133 -0.1557 -0.0898
 5507W        W21691   6.168  11.129   2.868 -0.0338 -0.1648  0.0065
 5508W        W21692   8.375  16.663   5.005 -0.1001  0.1374  0.1461
 5509W        W21693   5.055  14.535   4.256 -0.0604 -0.0776 -0.0247
 5510W        W21694  11.224   1.426  10.190 -0.1845  0.2935  0.3052
 5511W        W21695   3.379   1.413  13.062 -0.0133  0.4325  0.0987
 5512W        W21696   1.865  17.851   2.519 -0.1834  0.2270  0.2010
 5513W        W21697   4.853   5.491   3.556  0.2772 -0.0016  0.1115
 5514W        W21698  19.146   8.942   3.288  0.0960 -0.1256 -0.0739
 5515W        W21699  11.722  18.360   0.787  0.0883  0.1894  0.0179
 5516W        W21700   1.475  10.026   0.156 -0.0178 -0.1933  0.1455
 5517W        W21701  13.645  14.674  10.775 -0.1475  0.4290  0.1339
 5518W        W21702   2.202   4.386   2.290 -0.1789 -0.0792 -0.1975
 5519W        W21703  14.733   2.685   4.918  0.2208  0.1701 -0.1792
 5520W        W21704  13.614   6.867  10.695  0.0464  0.1647 -0.0744
 5521W        W21705  15.314   9.959  11.877  0.0683 -0.1005  0.2766
 5522W        W21706   8.439  17.014   4.128  0.0971  0.3682 -0.4376
 5523W        W21707  11.213   8.911   0.306  0.1545 -0.1474 -0.0460
 5524W        W21708   6.488   6.813  11.372 -0.1459  0.2057  0.3713
 5525W        W21709  16.056  13.227  12.585  0.1000  0.3969  0.1574
 5526W        W21710   5.882   6.299   3.665 -0.1962  0.0894  0.1943
 5527W        W21711  10.569  17.370   3.721  0.1236 -0.2179 -0.2286
 5528W        W21712  14.044   8.214   4.845 -0.2031 -0.1154 -0.0414
 5529W        W21713   3.928   6.347   5.453  0.3559 -0.1829  0.1728
 5530W        W21714   7.799  16.860   2.603  0.2549 -0.0425  0.2485
 5531W        W21715   2.066   1.703   1.309  0.1103  0.0688  0.0937
 5532W        W21716  18.573   6.923  11.622  0.0322  0.2460  0.0270
 5533W        W21717  12.752  18.207  11.572  0.2163 -0.1930 -0.1342
 5534W        W21718  14.518   9.524  10.223 -0.0128  0.2446 -0.0276
 5535W        W21719  15.749   0.638  11.200  0.0189 -0.3514 -0.2754
 5536W        W21720   6.850   5.350   0.871 -0.2978 -0.0255 -0.1151
 5537W        W21721  15.079  13.650   2.024  0.2585 -0.0501  0.1620
 5538W        W21722  18.207   8.426  13.452  0.0163  0.2274 -0.0263
 5539W        W21723  13.929  13.939  10.699 -0.5388 -0.1351 -0.2603
 5540W        W21724   7.213   8.566   1.299 -0.1156 -0.1401  0.2422
 5541W        W21725  16.907  17.205  13.984  0.3313  0.0759  0.3689
 5542W        W21726   2.093  17.529  10.792  0.1027 -0.0537  0.1550
 5543W        W21727   1.187  16.045  11.048  0.0829  0.1045 -0.2161
 5544W        W21728  13.326  18.656  14.590 -0.1591  0.1356  0.4435
 5545W        W21729  13.699  13.505   0.206  0.1276  0.1038 -0.1486
 5546W        W21730  13.606   3.216  10.485  0.2612  0.0781 -0.0134
 5547W        W21731  11.235   4.244  12.016 -0.1669 -0.4471 -0.1649
 5548W        W21732  16.924  11.499   5.553 -0.0645 -0.1056  0.2166
 5549W        W21733  13.900  12.830   1.881  0.2761 -0.1302 -0.0679
 5550W        W21734   4.577  10.861   0.436  0.1605 -0.0465  0.0273
 5551W        W21735   1.186  12.878  11.481 -0.1864 -0.2145 -0.0822
 5552W        W21736  16.468  18.581  11.168 -0.3024 -0.2897  0.0448
 5553W        W21737   4.094  12.073   1.545 -0.2050  0.1405 -0.0664
 5554W        W21738   3.306  13.283   3.891 -0.0783 -0.1945 -0.0309
 5555W        W21739  16.706   3.718   5.429 -0.0622 -0.1784  0.2097
 5556W        W21740  17.391  17.408  14.186  0.2052  0.1069  0.0648
 5557W        W21741  17.359   5.728  14.948  0.0257  0.2498 -0.2222
 5558W        W21742   6.285   3.611   0.535  0.1340 -0.3351 -0.4351
 5559W        W21743  11.393  14.247   3.999  0.3603 -0.0037 -0.2341
 5560W        W21744   8.640  19.210   3.973  0.0016  0.1113  0.2015
 5561W        W21745  19.191  18.952   3.260 -0.0510  0.1955  0.0542
 5562W        W21746   4.324  17.243  13.648 -0.2132  0.1582  0.1887
 5563W        W21747   7.828  15.036   4.075 -0.1242  0.1341  0.0960
 5564W        W21748  14.833   4.517   1.564  0.1775 -0.0264  0.0523
 5565W        W21749  17.793   7.363   9.913  0.1402  0.1906 -0.1267
 5566W        W21750  18.525   6.333  10.236 -0.0904  0.1014  0.1326
 5567W        W21751  16.001  14.128   3.807  0.1798  0.1053 -0.1300
 5568W        W21752  14.731  14.786   1.065 -0.1677  0.0041  0.2507
 5569W        W21753  19.250  17.198  13.258  0.1082  0.0396  0.4501
 5570W        W21754   7.536   1.857   5.358  0.0077  0.1298  0.1307
 5571W        W21755  15.682   0.778   5.186 -0.0174 -0.0614 -0.0516
 5572W        W21756   5.392  12.223  10.390 -0.2697 -0.0318 -0.0251
 5573W        W21757  19.302  17.643   3.904  0.1878 -0.0155  0.2562
 5574W        W21758  17.716   5.348  10.514 -0.2205  0.2066  0.1661
 5575W        W21759   4.487  15.114  13.874 -0.2288 -0.0242  0.1779
 5576W        W21760  10.867  16.287  14.601 -0.1909 -0.0288 -0.0168
 5577W        W21761  16.179  16.822   2.789 -0.1595 -0.1012 -0.4089
 5578W        W21762  11.690   7.239   4.211  0.2142  0.0328  0.2087
 5579W        W21763   8.641  12.356   0.071  0.1988  0.0821 -0.0781
 5580W        W21764  11.478  10.456  13.531 -0.1714 -0.1968 -0.2430
 5581W        W21765  17.443  12.867   0.682  0.3172  0.3383 -0.2749
 5582W        W21766   4.047   0.679   5.014  0.4033 -0.0281  0.0230
 5583W        W21767   9.252   9.017  13.587 -0.2033  0.0173  0.0794
 5584W        W21768  14.203  15.989   0.046  0.1536  0.0842  0.1295
 5585W        W21769   9.601   5.552  10.094 -0.0799  0.3793 -0.2570
 5586W        W21770  15.998   1.117  11.445 -0.2374 -0.1439 -0.1708
 5587W        W21771   5.191  13.723   2.302  0.1423 -0.0449  0.0436
 5588W        W21772  12.886   2.757  10.731  0.5250 -0.1547  0.0776
 5589W        W21773   8.595   7.780   3.569 -0.4636  0.2374  0.1918
 5590W        W21774   7.803  17.208   3.435  0.3470 -0.1627  0.0641
 5591W        W21775   4.566  18.293   3.945  0.1320  0.0165 -0.2796
 5592W        W21776  10.694   2.617  12.795  0.2011 -0.1158 -0.0978
 5593W        W21777   3.431   0.004   4.891 -0.1388  0.1379  0.0566
 5594W        W21778   8.064   9.516  13.187  0.0623  0.2527 -0.3211
 5595W        W21779  17.013   6.111  13.645  0.4085  0.3433  0.0987
 5596W        W21780   3.893  15.581  11.457  0.1189  0.1017  0.4169
 5597W        W21781   6.089   6.777   3.553  0.2121 -0.2921 -0.1258
 5598W        W21782  12.708   1.575  14.791  0.0568 -0.3773 -0.1417
 5599W        W21783   5.220   7.907   1.933 -0.3798  0.0259  0.1554
 5600W        W21784  12.194  12.670   1.533 -0.1506 -0.0310  0.1368
 5601W        W21785  10.555  18.942   0.990 -0.0172  0.0740 -0.1534
 5602W        W21786  15.336  17.952  12.531  0.3054  0.0928  0.2332
 5603W        W21787   3.554  10.459  13.302 -0.2077 -0.3279  0.1033
 5604W        W21788  11.300  13.171   0.462 -0.2996 -0.1431  0.1209
 5605W        W21789  16.651   7.030  11.980 -0.1110  0.1040 -0.2196
 5606W        W21790   2.739   0.793   1.471  0.3573  0.0637 -0.2394
 5607W        W21791  12.829   5.586  10.423 -0.2560  0.2050  0.0351
 5608W        W21792   8.094  14.418   3.927 -0.2842  0.1008 -0.2251
 5609W        W21793  18.859  12.688   3.790 -0.0846 -0.3418  0.1358
 5610W        W21794  10.593  13.404   2.040 -0.0702  0.0847 -0.0166
 5611W        W21795   1.296   9.456  10.427  0.3323 -0.2399 -0.2123
 5612W        W21796  16.176  12.883  11.090 -0.0005  0.1041  0.0187
 5613W        W21797  17.246  12.193  11.930 -0.0193  0.4487 -0.1932
 5614W        W21798  12.670  10.006   3.467  0.0666 -0.0703 -0.0287
 5615W        W21799  10.197   5.392  11.782 -0.0357 -0.0931  0.2634
 5616W        W21800  15.973   5.693  10.866  0.0242 -0.0682  0.0262
 5617W        W21801   1.172   7.398  10.923  0.1864 -0.1757  0.3423
 5618W        W21802   6.376   0.490  10.577  0.2110 -0.2988  0.1230
 5619W        W21803   3.329  17.726   2.102 -0.1083 -0.0770 -0.0040
 5620W        W21804   7.393  12.326   2.869  0.2545 -0.0596  0.0233
 5621W        W21805   0.822  16.514  11.055  0.1243 -0.1644 -0.1233
 5622W        W21806   8.858  12.628   1.446 -0.0120 -0.2161 -0.2637
 5623W        W21807  10.471   9.898  11.450 -0.1745 -0.0088 -0.2220
 5624W        W21808   5.878   5.528  14.312 -0.0725  0.1887  0.0665
 5625W        W21809   7.136   5.897   1.041  0.2192  0.0333 -0.5351
 5626W        W21810   1.764  17.484   3.579 -0.1069  0.0479 -0.1924
 5627W        W21811   3.413   5.159   3.709  0.1602  0.3329 -0.3444
 5628W        W21812   9.300  16.197   1.670 -0.3509  0.2416 -0.2703
 5629W        W21813   7.856  18.010  12.542  0.1045 -0.4315 -0.1040
 5630W        W21814   4.873  10.106  13.274  0.1786  0.1719 -0.3532
 5631W        W21815   9.513   3.515   1.487  0.0537 -0.2015  0.1817
 5632W        W21816   6.514   1.836   2.110 -0.1113  0.0726 -0.2314
 5633W        W21817   3.343  10.297  14.207  0.2223 -0.1247 -0.1308
 5634W        W21818   9.657   3.066  10.930  0.0168 -0.1908 -0.1142
 5635W        W21819  18.409  15.085  11.059 -0.0102 -0.0491  0.1429
 5636W        W21820   4.640  12.822  14.605 -0.0476  0.0754 -0.2980
 5637W        W21821   4.934  10.169  14.787  0.3951 -0.2434  0.1137
 5638W        W21822  11.235  17.549   0.266 -0.1453  0.0547 -0.0649
 5639W        W21823  18.417   4.577  14.688 -0.0616 -0.3837 -0.1747
 5640W        W21824  11.079   1.852  10.064  0.2943  0.1787 -0.0147
 5641W        W21825  18.588   4.169  11.388  0.1557 -0.2556  0.1229
 5642W        W21826   0.554  17.790   4.700  0.3759  0.0365 -0.1101
 5643W        W21827  13.885  14.261   3.660  0.0872 -0.2188  0.3096
 5644W        W21828  11.853  12.551  10.455 -0.1877 -0.4534  0.1161
 5645W        W21829   0.884  13.227  13.795 -0.1754  0.2062 -0.0072
 5646W        W21830   1.243  10.268   1.009  0.0458  0.1632  0.1185
 5647W        W21831   8.306   1.465  11.253  0.0950 -0.1595 -0.3020
 5648W        W21832   4.248   1.227   2.577 -0.0045  0.0082  0.1944
 5649W        W21833   6.073   0.504  12.728 -0.0914  0.0585 -0.0128
 5650W        W21834   0.190  10.085   2.534 -0.1740  0.2986  0.1861
 5651W        W21835  17.037   9.259  14.916  0.0665 -0.1962 -0.4136
 5652W        W21836   9.527   7.351   4.600  0.0453 -0.0799 -0.1339
 5653W        W21837  14.880  17.149  11.557 -0.4833 -0.0507  0.0323
 5654W        W21838   2.852  15.971   3.390  0.0706  0.5413 -0.2966
 5655W        W21839   8.475   5.705   2.376 -0.3542 -0.1126  0.1096
 5656W        W21840   2.227   3.726   3.548  0.2559 -0.0317  0.3988
 5657W        W21841  15.629  17.607  13.712 -0.2517  0.1763 -0.0927
 5658W        W21842  16.424   3.607   9.725 -0.1810  0.2277 -0.1644
 5659W        W21843  18.282  12.919  12.609 -0.0633 -0.1418 -0.3330
 5660W        W21844  13.071   3.373   3.878  0.0558  0.1015  0.2018
 5661W        W21845   1.883   0.740  11.337  0.2174  0.5474 -0.1783
 5662W        W21846  13.471   1.136   4.711 -0.4770 -0.0369 -0.2152
 5663W        W21847   1.149   1.568  13.479  0.1136  0.1303 -0.0539
 5664W        W21848  10.255  17.414   2.952  0.0158 -0.0098 -0.0972
 5665W        W21849   0.795  15.178  12.561 -0.3192  0.2339  0.1907
 5666W        W21850   3.554  17.742  10.824 -0.1261 -0.3024 -0.1333
 5667W        W21851   5.366  12.880   4.549  0.0257  0.2198  0.1225
 5668W        W21852   4.677   1.407  12.853  0.4168  0.0932 -0.0546
 5669W        W21853   7.664   2.432  10.374 -0.1125  0.4389  0.0566
 5670W        W21854   7.191   6.425  12.749 -0.0404 -0.0806  0.0979
 5671W        W21855  14.062  13.099   2.791 -0.2498  0.0061 -0.1229
 5672W        W21856   4.455   5.897   4.462  0.1338 -0.3490  0.1955
 5673W        W21857  15.671  17.448   2.912  0.0785  0.0937 -0.1636
 5674W        W21858  12.583  17.390  13.227  0.2981  0.0731 -0.2493
 5675W        W21859   2.111  17.062   3.768 -0.2805 -0.0412 -0.0918
 5676W        W21860   0.408  18.065  13.181  0.2039  0.1365  0.2498
 5677W        W21861  19.120  13.545  11.178 -0.1033  0.2539 -0.0982
 5678W        W21862   0.882  15.018   3.791 -0.1002  0.0787 -0.1788
 5679W        W21863   1.500   3.669  10.703 -0.1109 -0.2763 -0.0991
 5680W        W21864  14.596  19.070   3.817 -0.0102  0.3323  0.1635
 5681W        W21865   3.064  19.066   0.015 -0.5462  0.2827 -0.2662
 5682W        W21866   0.649  14.553   3.096  0.0189  0.0863 -0.1395
 5683W        W21867   8.059   8.434  11.836 -0.0202  0.0522 -0.0928
 5684W        W21868   4.530  13.206  10.152  0.3594 -0.1998 -0.1040
 5685W        W21869   9.377   9.423   3.761 -0.0926 -0.0540 -0.0444
 5686W        W21870   0.556   5.117  13.283 -0.0743 -0.0932 -0.1679
 5687W        W21871   5.791  10.779   4.551 -0.0394 -0.4369 -0.0297
 5688W        W21872  14.298  17.870  11.346 -0.0453 -0.0158  0.0371
 5689W        W21873   9.336   1.555   0.652  0.3344 -0.2030  0.0748
 5690W        W21874  15.588   0.462  13.089  0.0076  0.4107 -0.1386
 5691W        W21875   7.708   9.684  11.229  0.0394 -0.1686  0.1641
 5692W        W21876   2.297  14.600   1.169  0.4217 -0.1947 -0.0482
 5693W        W21877  17.083  12.770   3.406  0.2466 -0.1525  0.0564
 5694W        W21878   7.935  17.485  10.498 -0.1362 -0.1030  0.4235
 5695W        W21879  17.515   8.083   1.199 -0.0450 -0.2846 -0.1406
 5696W        W21880  16.264   0.176   1.737  0.1899 -0.0081 -0.2216
 5697W        W21881  12.825   7.595  10.805  0.0502  0.0173  0.3268
 5698W        W21882   7.523   5.761   3.663 -0.2408  0.0301 -0.0821
 5699W        W21883   9.596  10.058  13.047 -0.0553  0.0688  0.0974
 5700W        W21884   3.267  17.889   4.009 -0.2906  0.0946  0.4025
 5701W        W21885  11.330  11.420  11.223  0.1069  0.2109 -0.4521
 5702W        W21886  13.225   5.461   3.070 -0.1004  0.0704  0.1510
 5703W        W21887   5.305   3.295  12.255  0.1614 -0.0087  0.1602
 5704W        W21888  18.012  17.110   0.509  0.0728 -0.0090 -0.0092
 5705W        W21889   7.727   7.279   2.983 -0.0535 -0.0795  0.1699
 5706W        W21890  13.794  11.119  11.027  0.0337  0.0866  0.3404
 5707W        W21891  16.154   1.379   0.829  0.1569 -0.1064  0.1794
 5708W        W21892   2.913   1.338   1.392  0.2329  0.1341  0.0988
 5709W        W21893   3.934  13.940  14.723  0.2132  0.0778 -0.2817
 5710W        W21894  17.484  17.123   0.337  0.2176 -0.1998  0.0074
 5711W        W21895   9.657  14.016  12.524  0.0612 -0.2808 -0.1459
 5712W        W21896  18.533  10.326  13.707  0.2588  0.2065 -0.0255
 5713W        W21897  12.673   2.560  13.425  0.2826 -0.0810 -0.2083
 5714W        W21898   8.601  19.065   2.756  0.3457 -0.1432 -0.0256
 5715W        W21899   7.635   8.095   0.096  0.0554  0.0790  0.0121
 5716W        W21900   0.426   0.399  13.657  0.0727 -0.0115 -0.1245
 5717W        W21901  16.196   4.676   1.511 -0.0342 -0.1698 -0.1827
 5718W        W21902   8.532   7.887  11.294  0.2891  0.2022 -0.2132
 5719W        W21903   5.134   4.973   3.236 -0.0060 -0.1810 -0.2121
 5720W        W21904   3.580   7.895  12.954  0.0149  0.0273  0.0245
 5721W        W21905   2.591   3.905   0.691 -0.0214 -0.2309 -0.1244
 5722W        W21906   5.310   6.257  14.089 -0.1100 -0.0594  0.1965
 5723W        W21907   2.636   5.308   2.007  0.0688  0.0743  0.0545
 5724W        W21908  12.844  17.374   0.915  0.0346 -0.0227 -0.0183
 5725W        W21909  13.511  11.949  13.043 -0.1334 -0.0075  0.1135
 5726W        W21910  13.196   1.099   2.488  0.1796 -0.0076 -0.2926
 5727W        W21911   2.385   8.647  14.878  0.1046  0.3090  0.2701
 5728W        W21912  12.223  11.931   2.709 -0.0036  0.1459  0.2141
 5729W        W21913   5.770   0.970  11.776 -0.3561  0.1466 -0.0359
 5730W        W21914  11.196   5.495  13.586  0.4129 -0.0763  0.3029
 5731W        W21915  16.121  11.088   3.845  0.0967  0.0877 -0.0762
 5732W        W21916   7.441  14.930   1.850  0.0415  0.0792 -0.2037
 5733W        W21917  16.578   9.752  12.035 -0.1107  0.0758 -0.1671
 5734W        W21918   1.987   0.437   1.029  0.4500  0.2702  0.0002
 5735W        W21919   2.995  19.218   2.753  0.0748 -0.2096 -0.0753
 5736W        W21920  18.467  15.617   0.655 -0.0628  0.1079 -0.0760
 5737W        W21921  10.083  16.353  12.204 -0.0354 -0.1414  0.3155
 5738W        W21922  10.031   8.152  12.605  0.0644 -0.0422  0.0139
 5739W        W21923   5.342   7.915  11.471  0.0447 -0.3490  0.1094
 5740W        W21924  16.805   6.566  10.022  0.2904 -0.1574  0.1349
 5741W        W21925  18.712  12.821   4.851  0.3675 -0.0898  0.1907
 5742W        W21926  15.194   8.120  13.549  0.0985 -0.1737 -0.0296
 5743W        W21927  11.113  19.135   1.849  0.0354 -0.3224 -0.0106
 5744W        W21928  17.964   0.549   1.817 -0.0027  0.1812 -0.1854
 5745W        W21929  16.125   2.038  11.822  0.0794 -0.3305 -0.0099
 5746W        W21930  14.221   3.681   0.146 -0.0758 -0.1116 -0.1103
 5747W        W21931   7.924   0.500  13.090 -0.1843  0.0793  0.0634
 5748W        W21932  18.607  12.707   1.905 -0.1069 -0.2065  0.2095
 5749W        W21933  17.578   1.506   0.119  0.2558  0.1468 -0.0052
 5750W        W21934  12.989   1.839   3.745  0.1733 -0.2823  0.1178
 5751W        W21935  13.262  15.378  10.705  0.0588  0.0737 -0.1126
 5752W        W21936   4.470  13.987   0.557 -0.2541  0.0071 -0.2825
 5753W        W21937   9.659  18.962  10.355  0.2350  0.1572 -0.0143
 5754W        W21938   2.358   7.202  10.527 -0.2415  0.3496 -0.1374
 5755W        W21939  14.076  15.783  11.942  0.1319 -0.1480 -0.1265
 5756W        W21940  10.127  11.407  13.564 -0.0494 -0.3230 -0.0757
 5757W        W21941   2.781   7.781  13.813 -0.2162 -0.1962 -0.1555
 5758W        W21942   8.915  14.080  13.471  0.1575 -0.1451  0.1452
 5759W        W21943  10.071   8.182  10.803  0.0691  0.1760 -0.1755
 5760W        W21944  16.072   1.760  14.911  0.3208 -0.1562  0.1381
 5761W        W21945  17.925  18.395  12.758  0.2082  0.4283  0.0686
 5762W        W21946   6.275   2.244   1.819 -0.3670  0.0163 -0.1381
 5763W        W21947  16.103  17.467   2.728  0.0497 -0.1666 -0.3505
 5764W        W21948  16.247   0.801  12.958 -0.1525 -0.0323  0.1558
 5765W        W21949   5.670   5.318   2.552 -0.3489  0.3649  0.3461
 5766W        W21950  15.785   5.383   1.847  0.3009 -0.1358  0.2183
 5767W        W21951   1.776   4.964   4.420  0.2401 -0.1160  0.0461
 5768W        W21952  15.250   9.685   1.588 -0.1524  0.0920 -0.1409
 5769W        W21953  12.540  17.223   9.800  0.3291 -0.0248  0.0456
 5770W        W21954   6.312  10.859  12.812  0.0952  0.0132 -0.0006
 5771W        W21955  18.226   3.710   3.083  0.1219  0.1016 -0.2731
 5772W        W21956  11.492   1.789   4.946  0.0620 -0.2681 -0.2234
 5773W        W21957   0.342   1.813   2.507  0.0199 -0.0477 -0.2082
 5774W        W21958   3.966   2.621   3.022 -0.2320 -0.1102 -0.1908
 5775W        W21959   1.280  10.547   0.099 -0.0181  0.3061  0.0113
 5776W        W21960  11.235   8.081   2.210  0.1108 -0.2252  0.0552
 5777W        W21961   6.289  12.263  14.665  0.2071 -0.0141  0.2658
 5778W        W21962   9.849  14.389  13.224 -0.0548  0.1701  0.0288
 5779W        W21963  18.152  15.120  14.481  0.0523  0.0667 -0.0038
 5780W        W21964   1.909  15.852   0.996 -0.1932 -0.0575  0.1341
 5781W        W21965   0.820  12.202  12.096  0.0897 -0.0128 -0.0481
 5782W        W21966  12.887   3.525  12.329 -0.1134 -0.3269  0.0124
 5783W        W21967   3.869  17.841   2.954 -0.0237  0.2697  0.0288
 5784W        W21968   9.417  14.287  10.768 -0.0202  0.0219  0.3111
 5785W        W21969  12.513   8.070  14.973 -0.0143  0.0390 -0.0409
 5786W        W21970  15.112   6.465  10.224  0.1339 -0.0236 -0.2161
 5787W        W21971   4.445   7.030  12.512 -0.0044  0.1674 -0.1299
 5788W        W21972  16.154  18.197   3.687 -0.1757  0.4091 -0.3211
 5789W        W21973   4.200   8.749  13.493  0.5148 -0.0753 -0.0282
 5790W        W21974  19.096   7.247   4.393 -0.0258 -0.0392 -0.0474
 5791W        W21975   7.231   9.400  14.294  0.0489  0.1207 -0.1474
 5792W        W21976   6.703   8.591   1.162  0.4551  0.0599  0.0930
 5793W        W21977   3.720   0.237  14.743 -0.0882 -0.1426 -0.1606
 5794W        W21978   6.065   4.227  13.629 -0.1103  0.0154 -0.1912
 5795W        W21979   7.421  11.447   3.693 -0.2707  0.2216  0.0561
 5796W        W21980  15.298   2.561   2.746  0.1070  0.1638 -0.1094
 5797W        W21981  14.826   2.801   0.763 -0.0452 -0.1718  0.0517
 5798W        W21982  19.314   0.021  13.949  0.2490 -0.0529  0.1292
 5799W        W21983   0.294  13.057  13.634 -0.0238  0.1369 -0.0727
 5800W        W21984   8.214  19.030  11.976 -0.5918 -0.0944 -0.4284
 5801W        W21985  19.143  16.925   5.043 -0.2227  0.0134  0.0625
 5802W        W21986  12.923  10.572  13.545 -0.0698  0.3188  0.1418
 5803W        W21987   7.137   1.873   1.618 -0.0199  0.0994 -0.0781
 5804W        W21988  16.953  14.045  11.558 -0.0914  0.0620  0.2893
 5805W        W21989  13.148   0.172   1.011  0.2066  0.0612  0.1972
 5806W        W21990   4.863   2.738  13.987  0.1441  0.1542 -0.0506
 5807W        W21991   9.082   3.667  10.462 -0.2852 -0.0865 -0.2522
 5808W        W21992  10.749   6.360  13.548  0.0160 -0.0506  0.0852
 5809W        W21993  13.315   9.030   4.727 -0.0543 -0.0443  0.4050
 5810W        W21994   1.284   1.061  12.922  0.1021 -0.3215 -0.0164
 5811W        W21995   4.328  19.034   0.050 -0.1582  0.2127  0.1653
 5812W        W21996   5.163  15.827  13.722 -0.0209  0.2195 -0.0097
 5813W        W21997   2.742   5.526   1.529  0.1181 -0.2082 -0.0833
 5814W        W21998  14.625  17.314   5.002 -0.2333 -0.0744 -0.0777
 5815W        W21999   1.541   2.521   0.744 -0.1769  0.1085  0.1132
 5816W        W22000   6.174   9.929   0.458  0.1577 -0.2897  0.2050
 5817W        W22001  15.378   3.773   1.338  0.0366  0.0992 -0.2645
 5818W        W22002   3.171  12.195   4.788  0.1587 -0.3361  0.1875
 5819W        W22003   2.068  17.301  13.061 -0.0190  0.4168 -0.0191
 5820W        W22004   1.332   3.020  12.054 -0.1407  0.1086  0.4138
 5821W        W22005  18.140   6.642  10.451  0.1061 -0.1125  0.4206
 5822W        W22006   6.612  13.396   1.617 -0.0262  0.1955  0.2930
 5823W        W22007  12.731  13.430  13.285 -0.1332  0.2378  0.1849
 5824W        W22008  16.403  15.720   1.627  0.1102  0.0424 -0.1745
 5825W        W22009  18.610  15.717   3.094  0.0028 -0.0739 -0.0147
 5826W        W22010   3.991   4.551  14.604  0.1099 -0.2411 -0.3686
 5827W        W22011   1.974   7.605   5.142  0.1242  0.4844 -0.3098
 5828W        W22012   3.778  15.780   1.190 -0.0458 -0.1273  0.1910
 5829W        W22013   0.248  13.018   2.210  0.2211 -0.2154 -0.0086
 5830W        W22014   0.743  15.398   0.591 -0.3474 -0.4036 -0.3874
 5831W        W22015   4.610   8.770   4.226 -0.1864 -0.1360 -0.1027
 5832W        W22016  17.916   8.783   0.302  0.0952 -0.4366  0.1264
 5833W        W22017   1.838  10.854   5.491  0.1973  0.1788 -0.0529
 5834W        W22018  17.025   4.468  12.320  0.2711  0.1909  0.1807
 5835W        W22019  17.687  19.036   9.207 -0.2305 -0.0864 -0.3878
 5836W        W22020   4.647   8.632  11.465  0.5117 -0.0787 -0.2929
 5837W        W22021  10.700   5.045   0.389  0.0139 -0.3936  0.2366
 5838W        W22022  14.195  13.369   1.875 -0.1199 -0.1026 -0.1892
 5839W        W22023  16.000   3.037  12.996  0.3297 -0.1051  0.2944
 5840W        W22024  12.442   0.481  12.466 -0.1643  0.2037  0.1384
 5841W        W22025  18.706  14.388   4.038  0.0387  0.0716 -0.0217
 5842W        W22026   2.199  19.327   3.350  0.2341  0.1327 -0.0616
 5843W        W22027   1.296   1.797  13.888  0.3095  0.1561  0.0271
 5844W        W22028  16.499   7.491   0.402  0.1068  0.0722 -0.2462
 5845W        W22029   1.400   9.024  11.769 -0.4654 -0.0321 -0.3753
 5846W        W22030  19.254   8.592  11.375  0.0650  0.2511  0.2046
 5847W        W22031  12.473   9.580  12.609  0.1132 -0.0186  0.7771
 5848W        W22032   6.683   5.001   1.722 -0.0406  0.2623 -0.0811
 5849W        W22033   7.570   7.511   0.526 -0.0015 -0.2628 -0.0999
 5850W        W22034  17.018   2.975  11.112  0.1458 -0.2370 -0.2033
 5851W        W22035   7.034  12.925   0.384  0.1098  0.1606 -0.0642
 5852W        W22036  13.151  14.384  10.761  0.3884 -0.0647  0.3900
 5853W        W22037   3.742   4.493  13.203 -0.1776  0.2719  0.0447
 5854W        W22038  17.445  11.155  11.493 -0.0507  0.0426  0.1134
 5855W        W22039  17.348  14.149   4.593  0.1965  0.1489 -0.1509
 5856W        W22040  16.879   2.756   1.804  0.2619  0.4869  0.0834
 5857W        W22041   6.579  13.652   2.605  0.0591  0.0430 -0.3220
 5858W        W22042  19.327   3.146  10.981  0.0564  0.2602  0.0570
 5859W        W22043   4.057  11.820  13.339  0.0377  0.1189 -0.1121
 5860W        W22044  15.693   5.428  11.147  0.2597  0.0513  0.0274
 5861W        W22045   5.387  12.817   0.791 -0.0885 -0.2006 -0.2065
 5862W        W22046  14.661  12.493   3.667  0.1764 -0.0901  0.1343
 5863W        W22047  15.953   6.602   1.165  0.0989  0.1294  0.0714
 5864W        W22048  18.512   4.097  14.642 -0.1893 -0.4364  0.1068
 5865W        W22049  17.148  14.404   5.258  0.1555  0.1218  0.0225
 5866W        W22050  18.766  14.807   4.402  0.0582  0.2557  0.2675
 5867W        W22051   1.618   5.966  14.806 -0.2745  0.2451  0.1808
 5868W        W22052  10.746  18.710   3.145 -0.0123 -0.1081  0.0618
 5869W        W22053  11.900   2.570   1.121  0.0439 -0.1590 -0.2666
 5870W        W22054  17.047   6.778  14.842 -0.2105  0.2993 -0.3544
 5871W        W22055   3.505  14.549   4.172  0.2515  0.0485  0.2371
 5872W        W22056   0.725  10.346  10.600  0.0069  0.2038  0.1351
 5873W        W22057  10.844   0.269   0.312 -0.0888 -0.1052 -0.1532
 5874W        W22058  17.489  13.095   2.188 -0.1043 -0.2585  0.2727
 5875W        W22059  17.316  14.847   4.297  0.5534 -0.1245 -0.1281
 5876W        W22060  16.598  10.120   0.390  0.0727 -0.1806  0.0225
 5877W        W22061   4.954   8.515  11.943 -0.0788 -0.2187 -0.2295
 5878W        W22062  16.929   6.887  10.453  0.0817  0.0656 -0.0960
 5879W        W22063  13.113  14.713  11.708 -0.1312 -0.2087 -0.5828
 5880W        W22064  15.801   9.392  11.501 -0.0359 -0.0869 -0.1435
 5881W        W22065   6.173  16.721   1.921 -0.2548 -0.2950  0.1717
 5882W        W22066  11.630   4.383  14.137  0.0950 -0.1607  0.1928
 5883W        W22067   9.649   7.736   3.450  0.0747  0.1073  0.0873
 5884W        W22068  11.129   4.357   0.867 -0.1973  0.0637 -0.0430
 5885W        W22069  11.030  17.857   2.929  0.0177 -0.0846 -0.1417
 5886W        W22070  10.451  18.541  12.706 -0.0461  0.1858 -0.0572
 5887W        W22071  19.284  14.063  10.993 -0.1757  0.1901  0.2933
 5888W        W22072   9.886  12.985   4.624 -0.2698 -0.0078 -0.3202
 5889W        W22073   3.549  14.240  14.813  0.2320  0.1172 -0.0249
 5890W        W22074  12.936   5.877  14.783  0.2371 -0.1847 -0.2646
 5891W        W22075  17.106  15.294   2.753 -0.4017 -0.0631  0.1445
 5892W        W22076   9.514  13.444  11.130  0.0609  0.2512 -0.1761
 5893W        W22077  14.400  16.579   0.376  0.1940  0.2066  0.0881
 5894W        W22078  12.346  16.755   2.582  0.3813  0.3351  0.0266
 5895W        W22079  16.092  15.170   1.445 -0.1746 -0.0911 -0.1951
 5896W        W22080   6.297  17.868  12.519 -0.0919 -0.0587 -0.0940
 5897W        W22081   9.691   7.197   1.412  0.1496  0.2335 -0.2852
 5898W        W22082   8.575  13.218  13.927 -0.1082  0.2492 -0.0201
 5899W        W22083   0.419  10.626  10.971 -0.3141  0.2341 -0.1016
 5900W        W22084  18.423   8.762  13.174 -0.2212  0.0754  0.0316
 5901W        W22085  12.574   1.290  11.018 -0.2482 -0.3426  0.1502
 5902W        W22086  13.150  11.069   4.434  0.2217  0.2327 -0.4136
 5903W        W22087  10.508  11.512   1.662 -0.2331  0.1035 -0.0109
 5904W        W22088   6.972  17.737  14.280 -0.1687  0.1237 -0.2375
 5905W        W22089  11.174   7.226  13.819 -0.0279  0.0004 -0.4368
 5906W        W22090  15.899   8.753  14.874 -0.2934  0.0335  0.1726
 5907W        W22091  18.914   1.954   1.007 -0.2580 -0.1550  0.3364
 5908W        W22092  19.132   4.555   2.969  0.0435  0.3313 -0.0780
 5909W        W22093  12.943   7.422   0.281  0.1178  0.1145  0.1596
 5910W        W22094   2.545   2.714  13.032  0.3580 -0.1346  0.2208
 5911W        W22095   3.457   8.802  10.704 -0.3186  0.1182  0.1954
 5912W        W22096   9.370   6.787  14.214 -0.0228  0.2619 -0.0415
 5913W        W22097   4.682  15.011   1.858 -0.0946 -0.0212  0.2521
 5914W        W22098  14.133  12.870   0.030 -0.2654  0.0410  0.0848
 5915W        W22099   1.881   4.280  10.486  0.0390 -0.2409 -0.0617
 5916W        W22100  14.142   2.807   4.042 -0.3264 -0.1436 -0.0323
 5917W        W22101   6.929   0.700  11.606  0.2388  0.0582 -0.0650
 5918W        W22102  15.077   1.143  12.527 -0.2443 -0.1147 -0.1066
 5919W        W22103  17.861   8.582  11.015  0.0342 -0.0470 -0.2174
 5920W        W22104   7.453  16.898  14.232 -0.1092 -0.0036  0.1680
 5921W        W22105  15.327   4.745  13.584  0.1794  0.3029 -0.0883
 5922W        W22106  12.779  13.714   4.380 -0.0326  0.5112  0.1778
 5923W        W22107   6.245  11.952  11.700 -0.1303  0.0366  0.1047
 5924W        W22108   8.593   8.992   4.077 -0.2919  0.2088  0.1908
 5925W        W22109  15.320  17.793  14.723 -0.0266  0.0661 -0.1533
 5926W        W22110  17.282   1.844  13.919  0.0274 -0.0605 -0.1751
 5927W        W22111   9.864  12.690   2.028 -0.0878 -0.0914 -0.2965
 5928W        W22112  15.165   7.644   2.424 -0.3381  0.1934  0.0962
 5929W        W22113  18.618   0.630   3.291 -0.0836  0.0183 -0.3427
 5930W        W22114   4.501   5.861  10.826  0.2517 -0.0088  0.0925
 5931W        W22115   9.411   8.306  14.781  0.2626  0.0427  0.0990
 5932W        W22116   2.206  18.308  12.299  0.2030  0.2995  0.0140
 5933W        W22117  13.234  10.759  12.328  0.1798  0.1571 -0.2805
 5934W        W22118  16.028  16.972  12.180 -0.0701  0.0941  0.2028
 5935W        W22119   4.814   2.278  10.704 -0.1122 -0.2196  0.0510
 5936W        W22120  14.347   3.492  14.665  0.2896  0.0336 -0.2542
 5937W        W22121  14.761  13.178   0.321 -0.2013  0.2339  0.1621
 5938W        W22122   4.811   3.064  14.475  0.0814  0.3142 -0.0766
 5939W        W22123  15.729   7.229  10.375  0.0943 -0.1685 -0.0222
 5940W        W22124   9.270  14.620   0.091  0.1430  0.3246 -0.5014
 5941W        W22125  17.609   1.758   4.190 -0.2695  0.1073 -0.0115
 5942W        W22126   2.071  17.856  11.390  0.0866 -0.2213 -0.1971
 5943W        W22127  18.236  13.521   4.479  0.2217 -0.1990 -0.2937
 5944W        W22128  10.285   4.440   0.117  0.2122  0.0713  0.1044
 5945W        W22129  17.514  10.924  10.855 -0.0028  0.2146 -0.1005
 5946W        W22130  13.584  13.540  12.265 -0.1350  0.0685  0.0132
 5947W        W22131  19.344   2.689   2.632 -0.2916 -0.2466  0.1059
 5948W        W22132  18.893   8.902   3.793  0.0787 -0.0840 -0.2342
 5949W        W22133  16.946   9.946   4.967  0.3975 -0.3864 -0.0284
 5950W        W22134   9.808  13.550   0.769 -0.1499 -0.1165 -0.0054
 5951W        W22135   6.697   9.373   3.811 -0.0454  0.0212  0.1345
 5952W        W22136   0.083  16.493   4.785 -0.1275  0.1738  0.6578
 5953W        W22137  14.145   2.304  13.256  0.3805  0.2446 -0.0242
 5954W        W22138   9.914   8.881  11.000 -0.1408  0.0738  0.2184
 5955W        W22139  15.265   8.691  13.806  0.2971 -0.0124 -0.0840
 5956W        W22140  11.749  16.715  13.587 -0.1016  0.3116  0.1413
 5957W        W22141  13.657   3.088   0.820  0.1051 -0.1610  0.3089
 5958W        W22142   0.539   2.806   0.551  0.2490 -0.0495  0.3425
 5959W        W22143  18.090  15.421  11.351  0.2088 -0.1817 -0.4317
 5960W        W22144   0.319  12.444   4.027  0.1396  0.3261 -0.3723
 5961W        W22145  12.043   9.792   4.681  0.0221  0.1102 -0.0129
 5962W        W22146  17.128   1.950  14.393 -0.1223  0.3232  0.0238
 5963W        W22147  14.674  13.772  14.965 -0.3297  0.1099 -0.3742
 5964W        W22148   6.810  14.433   0.288  0.0826  0.0824  0.0348
 5965W        W22149   6.439   8.083  11.966 -0.1474  0.2891  0.1781
 5966W        W22150  15.855   0.428  14.849  0.2298 -0.3499 -0.0740
 5967W        W22151  16.435   3.247   0.806 -0.1560  0.0738  0.0640
 5968W        W22152   0.987  17.299  12.193  0.0510  0.2777 -0.3683
 5969W        W22153   4.923   8.194  11.560 -0.1381 -0.5858  0.0311
 5970W        W22154  15.111  10.045   9.499  0.0830  0.1240  0.1117
 5971W        W22155   6.416   0.966   2.442  0.1481  0.0589 -0.0143
 5972W        W22156  15.506   3.165  12.894 -0.0367  0.1426  0.2698
 5973W        W22157  15.105   9.028  12.804 -0.0402  0.2593  0.1414
 5974W        W22158  16.944   9.212   1.034  0.0362  0.2313  0.0410
 5975W        W22159  13.204   8.119   2.710  0.0630  0.0223 -0.2024
 5976W        W22160   1.132  14.986  13.418 -0.2693 -0.0487  0.0381
 5977W        W22161  16.983   4.970  12.051  0.4444 -0.0069  0.0485
 5978W        W22162   3.328   3.061   0.965  0.1164  0.0469 -0.2154
 5979W        W22163   4.550   0.828   0.621 -0.0165  0.0496 -0.1425
 5980W        W22164   8.558   1.510  12.566  0.3529 -0.1511 -0.0235
 5981W        W22165  18.428  12.973   3.663  0.2712 -0.2785  0.6613
 5982W        W22166  16.344  16.701   0.159  0.1234  0.3553 -0.1329
 5983W        W22167   1.758   8.200   9.567 -0.0489 -0.1060 -0.1106
 5984W        W22168   0.891   4.739  13.183 -0.1632 -0.5552 -0.0615
 5985W        W22169   2.214   5.866   2.663 -0.0982 -0.1445  0.1156
 5986W        W22170  15.971  13.361  14.588 -0.1160 -0.0516  0.3287
 5987W        W22171   1.631  10.200  13.321  0.0148  0.2641 -0.0736
 5988W        W22172  16.345  11.891   0.254 -0.1306  0.0459  0.0146
 5989W        W22173   9.811  13.814   4.407  0.0129 -0.1961  0.2510
 5990W        W22174   6.452   6.359  12.683 -0.0236 -0.2303  0.1732
 5991W        W22175   0.628  12.666   5.166  0.1593 -0.1725  0.3184
 5992W        W22176  15.042  15.786  11.540 -0.1266 -0.0272  0.0633
 5993W        W22177  16.948   6.195  11.144 -0.1758  0.1768  0.1302
 5994W        W22178  13.084  13.750  12.925  0.0374  0.0326 -0.0946
 5995W        W22179   6.559   0.236  11.519 -0.1840 -0.1619 -0.0034
 5996W        W22180  12.161   9.493  13.779  0.2658  0.1415  0.1333
 5997W        W22181   3.999   7.249  12.640  0.2118 -0.3300 -0.1921
 5998W        W22182   8.282   4.905   2.685  0.1418 -0.0010  0.1465
 5999W        W22183  12.391  16.623   3.080 -0.0822  0.0609 -0.1553
 6000W        W22184  15.428  15.355  14.553  0.3325 -0.1607 -0.1120
 6001W        W22185   4.350   5.360  10.891 -0.1639  0.0666  0.1387
 6002W        W22186   1.328   5.632  13.152  0.0173  0.0792 -0.1853
 6003W        W22187   5.063   1.687  10.493  0.0430 -0.0060  0.2240
 6004W        W22188   7.189  15.920  13.117  0.1095  0.0119 -0.2180
 6005W        W22189  18.509   7.024   1.292 -0.1304 -0.1610 -0.2384
 6006W        W22190   7.364   3.046   3.294  0.0071 -0.0057  0.2896
 6007W        W22191  10.880  14.111  10.948 -0.0081  0.1930  0.1646
 6008W        W22192   5.719   9.288  14.613  0.3409  0.0088 -0.1955
 6009W        W22193  12.743  16.954  13.437  0.1200 -0.1972 -0.2965
 6010W        W22194   5.465  10.280   5.356  0.1818 -0.1870  0.0799
 6011W        W22195   1.259  17.012   1.430 -0.0397 -0.2406  0.2086
 6012W        W22196   1.299   4.656   0.151  0.2028 -0.2042 -0.1039
 6013W        W22197  12.698  18.335   5.008  0.0089  0.6342 -0.1486
 6014W        W22198  13.706  18.305  14.748  0.1874 -0.0002  0.5506
 6015W        W22199  16.438   6.906   4.932 -0.1057 -0.2859  0.1740
 6016W        W22200   4.861   4.001  12.607  0.0471  0.2139 -0.1112
 6017W        W22201   9.257  17.821  13.697  0.0367  0.1882 -0.0308
 6018W        W22202   4.377   9.967   1.366 -0.0205 -0.3039 -0.0217
 6019W        W22203  15.228  12.494   3.644  0.1516  0.1650  0.2465
 6020W        W22204   6.974   3.243  13.925  0.1850 -0.1236  0.0903
 6021W        W22205  18.980   1.120  11.843 -0.2127 -0.0908  0.1485
 6022W        W22206   2.000   3.330  14.692  0.0709  0.0531  0.1921
 6023W        W22207  13.137  15.336   2.669  0.0413  0.0564  0.3130
 6024W        W22208  11.624   2.487   3.640 -0.0253 -0.0739 -0.0554
 6025W        W22209   8.784   7.290   2.236 -0.0061  0.2298 -0.2732
 6026W        W22210  16.396  16.697   1.119  0.0468  0.0959 -0.0973
 6027W        W22211  15.693  13.236   4.475  0.1148  0.1649 -0.0144
 6028W        W22212  16.110   3.312   1.454 -0.0041 -0.1188  0.0689
 6029W        W22213   4.039  13.784  12.885  0.0670  0.1558 -0.0303
 6030W        W22214   7.916  11.204   4.003 -0.0993  0.1304  0.1151
 6031W        W22215   3.318  10.175  14.904  0.2347 -0.1096 -0.1652
 6032W        W22216  19.200   7.063   3.911  0.2683 -0.1999  0.1491
 6033W        W22217  13.365  10.914   1.550  0.0190  0.2020  0.1272
 6034W        W22218   7.015   4.162   3.155  0.0310  0.0323 -0.0696
 6035W        W22219  12.861  13.185   0.083 -0.1634  0.2627  0.2913
 6036W        W22220   2.768  11.138   1.157  0.1329  0.1468  0.1850
 6037W        W22221  10.707   2.068   3.220  0.3477 -0.1292 -0.2070
 6038W        W22222  18.281  13.104   1.379 -0.1475  0.1013 -0.0199
 6039W        W22223   0.645  10.265   4.713 -0.0409  0.0011 -0.0992
 6040W        W22224   3.320  14.819   0.152  0.2853 -0.0762 -0.0493
 6041W        W22225  17.423  11.685   2.872 -0.5313 -0.1539  0.0907
 6042W        W22226  10.509  15.500  14.670 -0.0536 -0.1544  0.0497
 6043W        W22227   1.724   4.468  13.379 -0.2945  0.0043 -0.0228
 6044W        W22228  19.154   8.407   1.182  0.0190 -0.0820 -0.3566
 6045W        W22229  13.180   6.413   2.014 -0.0161  0.2429 -0.1735
 6046W        W22230  16.659   4.064  10.815  0.1050  0.2768 -0.0963
 6047W        W22231   3.673  10.883  10.437 -0.0576 -0.2983  0.3289
 6048W        W22232  18.088   0.587   2.305  0.1012 -0.0640  0.0032
 6049W        W22233  11.560   7.104   3.513  0.1781  0.2057 -0.2883
 6050W        W22234   4.373  15.272   2.756 -0.3509  0.0497 -0.0052
 6051W        W22235   4.784   3.507   1.040 -0.6822  0.1143  0.0880
 6052W        W22236   5.075  10.000   4.816  0.2259 -0.0017 -0.0132
 6053W        W22237   2.838   0.006   9.596  0.0943  0.0432 -0.2270
 6054W        W22238  10.600  10.437  13.692  0.2493  0.1144 -0.1010
 6055W        W22239   9.968  15.795  14.610  0.0127  0.0596  0.1047
 6056W        W22240  16.779  18.014   2.818  0.0626 -0.1752  0.2464
 6057W        W22241  17.826  15.346   2.928  0.3062  0.0355 -0.1512
 6058W        W22242  18.338   3.068  11.847 -0.3841  0.1927  0.0777
 6059W        W22243  18.920   9.554  12.607  0.2688 -0.3291  0.2607
 6060W        W22244  13.218   5.513   0.129  0.3071  0.2515 -0.1686
 6061W        W22245  11.090   4.168  13.884  0.0861  0.2184  0.2380
 6062W        W22246  13.720  12.312  11.536  0.1268 -0.0790 -0.3512
 6063W        W22247   0.380  11.728   9.842  0.2987  0.0232 -0.0298
 6064W        W22248  11.936   2.646   3.291 -0.0912 -0.1119 -0.3079
 6065W        W22249   5.129  17.134  13.223  0.0844 -0.1212  0.3654
 6066W        W22250  13.612   4.186  14.669  0.5711 -0.0696  0.1696
 6067W        W22251   5.576  19.091   3.165  0.2067 -0.4713 -0.1385
 6068W        W22252  11.435   3.622   1.606  0.1161  0.1043 -0.1253
 6069W        W22253  17.406   6.361  13.530 -0.2309  0.1003  0.1595
 6070W        W22254  18.715   8.989  14.618  0.3608  0.2628  0.3105
 6071W        W22255   4.329   1.374   3.296  0.0346 -0.0308  0.4067
 6072W        W22256   9.359  17.687  10.812 -0.2454  0.1016  0.1763
 6073W        W22257  12.025   2.785   5.567  0.2338  0.2710  0.0082
 6074W        W22258   5.203   1.638  11.326  0.2438 -0.1302  0.0056
 6075W        W22259   9.363  17.922  11.206 -0.1665 -0.3660  0.0333
 6076W        W22260   0.100   6.565  10.682 -0.2545 -0.2213  0.0350
 6077W        W22261   0.634  15.820   2.435  0.2899 -0.3934  0.2833
 6078W        W22262   8.817   6.426  11.158  0.3404  0.2393  0.1201
 6079W        W22263   3.832  16.953  11.950 -0.2406  0.0139  0.2496
 6080W        W22264   9.638  13.123   0.493  0.1488  0.0973  0.1443
 6081W        W22265   4.802   3.677  14.537 -0.1622 -0.1145  0.5041
 6082W        W22266   1.969   4.588   3.106  0.0131 -0.1646 -0.0608
 6083W        W22267  18.486   8.392  13.828 -0.0021 -0.0407 -0.1303
 6084W        W22268  14.974   6.695   2.588  0.5727  0.3502  0.0351
 6085W        W22269   1.890   3.081   4.176  0.1751 -0.0842  0.1134
 6086W        W22270  10.225   4.783   1.387  0.1641  0.0954 -0.1156
 6087W        W22271  18.532  10.785   1.463 -0.3008 -0.0670  0.2471
 6088W        W22272   2.236   0.182  14.639 -0.0087  0.0057 -0.4822
 6089W        W22273   0.623   2.990  10.438  0.0404  0.1622 -0.1554
 6090W        W22274  18.885  15.513  11.896  0.3518  0.1171 -0.0663
 6091W        W22275  15.772  18.575   4.972  0.0427 -0.1853 -0.0279
 6092W        W22276   6.015  14.855   9.468 -0.1540  0.0251 -0.2271
 6093W        W22277  12.809   3.261   5.053  0.3050 -0.2618  0.0459
 6094W        W22278   2.256  16.435  14.633 -0.0087  0.0038 -0.1917
 6095W        W22279   7.279   3.419  14.415 -0.0401 -0.3642 -0.0243
 6096W        W22280  18.081   0.468  10.493  0.1462 -0.0720  0.0690
 6097W        W22281   8.430  13.173   3.562  0.3265  0.1851 -0.0255
 6098W        W22282   4.422   9.072  12.680 -0.0992  0.1691  0.0329
 6099W        W22283  14.322   2.747  11.423  0.0391 -0.1125  0.0173
 6100W        W22284   4.986  16.618  11.291  0.3592  0.2451 -0.2175
 6101W        W22285   8.816  14.739   4.863 -0.1358  0.0877 -0.3436
 6102W        W22286  19.228  18.044  11.547 -0.2018  0.0062 -0.2214
 6103W        W22287   9.040   8.676  11.537  0.0155 -0.4308  0.0611
 6104W        W22288  19.139   9.960  11.973  0.1250 -0.0681 -0.4674
 6105W        W22289   8.459   2.724  11.202  0.0667  0.2872 -0.2659
 6106W        W22290   9.715   0.161   0.759  0.2086 -0.0844  0.2780
 6107W        W22291  17.375  10.574   0.810 -0.0628  0.4115  0.4752
 6108W        W22292   2.302   0.061   4.313 -0.0056 -0.1095  0.2373
 6109W        W22293   0.845  15.748   5.444  0.2140 -0.1631  0.2015
 6110W        W22294  15.132  13.157  14.157  0.1625 -0.0950  0.1171
 6111W        W22295   3.577  16.969  14.868 -0.0333  0.0346 -0.0515
 6112W        W22296  10.640   2.095   1.522  0.0271 -0.0505 -0.2842
 6113W        W22297   6.263  10.089   1.709 -0.0523 -0.1299  0.2084
 6114W        W22298   5.920  10.809   1.026 -0.1163 -0.1045 -0.0652
 6115W        W22299   2.382   6.081   0.801  0.1859 -0.0829  0.1119
 6116W        W22300   4.975   8.290  10.474 -0.1138  0.1480  0.3392
 6117W        W22301   4.634  18.753  10.868  0.1265 -0.0727  0.0605
 6118W        W22302  17.258  12.009   2.393 -0.3406 -0.1302  0.1763
 6119W        W22303   6.154   7.675  10.395 -0.0158 -0.1758 -0.1138
 6120W        W22304  19.216   3.839   4.196  0.1799  0.1438  0.4706
 6121W        W22305   0.421   5.283  13.777  0.3178 -0.0938 -0.1465
 6122W        W22306  11.503   1.817  14.844  0.0235 -0.0377  0.1207
 6123W        W22307   3.473   4.826   2.079 -0.0083 -0.2755  0.0321
 6124W        W22308  16.775  15.603   2.999 -0.1706  0.0187 -0.0284
 6125W        W22309   6.335  13.559  12.773  0.0623  0.0415 -0.1086
 6126W        W22310   5.657   8.612  14.018  0.2311  0.0861  0.0837
 6127W        W22311   9.696  11.502  13.045 -0.2923 -0.0592 -0.1454
 6128W        W22312  13.522   0.345  10.552  0.0276 -0.0967  0.1658
 6129W        W22313   9.834   1.916  13.649  0.3726 -0.0728 -0.1438
 6130W        W22314  16.933  12.931   2.225  0.0166  0.2868 -0.0639
 6131W        W22315   7.302   3.279   1.992  0.1823  0.2785  0.0043
 6132W        W22316  17.156  10.399   1.270  0.0418 -0.1786  0.2729
 6133W        W22317   3.171  14.289   1.001  0.0017 -0.1036  0.1438
 6134W        W22318  13.685  16.386   1.363 -0.1030 -0.1731 -0.1651
 6135W        W22319  14.809  15.855  14.163  0.4315 -0.1674  0.0479
 6136W        W22320  15.236   0.668  10.771 -0.1740  0.0246  0.1572
 6137W        W22321   8.720   8.807   0.031  0.0312  0.0172  0.1374
 6138W        W22322   5.262   3.859   9.845  0.1168 -0.1960  0.1332
 6139W        W22323  13.240  13.685   4.777  0.1797 -0.2149 -0.3638
 6140W        W22324  13.439  17.583  11.347 -0.1418  0.1285  0.2584
 6141W        W22325  12.406  15.756   4.928 -0.2001  0.0735 -0.0867
 6142W        W22326  12.020  16.880  12.630  0.1617 -0.0329  0.3571
 6143W        W22327   3.946   6.313  10.293  0.0251  0.0411  0.2154
 6144W        W22328   8.391   0.790  13.223  0.0921  0.2918  0.2052
 6145W        W22329   8.209   3.368   1.560 -0.0639  0.0279 -0.0855
 6146W        W22330   2.156  11.638  11.640  0.0552  0.0049  0.2180
 6147W        W22331   7.804   3.927   3.895 -0.1402  0.2700 -0.0667
 6148W        W22332  14.246   9.254   4.190  0.1203 -0.1068 -0.2692
 6149W        W22333   2.191   2.332  14.814  0.1533  0.0562  0.0966
 6150W        W22334   0.818  17.428   3.592 -0.0767  0.1356  0.0085
 6151W        W22335   2.552   6.693  10.691 -0.0931 -0.1420 -0.1137
 6152W        W22336  11.823  11.217   2.749  0.2867 -0.0276  0.2865
 6153W        W22337  11.868   6.667  14.171  0.0448 -0.1174 -0.1255
 6154W        W22338   1.922   5.359   5.560  0.1554  0.1371 -0.0879
 6155W        W22339   0.662   6.333  12.720 -0.2203 -0.3601 -0.1868
 6156W        W22340  19.348   6.099   1.685  0.2133  0.3745 -0.1652
 6157W        W22341   7.758   8.914  11.632 -0.0463 -0.3426 -0.2018
 6158W        W22342   2.129   1.470  14.128 -0.2958  0.1678  0.0049
 6159W        W22343  12.275   6.396   3.219 -0.1301  0.1921 -0.2794
 6160W        W22344   8.569   9.269   0.289 -0.1898  0.0971  0.0882
 6161W        W22345  19.030  10.453  11.816 -0.2018 -0.0327  0.0734
 6162W        W22346   6.432   8.963   3.700 -0.0571 -0.0449 -0.0121
 6163W        W22347  10.844  12.664  10.223 -0.1399 -0.1490  0.0461
 6164W        W22348  18.808  13.619  14.453 -0.0104  0.1509 -0.1157
 6165W        W22349  10.293  19.370  14.141  0.0421 -0.3380  0.0633
 6166W        W22350  13.383   0.968  14.262  0.0317  0.1547 -0.0397
 6167W        W22351   4.577   5.011  10.541  0.0157  0.0590 -0.2588
 6168W        W22352  10.795  13.660  14.411 -0.0725  0.0381  0.1023
 6169W        W22353   8.058   1.357  11.725 -0.0543  0.1700 -0.0937
 6170W        W22354   5.975   5.393  10.446 -0.4318  0.0829 -0.2155
 6171W        W22355   8.117  13.820  12.435  0.4873  0.0190  0.0606
 6172W        W22356   9.999   0.794  14.467  0.0859 -0.0673 -0.1186
 6173W        W22357  16.240   8.531  14.598 -0.0603  0.0064  0.0414
 6174W        W22358  19.043  18.236   0.146  0.0218 -0.0488 -0.0314
 6175W        W22359  15.438  15.281   5.308  0.0817  0.1225 -0.1341
 6176W        W22360  16.349   8.565   1.052  0.3367  0.0021 -0.0404
 6177W        W22361  11.144   8.794   2.266 -0.1408  0.1286 -0.1590
 6178W        W22362  16.097  10.359  14.508 -0.1174 -0.1154  0.0823
 6179W        W22363  10.357   2.922   2.579  0.1031 -0.3354  0.0199
 6180W        W22364  13.940  11.601   5.282  0.1389  0.0903 -0.0907
 6181W        W22365  17.191   6.857  11.320 -0.0590  0.0231 -0.3583
 6182W        W22366  13.197   7.269   0.853 -0.0174  0.0232 -0.2334
 6183W        W22367   2.917  11.661   4.840  0.0751  0.1112 -0.1005
 6184W        W22368   4.843   6.494  12.444 -0.2665 -0.0667  0.0009
 6185W        W22369   3.156  17.388   5.257 -0.3086  0.2345 -0.2485
 6186W        W22370   4.321   2.470   0.037 -0.1365  0.0453 -0.4088
 6187W        W22371   9.209  17.365   2.519 -0.1207 -0.0266  0.0405
 6188W        W22372   7.670   6.804   3.175  0.0828  0.1577 -0.0601
 6189W        W22373   7.495   4.067   1.844  0.0342  0.3547 -0.2841
 6190W        W22374  12.095   2.017  13.016  0.0234 -0.1739 -0.2231
 6191W        W22375   9.298  14.775   2.285  0.0340 -0.1202 -0.3341
 6192W        W22376   9.700  15.197  13.751 -0.2473 -0.0993 -0.1862
 6193W        W22377   8.877  14.921   1.938 -0.0352 -0.0569  0.1270
 6194W        W22378  16.468   2.758  12.071  0.0638 -0.2453 -0.0052
 6195W        W22379  15.583  15.037  10.363  0.3590  0.2067  0.1018
 6196W        W22380   6.496  12.406  11.634 -0.0850  0.1637 -0.2410
 6197W        W22381   7.155  15.267   1.501  0.0864 -0.2230 -0.0342
 6198W        W22382   4.556  12.165  11.129 -0.1079  0.1569 -0.1776
 6199W        W22383   9.730   4.564   0.231  0.2198  0.0683 -0.0538
 6200W        W22384   8.968   0.756  13.840 -0.1507 -0.2240 -0.0245
 6201W        W22385   9.082  14.281   2.877  0.2853  0.0023 -0.1016
 6202W        W22386   7.107  15.957   4.102  0.0531 -0.0853  0.2071
 6203W        W22387   8.743   0.620  10.097 -0.2385  0.0195  0.1440
 6204W        W22388   9.161   9.713   1.189 -0.0466  0.2612 -0.0632
 6205W        W22389   2.686   6.454   3.430  0.2013 -0.1228  0.0120
 6206W        W22390  11.697  10.036   4.402 -0.1382  0.0089 -0.0344
 6207W        W22391   6.506   2.647   9.990 -0.1151 -0.1639  0.1172
 6208W        W22392   1.928   8.569   0.925 -0.0717 -0.0542 -0.2955
 6209W        W22393  17.759   6.817   0.696 -0.0222  0.0089  0.0723
 6210W        W22394  15.298  10.073  10.462  0.1779  0.0605  0.1173
 6211W        W22395   0.860   7.586  12.973 -0.0501 -0.0110 -0.0471
 6212W        W22396  15.968   4.240  14.436 -0.3157 -0.1371  0.2042
 6213W        W22397  12.183  13.825  14.447 -0.1012  0.2099  0.1557
 6214W        W22398   4.632   4.742   0.366  0.1119 -0.0363 -0.0638
 6215W        W22399   2.986   5.206   2.380 -0.0209 -0.0925 -0.3088
 6216W        W22400   0.708  18.863   0.174  0.0570 -0.0389 -0.1265
 6217W        W22401   1.282  10.541  13.447  0.2703 -0.0724 -0.5090
 6218W        W22402   9.885  10.342  12.304  0.0536  0.0765 -0.2018
 6219W        W22403  11.621  15.690   5.271  0.4630 -0.1590 -0.2204
 6220W        W22404   3.028   7.909   4.594 -0.1905  0.2933 -0.0504
 6221W        W22405   6.810   1.936  12.380 -0.2361  0.0397 -0.0270
 6222W        W22406   8.043   7.808  10.767 -0.2413  0.0898 -0.0980
 6223W        W22407   5.656   8.295   3.175 -0.4599 -0.0247  0.1948
 6224W        W22408   5.028  14.174   0.638 -0.2578 -0.2174 -0.2000
 6225W        W22409  15.664  15.980  13.080 -0.1563  0.0614 -0.3286
 6226W        W22410   2.601  11.340   1.840  0.1070  0.1587 -0.2188
 6227W        W22411   5.989   9.013   4.173 -0.0729 -0.1469 -0.3040
 6228W        W22412  12.317  18.341   1.113  0.3719 -0.1091  0.2122
 6229W        W22413   5.005  17.234  12.766  0.0736 -0.1305 -0.1857
 6230W        W22414  11.865  11.176   3.705  0.0911  0.0401 -0.0466
 6231W        W22415   6.033  17.738   4.069  0.2235  0.1929  0.2465
 6232W        W22416  14.302  13.942   0.773 -0.0844 -0.2790 -0.1072
 6233W        W22417   5.938  11.302   1.944 -0.0076  0.0959  0.0051
 6234W        W22418   1.186   8.740   0.177 -0.0844 -0.0978 -0.1045
 6235W        W22419  16.516  18.153  10.836  0.0925 -0.1423 -0.0476
 6236W        W22420   6.528   1.271  13.293 -0.4105 -0.0478 -0.2505
 6237W        W22421  19.104  12.521  14.639 -0.0967 -0.2070 -0.1572
 6238W        W22422  18.202  18.230  11.710 -0.0148 -0.0830 -0.3768
 6239W        W22423   8.018  14.327   4.989  0.1354 -0.0703  0.0196
 6240W        W22424  18.787  12.083  13.859  0.2182 -0.1499  0.1101
 6241W        W22425   7.938  15.173   0.826  0.0165 -0.0890  0.1252
 6242W        W22426   0.429   5.369   0.191  0.1288  0.0831 -0.0929
 6243W        W22427  12.564  15.333   1.270  0.0552 -0.0061 -0.1871
 6244W        W22428  17.386  13.999  12.953 -0.2999 -0.1718 -0.2106
 6245W        W22429   0.693   8.508   4.258  0.2071 -0.3992  0.3789
 6246W        W22430   3.863   8.772   3.859  0.1680  0.1098 -0.1068
 6247W        W22431   2.498   6.069  10.723 -0.3257 -0.0645  0.0199
 6248W        W22432   6.704  11.993  14.434  0.1687 -0.2631  0.4474
 6249W        W22433   8.074   6.832  14.895  0.2241  0.1468  0.3181
 6250W        W22434   7.467   7.681  13.770  0.0830 -0.1376  0.1601
 6251W        W22435  12.542  11.497   3.991  0.1895 -0.1434 -0.3254
 6252W        W22436   8.332   6.693   1.239  0.2317 -0.1226  0.2561
 6253W        W22437   3.320   2.570   5.013  0.1676 -0.2021 -0.0733
 6254W        W22438  12.381   3.882   4.354  0.2300  0.0200 -0.2456
 6255W        W22439  19.198  11.292  11.907  0.1047 -0.0312 -0.0575
 6256W        W22440   3.238   1.509   4.334  0.0865  0.0676  0.2128
 6257W        W22441   2.608  14.498  11.012 -0.2671 -0.0416 -0.2897
 6258W        W22442   9.270  12.791   1.785 -0.0484  0.4101 -0.2671
 6259W        W22443   8.547   7.147   1.360 -0.3064 -0.2132  0.1086
 6260W        W22444  10.640   1.760   0.364  0.2705  0.1068  0.0960
 6261W        W22445   7.041   1.239  13.071  0.2660  0.2880 -0.4583
 6262W        W22446   6.621  14.004   3.324 -0.2019  0.3212 -0.2318
 6263W        W22447   9.997   7.936   3.828 -0.0791  0.0409 -0.1492
 6264W        W22448   4.744   8.322  14.267  0.3488 -0.0495  0.1030
 6265W        W22449  17.583  10.141   2.198  0.1820 -0.0457  0.0379
 6266W        W22450  10.700   3.413  13.422  0.2760  0.3603  0.1812
 6267W        W22451   3.310   3.844  14.265  0.1758  0.0166  0.0021
 6268W        W22452  15.857   2.058  13.572  0.0671  0.2348  0.1939
 6269W        W22453  18.165   0.401  14.907 -0.1877  0.0831  0.1249
 6270W        W22454  14.985  11.013   3.370  0.2116 -0.1597 -0.3725
 6271W        W22455   4.207   1.863  10.501  0.0173  0.3418 -0.1956
 6272W        W22456  12.602  10.223  11.282 -0.2845 -0.3892 -0.0385
 6273W        W22457   3.486   4.264   3.321  0.2049  0.2042  0.1485
 6274W        W22458  10.443   8.666  10.865  0.0917 -0.1993 -0.1866
 6275W        W22459   1.123  14.727  11.797  0.3281 -0.0297 -0.0316
 6276W        W22460   3.285   8.680  11.289 -0.0538  0.1405  0.1815
 6277W        W22461  13.495  10.918   4.725 -0.1229 -0.1363 -0.1755
 6278W        W22462   4.073  16.266   0.394  0.2090 -0.1931  0.0589
 6279W        W22463   9.026   2.592  13.529  0.0146 -0.2015  0.0522
 6280W        W22464   5.907   7.089   0.010 -0.0451 -0.0408  0.4480
 6281W        W22465   6.315   4.041   0.286 -0.2047 -0.1395  0.1154
 6282W        W22466  15.512  19.143  10.557 -0.1515 -0.0375 -0.2242
 6283W        W22467   3.581  11.072  14.651 -0.0467 -0.1746 -0.0291
 6284W        W22468  15.227   5.659  10.273  0.0029  0.1669 -0.0746
 6285W        W22469   5.682  15.860   4.815 -0.0689  0.4993 -0.0315
 6286W        W22470   9.145  18.955  12.687 -0.0205  0.0880  0.1309
 6287W        W22471  12.857  17.570   2.892 -0.0827 -0.1048  0.0068
 6288W        W22472  17.265  15.485   0.306  0.3161  0.2251 -0.0898
 6289W        W22473   5.208   5.367  13.336  0.0043 -0.1366 -0.0822
 6290W        W22474   6.564  12.397   4.555  0.1492 -0.3321  0.1155
 6291W        W22475  18.422   3.888   1.015 -0.1466  0.0298  0.2268
 6292W        W22476  16.396   0.573   4.192  0.1508  0.1156  0.5170
 6293W        W22477   2.778   8.401  13.636 -0.2018 -0.2048 -0.3563
 6294W        W22478  16.867   8.348   3.641 -0.2118 -0.2155  0.0189
 6295W        W22479   3.322  10.777  14.272  0.0114 -0.1855 -0.2721
 6296W        W22480   1.376  19.055   4.659  0.1633 -0.1519  0.0367
 6297W        W22481   7.567   0.276   0.929  0.0900 -0.1827  0.0685
 6298W        W22482   1.659   1.778  12.222  0.0194 -0.1271  0.0985
 6299W        W22483   4.166   8.605  11.585  0.1824  0.1287 -0.3163
 6300W        W22484  14.183   8.002   3.393 -0.0500 -0.0019 -0.0951
 6301W        W22485  15.314   0.067   5.028 -0.0780 -0.0936 -0.1315
 6302W        W22486  15.537  16.430  14.894 -0.1889  0.3683  0.3682
 6303W        W22487   5.932  17.169   1.220 -0.3038  0.2106 -0.2312
 6304W        W22488   3.756  18.453  12.715  0.1404  0.2752  0.0991
 6305W        W22489   1.278   7.270   0.727 -0.3673 -0.1029 -0.6521
 6306W        W22490  12.715  14.654  12.094 -0.2440  0.3042 -0.0259
 6307W        W22491  13.574  18.341   0.696  0.0710  0.1195 -0.0186
 6308W        W22492   9.396   7.843   0.939  0.1498  0.0227 -0.3718
 6309W        W22493  17.300   4.296   1.516 -0.0797  0.0870 -0.0874
 6310W        W22494  15.562   3.449  11.241 -0.5143  0.1209 -0.3144
 6311W        W22495  14.533  16.206  12.877  0.2047  0.0114 -0.1254
 6312W        W22496   7.089   7.226  14.818 -0.1257 -0.0358  0.4653
 6313W        W22497   6.742   5.309  11.781  0.0920  0.2787 -0.0532
 6314W        W22498   1.608   9.252   2.759  0.1434  0.0478 -0.0483
 6315W        W22499  10.145  17.607   3.786  0.0267  0.2410 -0.0844
 6316W        W22500  14.614  17.006  13.064  0.0861  0.0635 -0.1424
 6317W        W22501   6.861   8.096  11.531 -0.0197 -0.0406  0.4198
 6318W        W22502  10.377   7.209  13.027  0.0554  0.2107 -0.3012
 6319W        W22503  17.185  11.226   0.156  0.0507  0.1705 -0.3013
 6320W        W22504  14.773   6.127  10.695  0.1340  0.0266 -0.2725
 6321W        W22505  11.620   9.039  12.223 -0.0430 -0.0446  0.1567
 6322W        W22506   1.106  18.165   0.655 -0.0347 -0.0360  0.1209
 6323W        W22507   2.910  17.167  11.873 -0.0270  0.1673 -0.0753
 6324W        W22508   0.133   8.475  13.618  0.0828 -0.0156  0.1220
 6325W        W22509  10.115   1.321  10.885  0.1094 -0.0234 -0.1609
 6326W        W22510  18.393  17.541   5.389  0.0044  0.2558  0.0444
 6327W        W22511   5.545   5.212   0.190  0.2785 -0.1847 -0.0444
 6328W        W22512  14.032   8.503   0.682 -0.0407 -0.0503 -0.2940
 6329W        W22513  16.698  18.899   2.616  0.0559 -0.2001  0.0860
 6330W        W22514   2.460  13.493   4.350  0.0935 -0.3383  0.0390
 6331W        W22515   0.720   1.668   2.809 -0.3334 -0.1955  0.5374
 6332W        W22516   0.738  12.825  13.389  0.0899 -0.0273 -0.0878
 6333W        W22517  18.881  11.025   0.356  0.1283 -0.4460  0.1362
 6334W        W22518   4.657   7.753   1.956 -0.0049  0.2926 -0.1094
 6335W        W22519   7.714   6.059   4.509  0.0777  0.0835  0.2731
 6336W        W22520   2.778   2.961   0.107  0.1797 -0.3476  0.3126
 6337W        W22521  16.615  14.935  13.699  0.1256  0.1152  0.2852
 6338W        W22522   4.738   9.602   4.005  0.1110 -0.2461 -0.3693
 6339W        W22523  14.201   5.296  11.471  0.0246  0.2094  0.0657
 6340W        W22524   9.925  13.300   5.069 -0.0535  0.1735  0.1051
 6341W        W22525   8.417   6.384  10.298  0.0978 -0.0590  0.2354
 6342W        W22526   0.994  18.140  11.534 -0.0281  0.0318 -0.3646
 6343W        W22527   3.454   2.849  11.658 -0.1862 -0.1483 -0.0487
 6344W        W22528  16.212   4.909  14.194  0.1128 -0.0126  0.1035
 6345W        W22529   7.380   1.034   0.022 -0.2432  0.0340  0.0275
 6346W        W22530  16.642   6.270  14.545 -0.1374 -0.5069 -0.4844
 6347W        W22531  12.773   5.651  11.427 -0.0166  0.0654  0.3326
 6348W        W22532   5.314  11.088   4.320  0.2834  0.0431  0.1471
 6349W        W22533   3.590  14.022  10.998  0.2793  0.2107 -0.2192
 6350W        W22534  10.242  10.141   1.757  0.2596  0.0525  0.0086
 6351W        W22535  16.121  11.070  12.088  0.2263 -0.1853 -0.0544
 6352W        W22536  10.437  11.138   2.070 -0.5209  0.0575 -0.0231
 6353W        W22537  16.261   6.326   3.471 -0.0922 -0.0338  0.0973
 6354W        W22538   2.731   5.070  10.933  0.3634 -0.0247 -0.1957
 6355W        W22539   7.985  18.654   2.308 -0.0455  0.3358 -0.1463
 6356W        W22540   9.286  10.306   3.583  0.0217  0.0262  0.0323
 6357W        W22541  16.063   6.611   3.113 -0.2094  0.1249 -0.2509
 6358W        W22542   4.445   9.716  10.345  0.0102 -0.2365 -0.1623
 6359W        W22543   8.229   3.762  11.008 -0.1220 -0.2723  0.1255
 6360W        W22544   7.141   7.062   4.963  0.4308  0.0957  0.3564
 6361W        W22545   2.278   6.742  11.314 -0.2075  0.5026 -0.4070
 6362W        W22546   1.780  12.402   4.396  0.1491  0.0879  0.0156
 6363W        W22547  10.355  18.080   0.788 -0.0129 -0.3406 -0.0536
 6364W        W22548   2.018  16.254   0.671  0.2099 -0.2120  0.4037
 6365W        W22549   2.569  12.716  11.075  0.2137 -0.0152  0.1808
 6366W        W22550   4.037  13.651  12.322 -0.0438  0.3568 -0.2295
 6367W        W22551  13.907   0.171   2.694  0.1346  0.0284  0.0305
 6368W        W22552  13.270  17.710  12.455  0.1189 -0.1127 -0.0964
 6369W        W22553   0.895   5.376   2.220  0.0687 -0.3806  0.0885
 6370W        W22554  15.491   0.321   0.318  0.1180  0.4576  0.0008
 6371W        W22555   0.129  12.961   9.987 -0.3090 -0.0990 -0.4387
 6372W        W22556  18.063   3.454   1.418  0.1610 -0.2358  0.0621
 6373W        W22557  15.714   0.645  10.504  0.2203  0.4219  0.0183
 6374W        W22558  11.213   3.375   4.730 -0.0005 -0.2502 -0.3999
 6375W        W22559   8.798  16.356   9.667  0.0993 -0.1602  0.1185
 6376W        W22560   8.921  11.837  14.445  0.1111  0.5896  0.1308
 6377W        W22561  13.972  10.779   4.554 -0.0021 -0.0240  0.3381
 6378W        W22562  19.305   9.565   2.526 -0.2362 -0.0014 -0.1486
 6379W        W22563  11.553   9.194   0.050 -0.0600 -0.1117 -0.3795
 6380W        W22564  18.958   2.384   3.038 -0.2041 -0.2448  0.0543
 6381W        W22565  17.145   7.070   2.399  0.1496 -0.0755  0.0390
 6382W        W22566  16.248  16.594  11.847 -0.0754 -0.2900 -0.1144
 6383W        W22567   7.520   2.512   0.467 -0.0265  0.1189  0.0451
 6384W        W22568   9.840   9.246  14.255  0.1592 -0.2204 -0.0454
 6385W        W22569  18.392  11.335   2.979 -0.3034 -0.2396 -0.1744
 6386W        W22570   4.431   1.245   3.753  0.2230 -0.2397  0.2225
 6387W        W22571   2.386  15.818  11.261 -0.6216  0.4054 -0.0421
 6388W        W22572  18.803   3.004  11.042 -0.1812 -0.0159 -0.0121
 6389W        W22573   7.362  15.064  12.098  0.0125 -0.0047 -0.0457
 6390W        W22574  16.597  13.851   0.135 -0.2099  0.2752  0.1154
 6391W        W22575  15.277   5.794   0.026 -0.3918 -0.0874  0.0709
 6392W        W22576  17.611  16.932   0.819  0.0595  0.1944 -0.0631
 6393W        W22577  14.847   4.338   9.518  0.1709 -0.1360  0.1436
 6394W        W22578  11.321  12.433   3.127 -0.3377  0.0188 -0.0761
 6395W        W22579   9.577  19.149   1.168  0.1432 -0.1007  0.0116
 6396W        W22580  14.043  14.944   4.805 -0.2060 -0.4695  0.0907
 6397W        W22581   4.757  18.957  12.270 -0.0555  0.0225  0.0114
 6398W        W22582  15.439  17.218   0.940  0.0035  0.1801 -0.0395
 6399W        W22583   2.437  12.449   2.491  0.1469 -0.0243  0.0275
 6400W        W22584  17.285   8.441   0.309 -0.1801  0.0036 -0.0379
 6401W        W22585  18.093  15.508  12.528 -0.0731  0.0071 -0.0099
 6402W        W22586  12.701  11.138  10.558  0.0331  0.0749 -0.2329
 6403W        W22587   7.389   9.921   2.096 -0.1880 -0.3260 -0.1171
 6404W        W22588  18.022  16.106  13.914 -0.1769  0.1755 -0.0153
 6405W        W22589  16.980   3.639   3.996  0.1076 -0.2724 -0.0695
 6406W        W22590   8.320   1.016  12.656 -0.2028 -0.0743 -0.1267
 6407W        W22591   9.756   0.669  10.470  0.1381 -0.0540 -0.1001
 6408W        W22592  11.150   0.174   1.553  0.1086  0.1096  0.0121
 6409W        W22593  11.486   6.383  13.454  0.1180  0.2248 -0.5429
 6410W        W22594   9.631   9.788  10.737  0.1100 -0.1945 -0.1086
 6411W        W22595  12.046  17.783   3.249  0.0234  0.0266 -0.2267
 6412W        W22596  11.745   5.341  10.988 -0.0953 -0.0700  0.0081
 6413W        W22597   6.518  16.301   4.633  0.0386  0.1196 -0.2931
 6414W        W22598  16.562   6.639  13.021  0.5994  0.1024 -0.2720
 6415W        W22599   3.478   9.340  12.441 -0.1404  0.5152 -0.2311
 6416W        W22600  12.131   9.037   4.177  0.2077  0.0315  0.2363
 6417W        W22601   5.219  13.453   4.639  0.0218  0.1116 -0.0736
 6418W        W22602  13.102   0.545   2.315  0.1478  0.1497  0.2720
 6419W        W22603  16.686   4.605  10.713  0.5175 -0.1714 -0.0401
 6420W        W22604  11.887  19.195  11.639 -0.0742  0.0717 -0.2557
 6421W        W22605  13.652   9.922  10.545 -0.0624 -0.2221  0.2438
 6422W        W22606   6.536   3.376  14.190  0.0674  0.0066 -0.0298
 6423W        W22607  13.768  11.195  13.704  0.0702  0.0252 -0.2803
 6424W        W22608   6.484  14.632   0.712  0.1909  0.0673  0.0942
 6425W        W22609  14.719  17.803   3.706 -0.0085  0.0713 -0.0742
 6426W        W22610   8.219   0.189  11.181 -0.1066  0.1313 -0.0542
 6427W        W22611  14.361  10.393  11.113  0.2046 -0.0784  0.0848
 6428W        W22612  10.282   3.467   0.900  0.3106  0.0559  0.2050
 6429W        W22613   0.567   6.694  10.548 -0.0870  0.1729 -0.0800
 6430W        W22614   8.004   8.938   0.185  0.2882 -0.2506  0.0517
 6431W        W22615  10.790  13.472  12.629  0.1128  0.1188 -0.1539
 6432W        W22616   5.074   3.528  12.702 -0.0983  0.2306 -0.0523
 6433W        W22617   6.831  16.453  11.403 -0.1514  0.2676 -0.0108
 6434W        W22618   7.636  19.212   1.172 -0.1259  0.2336  0.1898
 6435W        W22619   0.526   8.967   4.029 -0.0711  0.2271 -0.0247
 6436W        W22620   6.840   2.511   4.217 -0.1215 -0.0852 -0.0585
 6437W        W22621  14.313   4.454  14.080 -0.1558 -0.0749 -0.1969
 6438W        W22622   1.959  17.240  10.172 -0.2636 -0.0316 -0.0721
 6439W        W22623  18.781   7.524  13.995 -0.4547  0.0251  0.3721
 6440W        W22624  11.006  15.553  11.200  0.0722  0.5905  0.2166
 6441W        W22625  14.970   3.470  12.394  0.0248 -0.3316  0.1939
 6442W        W22626   4.250  12.688  14.886 -0.4120  0.0557 -0.1819
 6443W        W22627  13.454  17.522  12.975  0.2441  0.2997 -0.1778
 6444W        W22628   8.835  13.551  14.223 -0.2277 -0.0143  0.0355
 6445W        W22629   7.595  12.799   1.918 -0.0858  0.2528  0.0943
 6446W        W22630   0.986   9.604   2.064 -0.1585  0.1669 -0.1435
 6447W        W22631  11.222   9.883   4.999  0.2080  0.1064  0.2297
 6448W        W22632   0.320  17.689   3.567 -0.1210  0.2657  0.0542
 6449W        W22633   6.184   6.997  14.574 -0.0250 -0.0329 -0.0335
 6450W        W22634  16.350   4.529   1.055  0.1119  0.1626 -0.3163
 6451W        W22635  16.815   8.697  13.348 -0.2037  0.1067  0.1413
 6452W        W22636   1.587  14.134  13.748  0.0575  0.2904 -0.1084
 6453W        W22637  10.995   9.296  13.460  0.0099 -0.0282  0.3778
 6454W        W22638  13.380  10.465  11.780  0.2272 -0.2719 -0.0453
 6455W        W22639   1.203  17.179  11.264 -0.2349 -0.0254  0.1057
 6456W        W22640   6.361   6.290   1.009 -0.0583  0.0166  0.0822
 6457W        W22641  13.159   4.032   2.133 -0.1946 -0.0290  0.0231
 6458W        W22642   4.870  10.933   3.897 -0.3752  0.1039  0.1632
 6459W        W22643   1.664   1.042   0.607 -0.1461  0.0120  0.1555
 6460W        W22644  17.970  15.579  13.077 -0.1629 -0.0128  0.0656
 6461W        W22645  16.217  10.207  14.970  0.4725 -0.0803 -0.0155
 6462W        W22646   9.467  14.204  11.593 -0.0026  0.1614  0.2768
 6463W        W22647   7.513   4.738   1.930  0.2398  0.0178  0.0562
 6464W        W22648  18.920   0.452   1.772 -0.2061 -0.2805  0.0160
 6465W        W22649  11.290  15.648  10.694  0.0762 -0.0573 -0.2133
 6466W        W22650  14.639   4.263   0.105 -0.1159  0.0216  0.1115
 6467W        W22651   2.502  14.936   6.097 -0.0408 -0.0654  0.0544
 6468W        W22652   6.684  13.437   1.140  0.0825 -0.0091  0.0522
 6469W        W22653  10.117   6.790   4.123 -0.0647 -0.0465  0.1692
 6470W        W22654   3.148  11.218  12.752  0.0683 -0.1316 -0.0267
 6471W        W22655   2.658   6.937   3.510 -0.1205 -0.0575  0.4042
 6472W        W22656   2.644   1.035  14.902 -0.1174  0.2627  0.2638
 6473W        W22657   2.560  18.746  10.722 -0.0832 -0.0695 -0.2841
 6474W        W22658   8.874  11.127   0.246  0.2730 -0.0411  0.0578
 6475W        W22659   3.056   6.807   0.604 -0.0536 -0.3800 -0.0735
 6476W        W22660  15.733  14.773   2.590 -0.1908 -0.1482  0.3932
 6477W        W22661   3.110  18.195   0.643 -0.3373  0.1125  0.1675
 6478W        W22662   1.787   6.351   4.572 -0.2327 -0.0257  0.1261
 6479W        W22663   5.137  15.440   3.364  0.1319 -0.2494 -0.2590
 6480W        W22664  14.079   8.659  14.391  0.0177  0.3070  0.3279
 6481W        W22665   7.612   3.490   3.830 -0.2495  0.0308  0.1109
 6482W        W22666   4.886   1.233   3.563  0.1695  0.0509 -0.1167
 6483W        W22667   2.543  12.662   1.989 -0.1004 -0.1094 -0.4651
 6484W        W22668   9.065   7.002   1.605 -0.2431  0.2268 -0.1499
 6485W        W22669  17.880   4.556   5.264 -0.2089  0.1557  0.1918
 6486W        W22670  13.510   2.524  14.079 -0.1193  0.3624  0.0883
 6487W        W22671  14.506   6.491  10.476  0.1661  0.2892 -0.0533
 6488W        W22672   8.542   0.053   0.625  0.1883 -0.1812 -0.1602
 6489W        W22673   1.723  10.155  14.188  0.5294  0.0318 -0.1303
 6490W        W22674  13.858   1.555   0.968 -0.1718  0.1105  0.0754
 6491W        W22675  17.847   0.140   2.067  0.0120  0.0093  0.1649
 6492W        W22676   8.837   9.838  11.873 -0.1341 -0.1911  0.1460
 6493W        W22677  10.170  12.521  14.145 -0.0823  0.1210 -0.1028
 6494W        W22678  18.257   5.478  14.238  0.0157 -0.2018  0.3518
 6495W        W22679  18.774  14.687  13.727 -0.1490  0.1252 -0.1412
 6496W        W22680   0.967  15.274  11.593 -0.2339 -0.2619  0.0002
 6497W        W22681   1.563  16.547   4.388 -0.3243  0.0561  0.0210
 6498W        W22682  10.943   3.606   3.051 -0.0120  0.0233  0.0758
 6499W        W22683   1.922  15.804  10.503  0.2952 -0.1920  0.0341
 6500W        W22684  18.606   6.505   1.149 -0.0347 -0.0011  0.0261
 6501W        W22685   9.325   0.981  10.446 -0.0087  0.1491  0.3998
 6502W        W22686  11.947  17.933  11.076  0.2024  0.1333 -0.1958
 6503W        W22687   3.936  10.931  12.610  0.0290  0.4412 -0.3508
 6504W        W22688   6.234  18.318   4.616 -0.2824  0.2611 -0.3157
 6505W        W22689  18.737  11.264   3.334 -0.0896  0.0544  0.3904
 6506W        W22690   9.528  13.040   5.031  0.3702  0.1518 -0.2778
 6507W        W22691   6.979  11.102   1.584  0.1496 -0.1569 -0.2607
 6508W        W22692  18.845  17.250  12.861 -0.2990 -0.0780  0.0984
 6509W        W22693  10.406   1.698  11.911  0.0334  0.0364  0.1264
 6510W        W22694   3.260  11.892  14.574 -0.0370  0.2587  0.1558
 6511W        W22695  13.730  15.084  14.187 -0.0582 -0.1204  0.0586
 6512W        W22696  11.210   3.685   3.487  0.0002 -0.2473  0.0441
 6513W        W22697  16.706   6.644  11.181 -0.0968  0.1313 -0.0429
 6514W        W22698  19.155  12.398  10.987  0.0712 -0.1295  0.0320
 6515W        W22699   7.049   5.632  12.570  0.2297  0.0428  0.2851
 6516W        W22700  17.771   7.269  12.922  0.3815  0.1103 -0.2427
 6517W        W22701  14.979  16.594   1.178  0.1843 -0.0264 -0.1766
 6518W        W22702   9.560   9.742  11.231  0.0302 -0.0355 -0.1987
 6519W        W22703  10.304  17.027  12.258  0.0621  0.1549  0.0871
 6520W        W22704   7.560  11.862   3.322  0.1754  0.2794  0.1091
 6521W        W22705  13.774  18.774  10.804 -0.1032  0.0438  0.1524
 6522W        W22706  11.020  10.816   3.773  0.2340  0.1117  0.0830
 6523W        W22707  14.878  14.702   1.543 -0.2473 -0.0269 -0.1438
 6524W        W22708  16.077   9.410   0.665  0.1629  0.2550 -0.2419
 6525W        W22709   6.206  18.834   2.547 -0.0984 -0.1248  0.1012
 6526W        W22710  16.330   3.144  14.082 -0.1450 -0.2787  0.1543
 6527W        W22711   8.769   1.206  14.398 -0.0478 -0.0262  0.3358
 6528W        W22712   1.993  11.719   0.485 -0.1191  0.2097 -0.1419
 6529W        W22713   9.849   7.232   4.206  0.0632  0.0488  0.0221
 6530W        W22714   6.072   1.344  12.929  0.0567  0.1559  0.1626
 6531W        W22715  17.926   6.002   0.393  0.0360 -0.0497 -0.1110
 6532W        W22716   0.524   0.346   4.800 -0.2615 -0.3862 -0.3010
 6533W        W22717  15.240   2.761  10.757 -0.1218  0.4598 -0.1321
 6534W        W22718   3.122  19.215  13.743  0.0238  0.1494  0.0223
 6535W        W22719   9.268   0.369  14.104  0.0995  0.1981 -0.0768
 6536W        W22720   7.263   3.282   4.070  0.3004 -0.0764 -0.2950
 6537W        W22721   0.668   7.733   1.229  0.2210 -0.1317 -0.1362
 6538W        W22722   3.362  10.096   1.301 -0.1410 -0.0037  0.0213
 6539W        W22723  16.012   0.498   1.018  0.1690 -0.1415  0.2558
 6540W        W22724  11.190  17.262  10.470  0.2612  0.2581  0.4384
 6541W        W22725  13.933  14.377   1.449  0.0495 -0.1254  0.1655
 6542W        W22726  11.472  18.059   1.612  0.1657 -0.3311  0.0197
 6543W        W22727  15.166   4.883   9.667 -0.2041  0.2711 -0.1311
 6544W        W22728   8.516   6.831   0.558 -0.1986  0.1132 -0.2497
 6545W        W22729  15.192  10.216   2.949  0.2045  0.0502 -0.3177
 6546W        W22730  19.052   7.801   0.963  0.1520 -0.1600 -0.1197
 6547W        W22731  14.472  13.327   5.039 -0.0910  0.3917  0.1574
 6548W        W22732   3.350  10.614  12.433  0.0995  0.2463 -0.0291
 6549W        W22733   9.307   0.193   0.479 -0.0138  0.1602 -0.2218
 6550W        W22734   4.766   0.083  12.316  0.2754  0.0518 -0.1136
 6551W        W22735   4.471   3.626   2.184 -0.1941  0.0926  0.2018
 6552W        W22736  11.884   2.102   2.229  0.1860  0.0530  0.2055
 6553W        W22737  12.195  16.024  13.137  0.1996  0.2248  0.7141
 6554W        W22738   2.749  13.798   2.313 -0.2387  0.3019 -0.1150
 6555W        W22739   5.989  17.877   4.616 -0.2982  0.1804 -0.1545
 6556W        W22740   1.548  12.116   3.710 -0.1891 -0.2146  0.0818
 6557W        W22741   4.198   1.795   0.331 -0.2729 -0.1267  0.0086
 6558W        W22742  18.032   7.680   4.121  0.1523 -0.4861  0.1219
 6559W        W22743  18.907   6.280   0.196 -0.1390  0.0074 -0.1207
 6560W        W22744   6.128  18.076   3.095 -0.3098 -0.0860 -0.0504
 6561W        W22745   8.807  16.099   3.073 -0.2340 -0.1004  0.0521
 6562W        W22746   2.892   1.210   2.308 -0.0123 -0.0266 -0.1555
 6563W        W22747  10.900  16.818  12.615  0.2078 -0.0936 -0.2499
 6564W        W22748   4.046  11.728  12.692 -0.0524  0.1888 -0.2821
 6565W        W22749   4.173   5.462   3.250 -0.0792 -0.1956  0.3043
 6566W        W22750   3.965   7.565  13.601  0.1414  0.0856  0.1251
 6567W        W22751   5.306  18.531  14.905 -0.0709  0.1065  0.1604
 6568W        W22752   9.253   2.254   1.831  0.2672  0.0539  0.1257
 6569W        W22753   7.958   7.504  10.001 -0.1050 -0.1128 -0.0662
 6570W        W22754   2.049   8.345   2.548  0.0738  0.1569  0.2910
 6571W        W22755   4.402  15.234  10.280 -0.1384 -0.2887 -0.0182
 6572W        W22756  18.244   2.939   4.778 -0.1544 -0.1261  0.0135
 6573W        W22757  15.519   7.386  14.328 -0.3806 -0.2315  0.3282
 6574W        W22758  18.344   0.400  12.242 -0.0879 -0.1421  0.1197
 6575W        W22759  11.124  16.669   3.792  0.0022 -0.0012 -0.2255
 6576W        W22760  15.333  18.953  11.007 -0.0502 -0.0079  0.2701
 6577W        W22761  11.559  13.354   3.749 -0.1700 -0.0334 -0.2464
 6578W        W22762  17.466  16.111   5.218 -0.1176 -0.2349 -0.0604
 6579W        W22763   5.742   8.833   4.636 -0.1297  0.0509 -0.0311
 6580W        W22764   2.673  14.220  12.811 -0.0715  0.4614 -0.0034
 6581W        W22765   1.007   5.508   0.908 -0.0833  0.1835 -0.0454
 6582W        W22766   5.063   5.104   0.224  0.1749  0.0749  0.0169
 6583W        W22767   9.266   4.438  14.533  0.2662 -0.1517  0.0592
 6584W        W22768  16.656  17.094   0.354 -0.2002  0.0202 -0.2196
 6585W        W22769  16.869   0.747  11.399 -0.0785 -0.0660 -0.3679
 6586W        W22770   8.151   0.821   4.616  0.3652 -0.3943  0.2083
 6587W        W22771  12.471  10.345   0.657  0.0500  0.2062 -0.0321
 6588W        W22772  11.866  18.425   1.346 -0.0937 -0.1744 -0.2320
 6589W        W22773   8.640   3.850   2.316 -0.2148 -0.0481  0.3496
 6590W        W22774  18.758   4.897   2.702 -0.0517 -0.4286 -0.0879
 6591W        W22775   6.403  16.914   0.561  0.0200  0.2348 -0.0196
 6592W        W22776   3.050   8.736  12.480  0.0160 -0.1686  0.1090
 6593W        W22777  19.290   7.155  11.249 -0.3387 -0.3687 -0.0031
 6594W        W22778   9.626  10.284  14.009  0.0287  0.0429 -0.0205
 6595W        W22779  10.488  10.248   4.416 -0.0255 -0.1198 -0.2852
 6596W        W22780  13.286   8.509  12.702 -0.4026 -0.0720  0.0281
 6597W        W22781  19.120  12.989   2.191  0.0858  0.3053  0.0235
 6598W        W22782   5.204  13.297  13.756 -0.0615 -0.0777 -0.2315
 6599W        W22783   7.259   7.424  11.043  0.0161  0.2778 -0.1635
 6600W        W22784  12.951   6.995   4.142  0.0171  0.2404 -0.1259
 6601W        W22785   7.909  12.721  11.627 -0.0223 -0.1475  0.2205
 6602W        W22786   8.175   7.879  11.636  0.3593 -0.1893  0.0317
 6603W        W22787   0.152  11.530  13.196  0.1517  0.0208  0.1128
 6604W        W22788  17.167  15.714  14.859 -0.1155 -0.1503  0.4263
 6605W        W22789  13.980   7.327  11.922 -0.1984  0.1574  0.0838
 6606W        W22790   9.910   9.704   1.133 -0.2101  0.0138  0.0715
 6607W        W22791   3.416  14.603  10.747 -0.1850  0.2189  0.0167
 6608W        W22792   3.802  12.590  14.497  0.3889  0.1664  0.1185
 6609W        W22793  12.198   7.689   4.225  0.0737  0.0614  0.2702
 6610W        W22794  13.177   8.479  10.640 -0.0088 -0.1597 -0.0276
 6611W        W22795  19.213  13.563   4.872  0.2173 -0.0647  0.4110
 6612W        W22796  15.958   4.299   3.174 -0.0125 -0.3894  0.3307
 6613W        W22797   9.299   3.524   0.617  0.3246  0.1575 -0.0041
 6614W        W22798  12.650   6.345  13.035  0.0963  0.0699 -0.2549
 6615W        W22799   7.194  16.533   1.126 -0.0539  0.1856 -0.1189
 6616W        W22800  15.999  10.237   3.365  0.1695 -0.2896  0.4865
 6617W        W22801  18.539   0.260  13.215  0.0108 -0.2728 -0.0413
 6618W        W22802   9.171  17.253  10.612  0.1113  0.0094 -0.0710
 6619W        W22803   1.232   6.508  13.430  0.3106  0.1688 -0.0768
 6620W        W22804  12.462   0.999   5.501  0.1873  0.2274  0.1176
 6621W        W22805  18.176   7.008   3.011 -0.0666 -0.1003  0.1458
 6622W        W22806   4.760  11.270  14.466  0.0530  0.0994 -0.0930
 6623W        W22807   7.800  15.969  13.377 -0.2823  0.2923  0.1102
 6624W        W22808   6.935   8.834  13.189  0.2018 -0.1129 -0.1087
 6625W        W22809   2.810  14.006   3.273  0.0355  0.0117 -0.3102
 6626W        W22810  14.735  11.334  11.362  0.5378 -0.2050 -0.2631
 6627W        W22811  11.558  19.004   5.066 -0.1072  0.0623 -0.1614
 6628W        W22812   2.545  16.658  14.277 -0.2008 -0.0872 -0.1850
 6629W        W22813  18.973  12.522  11.436  0.2767  0.0792  0.3406
 6630W        W22814  15.257  11.682   3.997  0.1628  0.0429  0.0109
 6631W        W22815  18.580   6.382   5.409  0.1341  0.0105  0.0837
 6632W        W22816   3.085   1.709   0.326  0.1238 -0.1590  0.1922
 6633W        W22817  18.209   6.507   0.591  0.2472 -0.1453  0.0375
 6634W        W22818  18.646   0.875   3.955 -0.0301 -0.0383  0.0073
 6635W        W22819  12.132  17.728   0.468 -0.1628  0.3247  0.1923
 6636W        W22820   9.064   8.693   0.664  0.1830 -0.0330  0.1921
 6637W        W22821  18.422   4.384  14.244  0.1734 -0.3098  0.0421
 6638W        W22822  14.699   6.609   9.987 -0.1151 -0.1060 -0.0274
 6639W        W22823  15.109   0.023   0.165  0.0874  0.1675 -0.0680
 6640W        W22824  11.121  14.393   2.470  0.1974 -0.0645 -0.4374
 6641W        W22825  14.546  11.059   3.785 -0.3644  0.0854 -0.0438
 6642W        W22826   2.825  17.097   4.957 -0.0122 -0.0563 -0.0010
 6643W        W22827   9.629   6.706  14.686 -0.1699 -0.1446 -0.1580
 6644W        W22828  18.877  15.249  12.311  0.3057 -0.2836 -0.4110
 6645W        W22829  17.934  11.071   3.076 -0.1992  0.1421  0.0767
 6646W        W22830   3.365  19.221   2.096  0.0718  0.2417  0.0211
 6647W        W22831  11.810   9.254   2.252  0.2902  0.2937 -0.0693
 6648W        W22832   1.103   3.405   3.760  0.1039  0.0239  0.0194
 6649W        W22833  17.953  12.990  10.784 -0.2051 -0.0842  0.1307
 6650W        W22834   4.356   2.634   3.286 -0.2062 -0.3460  0.2787
 6651W        W22835   4.630  15.814  13.414  0.2345  0.2389 -0.1923
 6652W        W22836   6.176   2.286  12.676  0.1930  0.2463  0.0040
 6653W        W22837   3.682   1.916   0.181 -0.4433  0.0895  0.3947
 6654W        W22838  18.622   1.435  14.292 -0.2648 -0.0496 -0.2853
 6655W        W22839   0.919  12.192  11.071 -0.1273 -0.0559 -0.0422
 6656W        W22840  14.414   0.446  10.574  0.0391  0.1234  0.2190
 6657W        W22841   9.839  16.011  12.473 -0.1473 -0.1216 -0.1704
 6658W        W22842  10.096  18.759   0.874 -0.1149  0.3117 -0.1171
 6659W        W22843   7.373  12.992   4.821  0.0825 -0.1752 -0.0697
 6660W        W22844   7.848   2.273  12.945 -0.1828  0.0976  0.3632
 6661W        W22845  17.168  12.451  12.657  0.1469  0.1142 -0.3208
 6662W        W22846   9.268  13.384  13.834  0.0095 -0.0721  0.0639
 6663W        W22847  14.774   3.795   2.076  0.0108 -0.0748  0.1935
 6664W        W22848   5.508   7.451   9.691  0.0896  0.2679 -0.1070
 6665W        W22849  14.991  12.121   4.361 -0.0044  0.2881  0.0779
 6666W        W22850  14.746  15.834   0.892  0.1554 -0.2167  0.0072
 6667W        W22851   6.298   3.247  12.001  0.0708 -0.3535 -0.2088
 6668W        W22852   9.836  14.280   0.240  0.5241 -0.1799  0.0403
 6669W        W22853   0.130  14.061   0.706  0.2573  0.2223 -0.0959
 6670W        W22854   9.353  18.471  12.919  0.0156  0.3293 -0.2681
 6671W        W22855  10.782  16.677   4.205  0.0074 -0.0494  0.0702
 6672W        W22856   8.445  17.907   1.444  0.3522 -0.3491  0.1061
 6673W        W22857   7.647   9.329   3.215  0.0363  0.2104 -0.2025
 6674W        W22858  14.563  16.204   5.124  0.1345  0.0850 -0.0022
 6675W        W22859   3.232   4.623   3.829  0.2481  0.2214  0.0718
 6676W        W22860  17.249   7.540   1.468  0.0266  0.0947 -0.0022
 6677W        W22861   3.512   0.411   2.462 -0.1632  0.0517  0.0159
 6678W        W22862   1.497  13.427  13.066 -0.0351  0.3112  0.0885
 6679W        W22863   0.617   6.194  11.515 -0.1718 -0.0763  0.0748
 6680W        W22864  12.886  15.745   1.284 -0.1642  0.2601  0.3520
 6681W        W22865  17.053  13.884  12.030 -0.0141  0.2483  0.1044
 6682W        W22866  18.952  11.804   1.587  0.1546 -0.0752  0.2534
 6683W        W22867  19.120  15.138  13.571 -0.3227  0.2052 -0.1562
 6684W        W22868   7.304  16.644  14.730  0.1847  0.1536 -0.1487
 6685W        W22869   2.551   9.752  13.841 -0.3276  0.3813  0.1204
 6686W        W22870  10.158   1.243   0.664 -0.0173  0.2967  0.0305
 6687W        W22871  10.151  10.529  13.961 -0.0305 -0.1548  0.1105
 6688W        W22872  11.827  11.339  14.844 -0.1612 -0.3284 -0.0791
 6689W        W22873   3.606   5.578  11.619  0.0362 -0.0366 -0.1992
 6690W        W22874  14.081   2.086  14.466 -0.3450  0.0554 -0.0919
 6691W        W22875  15.280  15.830   0.802  0.2547 -0.0953 -0.2171
 6692W        W22876   0.872   3.856  12.338 -0.4039 -0.2538  0.0247
 6693W        W22877  13.131   2.263   4.132  0.3077  0.4874 -0.1700
 6694W        W22878  17.588   4.366  10.954  0.1543  0.0436 -0.1363
 6695W        W22879   0.683   0.349  10.918 -0.2247 -0.0970  0.0109
 6696W        W22880   3.625   9.489  14.476  0.0947 -0.1316 -0.0949
 6697W        W22881  12.329  13.460   0.377  0.0249  0.0937 -0.0379
 6698W        W22882   0.044   8.761  12.673  0.1767 -0.1354 -0.2855
 6699W        W22883   6.926   4.596   0.496 -0.1681  0.0038 -0.0169
 6700W        W22884   9.731   4.010  12.710  0.1236 -0.0497 -0.4451
 6701W        W22885   6.384  14.892  13.093 -0.1513 -0.3948 -0.1687
 6702W        W22886   4.980   0.538  11.278 -0.1501  0.2509 -0.0307
 6703W        W22887  10.289  14.382   1.420  0.1230 -0.1064 -0.3404
 6704W        W22888  11.485   8.048  14.786 -0.0118 -0.2250 -0.2648
 6705W        W22889  13.375   5.223  12.616 -0.2197  0.0332 -0.1266
 6706W        W22890   4.278   2.889   4.509  0.3060  0.0365  0.0261
 6707W        W22891  14.897   6.318   5.176  0.1263 -0.3959 -0.1463
 6708W        W22892   8.675  13.354  11.019 -0.3217 -0.3576  0.1277
 6709W        W22893   8.948  15.264   4.394 -0.0501 -0.2577 -0.0236
 6710W        W22894   8.436   2.922  12.896 -0.0910  0.1523 -0.0138
 6711W        W22895   5.827   7.411  10.657  0.0140  0.2017 -0.1226
 6712W        W22896   3.350   1.558   5.582 -0.2118 -0.2385  0.0148
 6713W        W22897  14.335  19.381  14.207 -0.1319 -0.3210  0.0260
 6714W        W22898  13.438   5.064   2.866 -0.1443 -0.0427 -0.3102
 6715W        W22899  10.871   7.966   1.926  0.0571 -0.1074 -0.4318
 6716W        W22900  13.264  12.346  11.270  0.0153  0.1321  0.1153
 6717W        W22901   6.507   8.100   1.430 -0.0403 -0.0598  0.0478
 6718W        W22902  19.091   1.028  13.524 -0.0851 -0.1641 -0.1969
 6719W        W22903  14.464   2.298  12.868 -0.0395 -0.1302  0.3144
 6720W        W22904   3.026  14.794   0.570 -0.4286  0.0526 -0.4093
 6721W        W22905   0.199   0.238   0.116 -0.0499  0.2015  0.2533
 6722W        W22906   4.349  18.861   1.332 -0.0559 -0.0798 -0.3562
 6723W        W22907  13.151  16.313  11.596  0.3166  0.0832 -0.0433
 6724W        W22908   9.129   3.365   1.105 -0.0620 -0.1316  0.1349
 6725W        W22909  14.770  16.933  11.130  0.0605 -0.1297  0.1233
 6726W        W22910   5.817  16.771   2.249 -0.0182  0.1464 -0.1030
 6727W        W22911   5.821  16.479  12.704  0.1283  0.0533  0.0555
 6728W        W22912  10.953  12.182  11.634  0.2632  0.1212  0.2507
 6729W        W22913  11.960   3.924  10.936 -0.1654  0.1823  0.0269
 6730W        W22914   4.002  11.103   5.282  0.2017 -0.1115  0.4599
 6731W        W22915   8.994  16.622   4.644 -0.2939  0.1841  0.1290
 6732W        W22916  10.659   3.464   3.579 -0.2310 -0.2559  0.3385
 6733W        W22917  14.730   5.897  12.503  0.3491  0.1914  0.0859
 6734W        W22918   9.823  14.773   2.161  0.1599 -0.0953 -0.0713
 6735W        W22919   0.497  17.048   0.937  0.2985  0.0373 -0.3917
 6736W        W22920   6.849  14.812  13.056 -0.2380 -0.0068  0.2437
 6737W        W22921   2.161   9.274  11.846 -0.1735  0.1934 -0.1593
 6738W        W22922   6.882   1.015  12.643 -0.0209  0.0134  0.0312
 6739W        W22923  15.940  15.454  12.323  0.1134 -0.0774  0.2398
 6740W        W22924  18.528  14.181  12.356 -0.0464  0.1846  0.0059
 6741W        W22925  10.833  18.660  13.543 -0.0469  0.3768 -0.0577
 6742W        W22926   8.418   5.016  12.897 -0.3960  0.0143 -0.1187
 6743W        W22927  11.678  18.339   4.270 -0.0734  0.1778  0.0763
 6744W        W22928  14.810   9.985   5.334  0.1588  0.0733 -0.0286
 6745W        W22929  13.016  12.700   3.187  0.2261  0.1152 -0.0067
 6746W        W22930  11.783  14.747   1.990 -0.0270 -0.0208  0.1690
 6747W        W22931   2.135  18.348   9.546  0.0451 -0.2762  0.1491
 6748W        W22932   8.374  14.141  12.242  0.0752 -0.0461  0.2366
 6749W        W22933  14.009  14.997  12.353 -0.0914  0.1369 -0.3300
 6750W        W22934   2.295  10.266   2.781 -0.1648  0.1547  0.0659
 6751W        W22935   6.472  13.342  11.734 -0.2378 -0.1673 -0.0134
 6752W        W22936   9.513   8.903   3.757 -0.0087 -0.2912  0.0393
 6753W        W22937   1.648  10.489  12.004  0.2461 -0.0389 -0.1640
 6754W        W22938  18.021   4.643   9.920 -0.4214  0.1527 -0.3130
 6755W        W22939  17.057  10.963   4.502  0.0864 -0.4503  0.0632
 6756W        W22940   8.998   5.957  13.107 -0.1430  0.0267 -0.3309
 6757W        W22941  12.240  18.011   3.690  0.1247  0.3134  0.0667
 6758W        W22942  12.529   9.358  12.114  0.2092 -0.2878  0.4016
 6759W        W22943   7.335  15.683   3.564 -0.0030 -0.2018 -0.1115
 6760W        W22944   3.611  18.612  10.819 -0.0744 -0.3101  0.1884
 6761W        W22945  10.756   0.602   1.184  0.4625  0.3190 -0.3098
 6762W        W22946  13.937  15.347   0.988  0.3578  0.2545 -0.1138
 6763W        W22947  14.694  15.910   2.737 -0.2442 -0.0239 -0.1921
 6764W        W22948  17.160   5.013   4.182 -0.3315  0.3208 -0.0123
 6765W        W22949   8.509   8.627  11.055  0.1447  0.0271  0.0340
 6766W        W22950   8.020   1.560  12.576  0.0589  0.3289 -0.0721
 6767W        W22951  16.201  14.995   2.614  0.3290 -0.0432 -0.1125
 6768W        W22952   0.152   1.143  12.690 -0.2935  0.2800 -0.1950
 6769W        W22953  11.690  16.465   1.596 -0.0957  0.0248  0.2653
 6770W        W22954  12.755   5.601  10.921  0.2555  0.0608  0.0897
 6771W        W22955   7.443  12.658  13.480 -0.0200  0.3890  0.0479
 6772W        W22956  15.961  18.530   4.061 -0.0326  0.4241  0.0964
 6773W        W22957   7.539  12.285   1.955  0.3451  0.3277  0.1904
 6774W        W22958  16.528   2.801  10.449  0.1321  0.1172  0.3378
 6775W        W22959  18.618   5.886   1.107  0.0505 -0.1560 -0.2248
 6776W        W22960  14.897   7.470   2.890 -0.2159  0.0091 -0.1184
 6777W        W22961   0.268   2.861  13.014  0.0660  0.0742  0.0287
 6778W        W22962   3.387  12.345   3.320 -0.0375  0.0462  0.3240
 6779W        W22963   9.270  18.224  10.677 -0.0382  0.2361 -0.0504
 6780W        W22964  14.553  11.180   3.253  0.2888 -0.1388  0.5158
 6781W        W22965  10.605  12.144   1.256  0.0328 -0.1337 -0.4388
 6782W        W22966   1.814  15.719  12.431 -0.2479  0.4427  0.1754
 6783W        W22967  18.807  14.701  12.773  0.1280 -0.1458 -0.1045
 6784W        W22968   3.004   9.473  11.836 -0.0440 -0.0886 -0.0759
 6785W        W22969   3.034   8.601  10.863  0.1764 -0.1962 -0.0466
 6786W        W22970   2.375  11.808  12.893 -0.1596  0.0158 -0.1247
 6787W        W22971   4.274  11.480   1.536 -0.0194 -0.2620  0.2127
 6788W        W22972  12.437   3.729  11.689  0.2561  0.2052 -0.0260
 6789W        W22973   8.744   6.428   3.661 -0.0779  0.2040 -0.1263
 6790W        W22974   5.200   0.723  10.429  0.0022 -0.0252  0.0169
 6791W        W22975   3.492  11.429   4.278  0.2101  0.2909  0.1232
 6792W        W22976   1.926  16.085  12.134  0.1460 -0.1417  0.1250
 6793W        W22977   2.559  12.659  13.130  0.1662 -0.0254 -0.2320
 6794W        W22978  10.148  15.228  12.130  0.0523 -0.3055  0.1346
 6795W        W22979  11.455  15.757  14.360 -0.1620  0.2553  0.1387
 6796W        W22980   1.610  12.689  12.528  0.0033 -0.1847  0.1510
 6797W        W22981  15.366   6.134   3.496 -0.3285 -0.1186  0.1699
 6798W        W22982   7.759  12.469  14.563  0.2346  0.3926 -0.2413
 6799W        W22983   6.120  11.237  12.148 -0.1569 -0.3168  0.2624
 6800W        W22984   9.007   8.539  14.707 -0.0404  0.3424  0.0985
 6801W        W22985   5.131  11.821   0.709  0.1054 -0.2839  0.0203
 6802W        W22986  11.236  16.995  10.900  0.1486 -0.4702  0.1989
 6803W        W22987   3.071  12.493  13.835 -0.0369  0.1255 -0.0449
 6804W        W22988   3.463  18.675  14.887  0.1977  0.0662  0.1711
 6805W        W22989  18.738  17.142   4.302 -0.0673 -0.2086 -0.0702
 6806W        W22990   7.478   1.975  10.376 -0.2342 -0.1517 -0.1883
 6807W        W22991  11.497  15.481   3.385 -0.3258 -0.1905 -0.0475
 6808W        W22992   4.602  18.641  13.949 -0.0649  0.0828  0.1202
 6809W        W22993  15.397  11.995  12.233 -0.0673 -0.2159 -0.1005
 6810W        W22994  14.348   9.992   0.505  0.2573 -0.0528 -0.1375
 6811W        W22995  13.984   4.371  14.413  0.1353  0.2765 -0.1781
 6812W        W22996   7.784   4.562  10.452 -0.1968 -0.3185 -0.2467
 6813W        W22997   0.923   9.735  11.322  0.3683 -0.2120  0.0436
 6814W        W22998   5.815   2.535   4.743  0.1247  0.3105 -0.1185
 6815W        W22999  16.027   5.524   4.519  0.1410 -0.0431  0.2994
 6816W        W23000   3.035   5.835  10.594  0.0139  0.1450 -0.1239
 6817W        W23001   7.360   7.622   4.773 -0.3881 -0.1014 -0.1857
 6818W        W23002   5.079  18.140  14.604  0.0134  0.3905 -0.0165
 6819W        W23003  18.730  10.653  10.471 -0.0708  0.2832 -0.1260
 6820W        W23004  14.238  17.932  10.761  0.0265 -0.2320 -0.0874
 6821W        W23005  19.194  10.929   1.882  0.0744 -0.3475  0.0406
 6822W        W23006  11.245   6.735  10.697  0.0661 -0.1389  0.1292
 6823W        W23007   4.913  13.131   3.171 -0.2442 -0.1859  0.2041
 6824W        W23008  14.122  10.898  10.494 -0.3453  0.1717  0.1038
 6825W        W23009  11.683  12.710   3.336  0.1992 -0.0864  0.0801
 6826W        W23010  15.176   1.157  10.694 -0.4329  0.1861  0.0482
 6827W        W23011   7.953  10.555  12.833  0.2631 -0.1503  0.0539
 6828W        W23012  15.675  16.675   4.396  0.2701  0.0342 -0.1346
 6829W        W23013  19.235  16.932   1.804 -0.1311 -0.0078  0.3012
 6830W        W23014   6.750   9.392  14.394  0.4526 -0.0187 -0.0576
 6831W        W23015   6.190  13.034  10.055  0.1821  0.0251 -0.0121
 6832W        W23016   9.817   9.355  10.885  0.0376  0.0663 -0.0057
 6833W        W23017  10.519   8.930   3.451  0.0911 -0.0769 -0.2819
 6834W        W23018   9.145   8.260   5.685  0.2274 -0.2609 -0.1320
 6835W        W23019  15.215  10.423  13.003 -0.1623  0.3282  0.0314
 6836W        W23020  13.066  19.182  14.646  0.2183 -0.1125 -0.0479
 6837W        W23021   0.943  13.992  12.543 -0.0892  0.2245 -0.2676
 6838W        W23022  10.464   1.308  12.406 -0.0682  0.3856  0.2522
 6839W        W23023  14.253   0.705  13.327  0.0075  0.0739  0.0890
 6840W        W23024   8.677   7.160   2.693 -0.0269  0.5388  0.2093
 6841W        W23025   2.191   0.597   4.346  0.1149 -0.2054  0.0602
 6842W        W23026  12.002   1.587   0.374 -0.0948  0.0845  0.0662
 6843W        W23027   3.300   5.154  10.863 -0.0129  0.1548  0.1118
 6844W        W23028   7.016  18.979   3.478 -0.0175  0.1290 -0.0082
 6845W        W23029   6.084  14.009  13.100 -0.1829  0.1620  0.0515
 6846W        W23030  13.972   2.662  14.944  0.1646  0.2496 -0.4196
 6847W        W23031  15.178   5.383  14.205  0.0232  0.2369 -0.2197
 6848W        W23032  16.712  18.589  12.758 -0.2694  0.4691  0.2142
 6849W        W23033   3.365   9.088   5.671 -0.0404  0.0663  0.3106
 6850W        W23034  13.724  14.840   1.177 -0.3631  0.0611 -0.3568
 6851W        W23035  17.983   0.234  12.660  0.0552  0.2829  0.0724
 6852W        W23036   0.974   6.967  14.270  0.1601 -0.2674  0.1503
 6853W        W23037  18.567   0.286  12.719  0.3466 -0.1785  0.0084
 6854W        W23038   5.820   6.912   0.730 -0.0578  0.0705  0.2051
 6855W        W23039   2.193  14.434  14.678  0.0509  0.3335 -0.1241
 6856W        W23040   2.358   7.569   4.710 -0.0651  0.3001  0.1047
 6857W        W23041  16.440  13.247   1.819  0.1213 -0.0923 -0.0528
 6858W        W23042   1.747  15.114  12.522 -0.1491 -0.0278 -0.4635
 6859W        W23043  17.272   0.182   0.739 -0.0213 -0.0652 -0.1441
 6860W        W23044   5.894  18.267  11.106 -0.1575  0.1043  0.2465
 6861W        W23045   2.565  18.236  12.836  0.1552 -0.0321 -0.1071
 6862W        W23046   6.354  10.899  13.975 -0.0236  0.1801 -0.1423
 6863W        W23047  11.969   6.010   2.593 -0.0545  0.3745  0.4663
 6864W        W23048   9.213   2.430   0.650 -0.1180  0.0325 -0.0150
 6865W        W23049  14.303   8.827   2.964 -0.0739 -0.0469 -0.0074
 6866W        W23050   0.546   7.040   0.861 -0.3340 -0.0463  0.1057
 6867W        W23051  10.741  12.199  12.306 -0.1969 -0.0607  0.2426
 6868W        W23052   5.600   3.817   0.643  0.1104  0.3095 -0.3487
 6869W        W23053   0.462  16.516   0.844 -0.0310 -0.3697  0.4082
 6870W        W23054   6.926  17.103   2.955 -0.1007 -0.1609 -0.0989
 6871W        W23055   2.994  11.412  12.270 -0.2483 -0.3882  0.2605
 6872W        W23056  11.088   1.170   1.147 -0.1487 -0.1305 -0.0208
 6873W        W23057  11.462   4.397   1.282  0.1110  0.3368 -0.3716
 6874W        W23058   8.425   5.819  12.221 -0.3571  0.3304  0.2433
 6875W        W23059  11.428  18.867   2.109 -0.2612 -0.0352 -0.0174
 6876W        W23060   4.614  11.073  12.356  0.3110  0.5358 -0.0893
 6877W        W23061   8.201   0.506   5.514  0.1342  0.0573 -0.4216
 6878W        W23062   8.852   9.841   1.538  0.3812 -0.2358 -0.3161
 6879W        W23063   5.690   5.832   3.851 -0.4021  0.0930 -0.2875
 6880W        W23064  10.393   4.052  10.114  0.0761 -0.1659  0.1918
 6881W        W23065  13.121  11.050   5.079  0.1964 -0.2040  0.2015
 6882W        W23066  17.539   9.678   1.467 -0.3141 -0.0409  0.2031
 6883W        W23067  15.135  11.353   2.480  0.1739 -0.1371 -0.1801
 6884W        W23068   2.608   8.929  12.748 -0.2714  0.2705  0.0730
 6885W        W23069  19.114   8.838  13.886  0.0482 -0.0367  0.3050
 6886W        W23070  14.192   6.677   5.585  0.1487  0.1244  0.0070
 6887W        W23071   4.277  17.630   1.651  0.2782  0.0288 -0.0474
 6888W        W23072  12.051  16.798   3.433  0.2339  0.0490 -0.0983
 6889W        W23073   0.088  12.525   2.407  0.2499  0.2094  0.2540
 6890W        W23074  11.009  13.735  13.871 -0.1891  0.1113  0.1867
 6891W        W23075  19.244   9.707  14.014  0.0399  0.0021 -0.1507
 6892W        W23076  11.208   0.353   4.661 -0.0112 -0.0571 -0.0224
 6893W        W23077  12.359   9.825  11.835  0.1108  0.3800  0.0776
 6894W        W23078  10.145  18.293   3.480  0.0961 -0.1108 -0.2296
 6895W        W23079  12.735   2.801  12.433  0.0149 -0.2415  0.3290
 6896W        W23080   0.736   0.217  14.460  0.3953 -0.0454  0.0510
 6897W        W23081   4.083  18.757  10.841 -0.1910 -0.0193 -0.0266
 6898W        W23082   5.412   9.569  10.486 -0.0773 -0.2390 -0.1595
 6899W        W23083   6.458   0.660  12.451  0.1285 -0.2711 -0.1394
 6900W        W23084   1.441   7.174   4.375  0.2065 -0.2863  0.0323
 6901W        W23085  11.851  11.119  12.866 -0.1900 -0.0350 -0.3968
 6902W        W23086   2.754   4.512   1.628  0.2325  0.5290  0.2471
 6903W        W23087   9.742   2.129  14.717 -0.0627 -0.1831  0.1857
 6904W        W23088  13.134  12.681  10.908  0.2523 -0.0715 -0.4139
 6905W        W23089   1.871   0.659  13.571  0.0042 -0.1421 -0.4560
 6906W        W23090  14.979  13.419  14.701 -0.0546  0.5183 -0.1098
 6907W        W23091  15.223   8.804  10.129 -0.1305  0.3189  0.2296
 6908W        W23092   1.056  14.356   5.740  0.1695  0.0832  0.0567
 6909W        W23093  17.245   2.143   0.507  0.0395 -0.1212  0.0236
 6910W        W23094   1.678   8.221   2.145 -0.0953 -0.0545  0.0789
 6911W        W23095   1.967  12.145   5.072 -0.4428  0.0234 -0.0401
 6912W        W23096   3.012   2.154  14.954 -0.0358 -0.0010  0.0735
 6913W        W23097   7.954   6.015  14.011 -0.2502  0.1036  0.1654
 6914W        W23098  11.086   4.794   1.434  0.2188 -0.3639 -0.0260
 6915W        W23099   1.764  11.391  11.324  0.1459  0.1388  0.0811
 6916W        W23100  16.525  14.933   3.975  0.0285  0.1543  0.3110
 6917W        W23101  14.405   9.355   1.803 -0.0817 -0.2613 -0.2376
 6918W        W23102  10.401  12.662   2.179  0.0490 -0.1076 -0.1062
 6919W        W23103  10.952   3.304  12.049  0.0453 -0.1165  0.0643
 6920W        W23104   4.382   0.514   1.804 -0.1476  0.1756 -0.1475
 6921W        W23105  13.855   4.785  14.102  0.0833 -0.1479 -0.0341
 6922W        W23106   5.534   9.017   3.480 -0.1568  0.1714 -0.0516
 6923W        W23107   2.016   8.955  14.666  0.2632  0.0729  0.0750
 6924W        W23108  13.143  12.944   2.755 -0.0110  0.2157 -0.5077
 6925W        W23109   1.688   3.700   2.797 -0.1053 -0.0135  0.2969
 6926W        W23110  13.861  13.616  13.222 -0.1585  0.0557 -0.1215
 6927W        W23111  16.269   9.646   1.112  0.2569  0.2090 -0.1757
 6928W        W23112  12.201  10.696   0.998  0.2722 -0.0036  0.0357
 6929W        W23113  13.194   3.951  13.527 -0.0052  0.1496  0.2018
 6930W        W23114  16.208  14.133   6.054 -0.1409 -0.2931 -0.1099
 6931W        W23115   5.786   6.663   0.175 -0.3290 -0.0740  0.0731
 6932W        W23116  14.640   2.165  10.069  0.1228  0.0598  0.0908
 6933W        W23117   0.491   8.171  13.346 -0.5152 -0.2998  0.3211
 6934W        W23118   5.808  17.700  10.244 -0.0989 -0.0411  0.0942
 6935W        W23119  16.229  17.830  13.109  0.3808 -0.0230 -0.0283
 6936W        W23120  19.245  11.953   3.560 -0.0842  0.4855 -0.0564
 6937W        W23121   7.782   1.132   4.470  0.1790 -0.3704 -0.2840
 6938W        W23122   4.677  13.388   4.099 -0.0470  0.1728 -0.2264
 6939W        W23123   2.038  12.230  13.798 -0.1534 -0.2341 -0.0843
 6940W        W23124  14.070  16.713  13.693 -0.4019  0.1073 -0.0315
 6941W        W23125   3.164  18.631   2.471 -0.0145  0.0572 -0.0501
 6942W        W23126  10.950   1.387  11.046 -0.1450 -0.0975  0.2707
 6943W        W23127   9.833  13.067   3.850 -0.3069  0.2480 -0.0413
 6944W        W23128  16.706  19.346  11.747  0.3839  0.3233 -0.1915
 6945W        W23129   5.644  18.540   2.872 -0.0123  0.2290  0.0065
 6946W        W23130   1.588   9.467   0.915 -0.3287 -0.1238  0.1993
 6947W        W23131  13.482  13.623  11.756  0.3804  0.0280  0.2855
 6948W        W23132  15.729  16.673   0.779  0.1058  0.1883  0.0046
 6949W        W23133  15.079  12.422  14.825 -0.0218 -0.1035  0.3046
 6950W        W23134   4.566  16.835  13.466  0.2937  0.1889  0.0870
 6951W        W23135   7.810   5.953  11.291 -0.0224 -0.0939 -0.0346
 6952W        W23136  14.334   0.911  10.786 -0.0395  0.0585  0.1193
 6953W        W23137  12.727   9.907   0.461  0.0905 -0.0507  0.0994
 6954W        W23138   6.659  12.731   3.969  0.0074 -0.2783  0.4433
 6955W        W23139  17.749   6.926   2.541 -0.3386  0.0348  0.0070
 6956W        W23140  18.127  11.701   1.314 -0.1135  0.0413 -0.4388
 6957W        W23141   9.860  10.739   4.888 -0.0357 -0.0517  0.0259
 6958W        W23142   3.137  12.325  11.062  0.1574  0.3236  0.0527
 6959W        W23143   0.538   6.624  14.302  0.1662  0.0828  0.1529
 6960W        W23144   1.405   6.311  13.875  0.1299 -0.0105  0.0887
 6961W        W23145  10.731  17.529   3.188  0.0973 -0.0992  0.3211
 6962W        W23146  10.244   9.461   2.788 -0.2905 -0.2595 -0.0896
 6963W        W23147  11.178   3.918   4.347  0.3374  0.0091 -0.0180
 6964W        W23148   0.666   8.762   5.001 -0.1148  0.3838 -0.3126
 6965W        W23149  11.653  16.747  12.189 -0.0925 -0.0103  0.3654
 6966W        W23150   9.428   9.216  11.264 -0.3341 -0.0164  0.2115
 6967W        W23151  11.032  10.868  12.835 -0.3503 -0.0120 -0.1492
 6968W        W23152   1.609   2.289   5.779 -0.0338 -0.0668 -0.2342
 6969W        W23153  18.031   9.507   0.800  0.1278  0.3344  0.2074
 6970W        W23154   5.253   3.999   2.494  0.1353 -0.2776  0.0400
 6971W        W23155  13.483  10.329   5.232  0.3361  0.2858  0.1459
 6972W        W23156   9.637  15.879   4.190 -0.3383 -0.0602 -0.0228
 6973W        W23157   2.998   1.191   9.566  0.0144 -0.0834 -0.1098
 6974W        W23158   3.562   1.939  13.198 -0.4541  0.0050  0.0214
 6975W        W23159  18.204   4.723   3.142 -0.1135  0.1824 -0.3933
 6976W        W23160  14.447  18.537  14.742  0.1542 -0.1029 -0.2483
 6977W        W23161  15.737  13.950  14.467  0.0425  0.1488 -0.1073
 6978W        W23162  10.373  16.017   0.406 -0.2287 -0.1581  0.0016
 6979W        W23163  12.344   8.988   1.498  0.0709 -0.5190 -0.0972
 6980W        W23164   9.846  16.757  12.366  0.0641  0.1747  0.1300
 6981W        W23165   5.809  15.543   2.836  0.0534 -0.2863  0.2311
 6982W        W23166   1.457  16.705  10.695 -0.2299 -0.1865  0.1047
 6983W        W23167   1.612   1.703   2.778  0.1165  0.5089 -0.4185
 6984W        W23168   8.402  17.052   3.526  0.0162 -0.2498 -0.2632
 6985W        W23169   4.983   6.602   3.722 -0.1810 -0.0281  0.0209
 6986W        W23170  12.054   2.039  13.807 -0.1390 -0.1672 -0.1898
 6987W        W23171   6.926   2.732   3.168 -0.1616  0.0619 -0.2535
 6988W        W23172   6.123  18.119   1.199  0.2146  0.0026  0.2009
 6989W        W23173   3.869   2.303  10.565 -0.0977  0.1639 -0.0733
 6990W        W23174   2.310  16.694   2.171 -0.1922  0.0114  0.0372
 6991W        W23175   9.923   4.406  14.765 -0.3699  0.1721 -0.1496
 6992W        W23176  16.019   2.861  14.930 -0.1338 -0.1766  0.1579
 6993W        W23177   5.099   9.736  14.871 -0.0209  0.3561  0.2302
 6994W        W23178   2.139  12.164   4.636 -0.1412  0.1839 -0.0392
 6995W        W23179   7.081  13.506   1.409 -0.1122  0.4438  0.0711
 6996W        W23180   5.637  18.265   4.048  0.2511  0.0472 -0.0265
 6997W        W23181   9.370  15.867  12.372  0.0739  0.3469 -0.1272
 6998W        W23182  17.831  10.355   1.784  0.1198 -0.0280  0.1261
 6999W        W23183   5.104  17.155   2.926 -0.1099  0.0124  0.0273
 7000W        W23184  12.724   0.053   0.756  0.1076  0.0712 -0.0084
 7001W        W23185   9.439   5.986  13.816 -0.0347  0.0192  0.1390
 7002W        W23186  17.154   3.866   3.578 -0.1531 -0.0278 -0.1782
 7003W        W23187   9.854  14.552  14.215 -0.2091  0.0259  0.2939
 7004W        W23188   8.966  14.501  13.655 -0.1595 -0.0704  0.0048
 7005W        W23189  15.338   2.284   4.433 -0.2200  0.1344  0.1308
 7006W        W23190   5.714  14.178   3.941 -0.1005 -0.1111 -0.2232
 7007W        W23191   8.918   2.407  12.142 -0.0533 -0.2450 -0.3882
 7008W        W23192  16.231   8.463   4.951  0.1434 -0.1816  0.0258
 7009W        W23193   3.765   3.448   3.020 -0.1912  0.1809 -0.0038
 7010W        W23194  17.370   6.185   2.706 -0.1661  0.1088  0.0320
 7011W        W23195   5.465  19.349  12.655  0.3140  0.0843  0.0619
 7012W        W23196   8.412  18.946   0.018  0.3009  0.0584 -0.2762
 7013W        W23197   7.530   9.922  14.806 -0.1665 -0.1625  0.0769
 7014W        W23198   7.504   1.368  13.235  0.1577 -0.1739 -0.0409
 7015W        W23199  14.720  14.739   4.770  0.0950 -0.1999 -0.0175
 7016W        W23200  14.065  10.872   0.316  0.0795 -0.1996 -0.3041
 7017W        W23201   3.262   2.079   1.765  0.1740 -0.1647  0.0202
 7018W        W23202   2.952   3.472  11.873  0.1039 -0.3945  0.0008
 7019W        W23203   7.856   4.519   0.147 -0.2155  0.1496  0.0972
 7020W        W23204  16.571   9.700   4.222 -0.0052 -0.3384 -0.0081
 7021W        W23205   7.047  18.932   4.520 -0.1925 -0.3251  0.3262
 7022W        W23206   5.897  17.749  12.897  0.0681 -0.0719 -0.0060
 7023W        W23207   9.099   7.540  12.582 -0.1379  0.4130  0.2663
 7024W        W23208   1.754   0.770  10.817  0.2548 -0.2797 -0.4535
 7025W        W23209  17.246   8.039  11.086  0.0889 -0.1006  0.0171
 7026W        W23210   3.388  18.738  11.878  0.0170  0.1535 -0.1999
 7027W        W23211  15.939  12.549   1.252 -0.0780  0.1527  0.0358
 7028W        W23212  10.858   4.091  12.659 -0.1290  0.2727 -0.1210
 7029W        W23213  12.471   2.827   1.381 -0.1646 -0.3516 -0.0742
 7030W        W23214  14.266   6.072   2.400  0.1694 -0.0129  0.0754
 7031W        W23215   7.113  18.926   3.982 -0.4186  0.0617 -0.0318
 7032W        W23216  12.410  18.073  12.438  0.0917 -0.0894 -0.0943
 7033W        W23217  19.205  16.618  13.337 -0.3952 -0.0160 -0.2715
 7034W        W23218   1.798   5.082   1.450 -0.2147 -0.2906  0.3255
 7035W        W23219   0.251  12.774  11.960  0.0255 -0.0997 -0.2636
 7036W        W23220  14.017   6.743   4.117  0.2535  0.1558 -0.4233
 7037W        W23221   0.890  17.762  14.272 -0.4167 -0.0926  0.0778
 7038W        W23222   7.312  17.637   0.846 -0.2104 -0.1351 -0.2273
 7039W        W23223  11.808  15.253   2.025  0.0672 -0.4376 -0.0505
 7040W        W23224   5.329  13.347   0.732  0.0940 -0.0105  0.0887
 7041W        W23225  17.919   0.646  12.330  0.0856 -0.0159 -0.1894
 7042W        W23226   9.142  18.896   0.921 -0.2575  0.1332  0.0617
 7043W        W23227  14.959  12.312   3.267 -0.1574  0.1278  0.2685
 7044W        W23228  16.172   8.790   2.578  0.0961 -0.3256  0.2805
 7045W        W23229  17.381  11.038  13.275 -0.0299 -0.0132 -0.1080
 7046W        W23230  17.863  17.337   1.625  0.3508 -0.1411  0.2519
 7047W        W23231   6.080  17.141   2.594  0.1470  0.0177 -0.0862
 7048W        W23232   3.778   0.685  13.855  0.0999 -0.0238  0.1047
 7049W        W23233   3.691   4.862   4.562 -0.1662 -0.1076 -0.0552
 7050W        W23234  12.518  12.936  13.183  0.2136  0.1644  0.2699
 7051W        W23235  17.853  15.141  14.948 -0.2308 -0.4071  0.3670
 7052W        W23236  16.836   5.246   5.165 -0.1399  0.3904 -0.5277
 7053W        W23237  16.944   8.770  10.511  0.1205  0.0033 -0.1099
 7054W        W23238  13.776   0.572  12.009  0.1397 -0.1348  0.0808
 7055W        W23239  15.757  11.360  12.411  0.0736 -0.0549  0.2093
 7056W        W23240  19.073   5.568   4.616 -0.2311  0.2420  0.0001
 7057W        W23241   3.415   2.324  12.597 -0.3258  0.1418  0.0819
 7058W        W23242  17.849   9.793  12.766  0.1821  0.2128 -0.1062
 7059W        W23243   3.121   9.952   2.690  0.0248 -0.2570  0.2170
 7060W        W23244   3.130  14.607  11.243  0.6977 -0.3498 -0.3201
 7061W        W23245   7.469  13.803   1.473 -0.0022  0.0018 -0.1161
 7062W        W23246   9.368   5.887   3.564 -0.0890  0.0217  0.1047
 7063W        W23247  13.740   8.964  13.791  0.0767  0.1792  0.1387
 7064W        W23248   8.292  11.159  13.008  0.0276  0.2755 -0.1547
 7065W        W23249   3.857   8.841   1.474 -0.1131 -0.1034 -0.3083
 7066W        W23250  18.171  13.029   4.749 -0.0653 -0.2490  0.1471
 7067W        W23251  11.962  17.828  13.120  0.1638  0.2792 -0.2180
 7068W        W23252   6.555  15.566  11.937  0.1511  0.0398 -0.3345
 7069W        W23253  15.221   4.602   0.113 -0.0777  0.3586 -0.2726
 7070W        W23254   7.621  10.178  12.919  0.1848  0.2692  0.1587
 7071W        W23255   2.356  14.458  13.264  0.0166  0.2891  0.4234
 7072W        W23256   4.552   2.253  14.653 -0.0453 -0.3321  0.3756
 7073W        W23257  13.062   4.855   0.140 -0.0125 -0.2024  0.0560
 7074W        W23258   0.758  15.413  13.469 -0.2422 -0.0360  0.2792
 7075W        W23259   8.155  15.190  13.676  0.2121  0.0915 -0.1033
 7076W        W23260  19.065   1.103  13.006 -0.0474 -0.1671  0.1089
 7077W        W23261   5.268  18.258  13.917 -0.1407  0.0703  0.2133
 7078W        W23262  13.373   2.770  14.786 -0.1550 -0.0140 -0.1989
 7079W        W23263  13.114  17.091  13.772  0.0208 -0.0186  0.1684
 7080W        W23264  12.712   2.114  14.786  0.2273 -0.0265 -0.3565
 7081W        W23265  17.605   1.181   2.484 -0.0892  0.1817 -0.2150
 7082W        W23266   2.886   2.177   1.342 -0.1900 -0.2521 -0.0675
 7083W        W23267   9.541   6.834  12.052  0.0152 -0.0077  0.1665
 7084W        W23268   0.577  12.931  10.929  0.0603  0.0096 -0.0798
 7085W        W23269  18.709  12.091  11.360  0.2075  0.0917 -0.0301
 7086W        W23270  16.961  14.837  13.088  0.1450 -0.0409  0.2199
 7087W        W23271  15.082   4.784  11.586 -0.4192  0.0394 -0.1118
 7088W        W23272  18.849  12.488  14.166  0.4179 -0.4895 -0.8517
 7089W        W23273   2.520   3.651  12.483  0.1121  0.1592 -0.0981
 7090W        W23274   5.165  18.846   3.098  0.0642 -0.2169  0.2474
 7091W        W23275   3.730   6.246  13.862  0.0553  0.3130  0.0369
 7092W        W23276  17.571  18.230  12.239  0.4576 -0.0625  0.2554
 7093W        W23277  17.483   8.366  11.635  0.0952  0.1554  0.1422
 7094W        W23278  11.351   3.784  13.918  0.3178 -0.0681 -0.3451
 7095W        W23279   6.596   5.755  14.742 -0.4327 -0.1678  0.2609
 7096W        W23280   3.507   8.054   4.574  0.0223  0.0953 -0.0386
 7097W        W23281  18.971  14.235  10.621  0.1781  0.1953  0.1943
 7098W        W23282   6.896  13.967   2.843  0.0067  0.1166  0.3118
 7099W        W23283  17.155  11.640   1.418 -0.2107 -0.1882 -0.1903
 7100W        W23284   9.647   8.862  13.906 -0.0693 -0.2356 -0.0062
 7101W        W23285   8.916  10.358  11.819 -0.2925  0.1413 -0.0818
 7102W        W23286   3.845  14.355   3.092 -0.1946  0.2040 -0.1218
 7103W        W23287   2.762   9.964  12.694 -0.0105 -0.1266  0.1887
 7104W        W23288  10.278  11.888  12.334 -0.0076 -0.0391 -0.0856
 7105W        W23289   0.929   4.109   2.817 -0.2996  0.0932  0.2664
 7106W        W23290  11.187  10.187  10.014 -0.2452 -0.1155  0.1416
 7107W        W23291  18.453  17.537  12.382  0.0394  0.0399 -0.1669
 7108W        W23292   1.960  11.445  12.674  0.0941 -0.1926 -0.2322
 7109W        W23293  17.495  11.483  10.892 -0.0805 -0.2220  0.2110
 7110W        W23294  18.510  14.414   1.001 -0.0755  0.1403  0.0062
 7111W        W23295   0.185   7.898   3.804 -0.2283  0.0167  0.1213
 7112W        W23296   8.460  17.759   4.134  0.0661 -0.0429 -0.0367
 7113W        W23297   1.031   3.809  10.959  0.0352  0.0388  0.1054
 7114W        W23298   3.718  12.684   0.794 -0.1325 -0.0834  0.2235
 7115W        W23299  12.358  12.732  10.195  0.2312  0.0568 -0.0852
 7116W        W23300   4.494   8.675  13.951  0.2014 -0.1289 -0.1559
 7117W        W23301  14.422   6.581   0.545  0.4061  0.0201 -0.0952
 7118W        W23302   1.285   6.344   4.000  0.1758  0.0356  0.0761
 7119W        W23303  18.284  14.315   0.550 -0.1254 -0.1340 -0.0391
 7120W        W23304   0.323  16.860  12.371  0.1459 -0.3039  0.0069
 7121W        W23305   6.231  17.943  11.464 -0.1967  0.1370  0.0233
 7122W        W23306  12.430  13.663  10.779  0.0325  0.1222 -0.1098
 7123W        W23307   0.144   0.836   0.506 -0.2606  0.0106 -0.2160
 7124W        W23308  17.595   7.317   9.013  0.0881 -0.0321 -0.2750
 7125W        W23309   7.746   4.804   0.963 -0.0702  0.1867 -0.2561
 7126W        W23310  11.139  15.231  13.755  0.0390  0.2094 -0.0876
 7127W        W23311  14.283  10.233   4.212 -0.0946 -0.1889  0.0584
 7128W        W23312  10.910   7.214   4.641 -0.0580 -0.0293 -0.0444
 7129W        W23313   3.104   0.547  10.807  0.1364 -0.1504 -0.2853
 7130W        W23314  13.456   5.036  13.982  0.2743 -0.1968 -0.0657
 7131W        W23315  16.343  15.494  10.839  0.0498  0.2279  0.2509
 7132W        W23316   3.575   9.077  14.134  0.1221  0.0913  0.0485
 7133W        W23317  11.566  11.613   2.267  0.1556  0.3935 -0.0888
 7134W        W23318  12.157   1.555   3.403  0.0735 -0.4448 -0.0306
 7135W        W23319  13.365   3.420   0.082  0.0966  0.0593 -0.3027
 7136W        W23320  16.876  15.061  11.827  0.0562  0.0243  0.1333
 7137W        W23321  11.632   0.988   9.675 -0.0881 -0.0783 -0.2226
 7138W        W23322   3.927   0.990   9.812 -0.0204 -0.1491 -0.1684
 7139W        W23323  11.388  17.801   2.028  0.0324  0.2174  0.0136
 7140W        W23324  13.497  18.641   2.504  0.0088  0.2551 -0.1750
 7141W        W23325   9.096   9.511  14.246  0.3450  0.0132  0.0960
 7142W        W23326   0.252  18.544   3.278 -0.0920 -0.0066 -0.5020
 7143W        W23327  15.896  11.251  10.657 -0.1777  0.0627  0.1438
 7144W        W23328   1.969  13.005  13.053 -0.1641  0.2586  0.1090
 7145W        W23329  13.465  17.432   0.976 -0.1876 -0.1907  0.0290
 7146W        W23330   7.458  17.353  12.014 -0.0310  0.1981 -0.4214
 7147W        W23331  18.445  17.022   2.772 -0.1651 -0.1795  0.1059
 7148W        W23332  18.200  11.288   1.606 -0.1129 -0.1605 -0.0522
 7149W        W23333  11.647  18.202   2.326  0.2875 -0.0889 -0.1607
 7150W        W23334   5.544  15.217   3.115  0.1539 -0.2047  0.1565
 7151W        W23335   1.013  18.576  13.696  0.0601  0.2428 -0.1584
 7152W        W23336   7.474   7.952   4.250 -0.2313 -0.1832  0.0668
 7153W        W23337   5.753   9.982   2.948 -0.1034  0.0595  0.1483
 7154W        W23338  15.080  14.702   2.875  0.0105 -0.3519  0.0121
 7155W        W23339   2.058   6.395  10.974  0.3959 -0.0872  0.0687
 7156W        W23340   5.210   9.293  13.784 -0.0415  0.0182  0.5157
 7157W        W23341   5.466   9.050  13.087 -0.2585  0.2914 -0.0617
 7158W        W23342  15.016  17.380  12.968  0.1524 -0.0640  0.0824
 7159W        W23343   7.485  18.995  11.476  0.1235  0.1732 -0.1855
 7160W        W23344   6.156  16.643  12.348 -0.0471  0.0155  0.0693
 7161W        W23345   4.690  13.144   1.393 -0.3072  0.0350 -0.2517
 7162W        W23346   3.107  12.977  14.748  0.2479  0.3418  0.0170
 7163W        W23347   4.805   8.863  12.311 -0.1585  0.2756  0.3381
 7164W        W23348  14.976   0.788   1.459  0.0634 -0.2452 -0.1696
 7165W        W23349   8.185  19.301   1.105 -0.2064  0.1930  0.0961
 7166W        W23350  12.539  15.914  11.261  0.2823 -0.0131 -0.1653
 7167W        W23351  16.275   9.068   1.201 -0.2244  0.0195  0.0705
 7168W        W23352  17.634   2.417  12.062  0.0015 -0.1224 -0.2062
 7169W        W23353  10.276  16.555   4.249  0.5042 -0.1199  0.0142
 7170W        W23354   8.254   0.911   0.926 -0.2252  0.3599 -0.2111
 7171W        W23355  10.912  11.558   3.365  0.0513 -0.1387  0.0305
 7172W        W23356   5.278  17.594  14.789  0.2578  0.0839 -0.0493
 7173W        W23357  10.640  14.556  14.595 -0.2048  0.6916 -0.1888
 7174W        W23358   1.064  16.334  11.464 -0.1145  0.3999  0.1088
 7175W        W23359   7.506   0.463  12.774 -0.1475  0.2387 -0.1735
 7176W        W23360   5.341   9.463   3.285  0.1962 -0.1410 -0.0022
 7177W        W23361  10.900  17.197   4.535 -0.0613 -0.0394  0.3761
 7178W        W23362  12.802  12.313  12.481 -0.3633  0.0395 -0.1840
 7179W        W23363  14.964  18.003   5.232 -0.2053 -0.2040  0.0409
 7180W        W23364  18.602   1.715   4.471  0.2058 -0.0503  0.0565
 7181W        W23365  14.905  10.913  11.596  0.1833 -0.1456  0.1098
 7182W        W23366   7.328   8.402   5.357 -0.1617 -0.1052 -0.5210
 7183W        W23367  16.460  13.601  12.756 -0.0041  0.2377 -0.1206
 7184W        W23368  15.669  11.181  12.897  0.0368  0.1183 -0.1571
 7185W        W23369  13.997  18.213  12.961  0.1184 -0.2518  0.0503
 7186W        W23370   4.708  17.820  12.143 -0.1630  0.0571 -0.0554
 7187W        W23371   7.501  13.832   0.946 -0.2744  0.0410  0.2104
 7188W        W23372  13.772   2.696   2.888 -0.3047  0.0536 -0.3061
 7189W        W23373   2.028   3.531  10.695 -0.0222  0.1874 -0.2212
 7190W        W23374  12.526   0.367   2.523  0.3572 -0.0586  0.2380
 7191W        W23375   0.756   6.608  13.833 -0.2240  0.1455 -0.0023
 7192W        W23376  13.883  11.588  14.714 -0.0439 -0.2382 -0.1187
 7193W        W23377  16.346   4.764   3.937 -0.0822  0.3143 -0.1073
 7194W        W23378  16.422   9.468  14.257 -0.1449  0.1358  0.1547
 7195W        W23379   9.555  12.672   0.710 -0.0839 -0.1593  0.0436
 7196W        W23380  13.129   4.134   1.270  0.0980  0.0007 -0.1466
 7197W        W23381   1.702   4.485   0.336  0.0658 -0.3704  0.0806
 7198W        W23382   8.695  14.642   5.734 -0.1828 -0.1151  0.1327
 7199W        W23383   1.139  16.248   5.556 -0.0459  0.1243 -0.0274
 7200W        W23384   7.264   7.390   5.325  0.2936  0.1595 -0.1229
 7201W        W23385  10.628  12.508  13.085 -0.2426 -0.1549  0.1177
 7202W        W23386   4.782   1.258  10.541  0.0134 -0.0477  0.1691
 7203W        W23387  14.398   9.012   4.572  0.0149 -0.0108  0.0882
 7204W        W23388   2.121   7.838   3.816  0.1476 -0.0749  0.4877
 7205W        W23389  16.930  10.270   1.789 -0.0858 -0.0996  0.0445
 7206W        W23390  13.800  10.668   2.238  0.1071 -0.3237  0.3312
 7207W        W23391   8.552  10.444  11.514 -0.4599 -0.1598 -0.0176
 7208W        W23392  11.170   3.125  11.089 -0.1772 -0.1680 -0.0018
 7209W        W23393  12.197   4.809   1.566  0.0195 -0.1488 -0.2013
 7210W        W23394   6.086  15.381  13.658  0.1433  0.1237  0.0618
 7211W        W23395   6.825   4.034   0.028 -0.1576  0.3014 -0.2420
 7212W        W23396  14.392   5.813   2.950 -0.1240 -0.1511 -0.3193
 7213W        W23397   3.919   7.128   3.341 -0.1495  0.0160 -0.0473
 7214W        W23398   3.061  12.775   3.096  0.3512 -0.0178 -0.0921
 7215W        W23399  12.884   1.191  11.496  0.1213  0.3359 -0.1288
 7216W        W23400  13.864  12.089   0.601 -0.0786  0.1355  0.0208
 7217W        W23401  11.680   0.050  12.518 -0.2319 -0.1014  0.0021
 7218W        W23402   1.724   9.119  12.674 -0.1325  0.2043 -0.0200
 7219W        W23403  16.956  11.642   0.280  0.0192 -0.3027 -0.2630
 7220W        W23404  17.192   1.924   3.461 -0.0959 -0.0522  0.0737
 7221W        W23405  18.985   4.454   1.493  0.1100  0.0553 -0.0925
 7222W        W23406   6.307   6.313   2.267 -0.0007 -0.0482 -0.0691
 7223W        W23407  17.770  10.719   4.356  0.5744  0.0969  0.3890
 7224W        W23408   1.995  12.311   1.107  0.4226  0.3696 -0.0840
 7225W        W23409   3.771  14.280  13.750  0.1415 -0.1293  0.0240
 7226W        W23410  17.174   1.027   3.814  0.1101 -0.2015  0.1890
 7227W        W23411   4.390   7.560  14.731 -0.0475  0.0486 -0.0087
 7228W        W23412   6.973   1.220  10.268 -0.1253  0.0785  0.2346
 7229W        W23413  11.294   4.946  10.948 -0.1806  0.1124 -0.0212
 7230W        W23414   4.993  18.591  12.026  0.0126  0.0416 -0.1937
 7231W        W23415   0.192  13.573  14.649 -0.0078  0.1721  0.2338
 7232W        W23416  17.002  16.791  12.219 -0.0537  0.0234 -0.2128
 7233W        W23417   1.973   4.582   4.080 -0.1006  0.1064 -0.1033
 7234W        W23418   6.611  15.306  12.852  0.0121  0.4665 -0.2796
 7235W        W23419   7.457   7.952   9.195 -0.1555 -0.1522  0.0272
 7236W        W23420   8.252   9.235  10.486 -0.0795  0.3037 -0.0056
 7237W        W23421   1.746   6.719  13.596 -0.0880 -0.0253 -0.1042
 7238W        W23422  18.709  11.250  14.333 -0.4916 -0.0834 -0.5472
 7239W        W23423   8.454  10.911   0.533  0.0244 -0.0276  0.0125
 7240W        W23424  12.029   9.812  14.705  0.1576 -0.1800 -0.2206
 7241W        W23425  18.482  12.212   3.225 -0.4309  0.0933 -0.0366
 7242W        W23426  11.649  16.689   2.069  0.2504  0.1608  0.0848
 7243W        W23427   2.982   0.676  11.920  0.1593 -0.1992 -0.1159
 7244W        W23428   7.944   0.062   5.285 -0.4781  0.1803  0.1806
 7245W        W23429  14.964   1.166   5.111 -0.4508 -0.0485  0.1719
 7246W        W23430  14.049  11.554  12.482  0.0439 -0.2393 -0.2059
 7247W        W23431  10.778  18.643   4.353  0.0432  0.0082 -0.2176
 7248W        W23432  12.510   0.776   2.856 -0.0853 -0.2595  0.0865
 7249W        W23433  12.799  18.959  14.222 -0.1221 -0.1972 -0.1246
 7250W        W23434   0.119   9.390   1.434 -0.0592  0.1663 -0.0128
 7251W        W23435   6.233   9.266  14.559  0.2028  0.2410  0.3012
 7252W        W23436   2.555  10.002  14.744  0.1129 -0.2006 -0.0718
 7253W        W23437  19.242   3.965   1.293  0.0936  0.1228  0.1179
 7254W        W23438   0.026  16.347   4.269  0.2220  0.2505 -0.3127
 7255W        W23439  13.893  17.944  13.809  0.2290 -0.3541 -0.0351
 7256W        W23440   8.828   2.292   0.367 -0.2595 -0.1429  0.1712
 7257W        W23441   8.638  17.173   0.208 -0.4512  0.1453  0.0348
 7258W        W23442   1.498  14.961   2.827 -0.1432 -0.3095 -0.1277
 7259W        W23443   4.332   9.657   5.098 -0.1750  0.1961 -0.1698
 7260W        W23444  15.274  14.691   3.561  0.2119  0.0383  0.0908
 7261W        W23445   3.128   1.189   1.836 -0.0467  0.1726 -0.1952
 7262W        W23446  16.485   9.125   2.729  0.2380 -0.0718  0.0936
 7263W        W23447  12.944  14.945   1.634 -0.0088  0.3103 -0.0878
 7264W        W23448  13.225   0.829   0.783 -0.1348  0.0871 -0.1346
 7265W        W23449   0.073   8.088   0.422  0.0692 -0.0685  0.2027
 7266W        W23450  18.814  11.592  11.437 -0.0929 -0.0499  0.0437
 7267W        W23451  18.293   9.151   2.633 -0.0433  0.2050 -0.0631
 7268W        W23452  11.784  11.110   2.105  0.3851 -0.1498 -0.3649
 7269W        W23453  11.897  15.740  10.122  0.0446 -0.2813 -0.0988
 7270W        W23454   6.646   2.069   3.881 -0.0248 -0.0671  0.0814
 7271W        W23455   6.637   7.261  10.346 -0.0028  0.0021 -0.3545
 7272W        W23456  13.051  15.346  11.946  0.1183  0.5375 -0.1476
 7273W        W23457  14.229   8.772   5.012  0.0846  0.2866 -0.0092
 7274W        W23458  18.186   3.588  10.513 -0.4556  0.1685  0.0289
 7275W        W23459  10.076   2.681   3.398 -0.1190  0.2595  0.0031
 7276W        W23460   2.645   5.995   2.875 -0.3574 -0.1620 -0.2472
 7277W        W23461   9.485   6.904  10.114 -0.2040  0.0944 -0.2016
 7278W        W23462  13.484  16.512   2.382  0.4434 -0.4825  0.0821
 7279W        W23463   8.912  16.198   1.284  0.0508 -0.0309  0.1050
 7280W        W23464   5.733   0.764   4.234  0.4033 -0.0876 -0.0063
 7281W        W23465  16.716  14.906   1.136  0.2357  0.0159  0.3970
 7282W        W23466   6.152   1.360  10.896 -0.1095  0.1430  0.1911
 7283W        W23467  16.380  15.227  11.326  0.1832  0.0413  0.1806
 7284W        W23468   4.706  13.822   3.863  0.0851  0.0429 -0.0797
 7285W        W23469  13.169  18.678   0.557  0.0505 -0.1755 -0.0236
 7286W        W23470  11.611   0.711   4.953  0.1203  0.1875 -0.0609
 7287W        W23471  17.620   2.227  13.426 -0.1772  0.1345  0.1472
 7288W        W23472   6.083  11.798   0.613  0.0681 -0.2137  0.1541
 7289W        W23473  10.535  11.320  10.520  0.1317  0.1051  0.3990
 7290W        W23474   7.629  16.842   5.468 -0.0289 -0.1418 -0.2692
 7291W        W23475  16.432  12.185   1.905 -0.1076  0.2399  0.0689
 7292W        W23476   1.358  10.261  12.521 -0.0169 -0.3898 -0.0949
 7293W        W23477   6.949   8.195   0.993 -0.0828 -0.0768 -0.0597
 7294W        W23478  16.979  15.488   2.297  0.1444 -0.1789 -0.0844
 7295W        W23479   5.705   2.151  10.819 -0.1970  0.0371  0.1539
 7296W        W23480  15.078  17.854  10.684 -0.3093 -0.2129 -0.0376
 7297W        W23481  11.199   6.713   0.517 -0.1271 -0.3228 -0.0374
 7298W        W23482  15.526  12.676   1.853  0.2863 -0.2664  0.0498
 7299W        W23483   2.913  17.857  11.729 -0.0593 -0.1378 -0.0961
 7300W        W23484   0.755   2.922  12.511  0.0177  0.4084  0.2480
 7301W        W23485  14.783  14.227   4.117  0.1146 -0.0677  0.1567
 7302W        W23486  11.241  11.370  13.774  0.0448 -0.2977 -0.0154
 7303W        W23487  16.863  18.101   4.848  0.1805  0.0374 -0.0169
 7304W        W23488   7.227   8.093   3.109 -0.0327  0.2026 -0.1864
 7305W        W23489   8.895   4.532   4.373 -0.1670 -0.1588 -0.1406
 7306W        W23490  18.318  19.272  12.854  0.0440 -0.1818 -0.0889
 7307W        W23491  10.963  15.135   1.508  0.0465  0.0699 -0.0734
 7308W        W23492  17.852   8.662  10.432 -0.0071  0.2789 -0.2698
 7309W        W23493   7.533   7.055   0.689  0.0441  0.1226 -0.0188
 7310W        W23494   8.950  13.239  14.675  0.2600 -0.2029 -0.1448
 7311W        W23495  13.382   8.165   2.200 -0.0790  0.2304 -0.0323
 7312W        W23496   0.797  11.858   0.704 -0.4869 -0.0971  0.0306
 7313W        W23497  10.994  11.391   0.401  0.1118  0.3810 -0.1811
 7314W        W23498  12.543   8.850   4.142 -0.0547  0.1624  0.2174
 7315W        W23499  16.960   0.524   2.014 -0.2024 -0.1648 -0.0126
 7316W        W23500   4.064   2.303   3.480  0.0402  0.0660 -0.0870
 7317W        W23501  18.401   8.772   2.333  0.4037  0.2963  0.1112
 7318W        W23502   0.309   8.170  12.233  0.2184 -0.2219  0.0670
 7319W        W23503   1.919   6.404  14.843 -0.0069  0.2999 -0.0567
 7320W        W23504  18.262  12.868  11.947  0.1634  0.2478  0.2744
 7321W        W23505   2.202  17.252  11.200 -0.0368  0.2522 -0.1480
 7322W        W23506   3.655   8.155  12.480  0.2400 -0.2487  0.0591
 7323W        W23507   4.744   1.955  13.835 -0.2504  0.0953  0.0598
 7324W        W23508  11.359  11.834   4.611  0.2602  0.2446 -0.1022
 7325W        W23509   4.791   3.809   1.850  0.0286 -0.0441  0.0793
 7326W        W23510  10.481  12.962  13.837  0.1093 -0.0380 -0.1179
 7327W        W23511   9.339   7.566   2.425 -0.1998 -0.1570 -0.3161
 7328W        W23512   9.263   7.380   0.671 -0.0129  0.2109  0.0337
 7329W        W23513   5.789  15.531  14.626 -0.3988 -0.0279  0.1335
 7330W        W23514  17.021   5.242   0.950 -0.3572 -0.0943 -0.0149
 7331W        W23515  14.264  14.710  11.468 -0.0448  0.1458  0.0758
 7332W        W23516   1.818   2.383   0.323  0.0772  0.2860 -0.1752
 7333W        W23517  15.015   7.082  11.415  0.0433  0.3561 -0.2338
 7334W        W23518   6.791   3.687  11.781 -0.1861 -0.2606  0.0160
 7335W        W23519  16.820   9.234  14.005  0.1496  0.2813 -0.2901
 7336W        W23520  10.392   3.463   2.569  0.2223 -0.2554 -0.0924
 7337W        W23521  16.190  11.874  13.539 -0.1560  0.0425 -0.1978
 7338W        W23522  16.406   8.093   3.732 -0.1317  0.4460  0.1841
 7339W        W23523   8.712  19.202   1.866 -0.1668 -0.3224  0.1279
 7340W        W23524  13.928  12.460  12.442 -0.2471  0.3874 -0.0320
 7341W        W23525   2.044   6.493   4.213 -0.0528 -0.2479  0.2645
 7342W        W23526  11.487  17.790   3.239 -0.1980  0.3648 -0.0325
 7343W        W23527   3.180   2.594   1.297 -0.0529 -0.1940  0.0579
 7344W        W23528   1.142   8.416  13.490  0.3490 -0.1680 -0.1334
 7345W        W23529   4.122   2.150  13.188  0.2178  0.2047 -0.0250
 7346W        W23530   6.327   3.603  10.264 -0.0049 -0.0832 -0.2336
 7347W        W23531   2.204   2.810   4.581  0.2187  0.1685 -0.1836
 7348W        W23532   5.864   6.339  12.549  0.0613  0.0086 -0.0112
 7349W        W23533   3.672   0.528   3.514  0.2486 -0.0781  0.0819
 7350W        W23534   1.735   1.694   3.662 -0.2377 -0.1522 -0.0685
 7351W        W23535  16.891   1.831  13.078 -0.1301 -0.0717  0.1147
 7352W        W23536   6.732   2.828  14.177  0.0858 -0.2191  0.1838
 7353W        W23537  12.021  14.290   4.579 -0.0869  0.1875  0.1239
 7354W        W23538  12.540  10.431   3.239  0.0837  0.0089 -0.3244
 7355W        W23539  10.855  18.675   1.882 -0.2511  0.0629 -0.1705
 7356W        W23540   7.875   4.135   3.217 -0.2477 -0.0145  0.3363
 7357W        W23541  14.895   9.459   1.250 -0.0060 -0.0359 -0.3707
 7358W        W23542   5.851  14.123   4.425 -0.1133  0.2774 -0.0671
 7359W        W23543   8.779   2.586   1.504  0.0905  0.1224 -0.0505
 7360W        W23544  18.841  12.198   3.520 -0.2083  0.1443 -0.2581
 7361W        W23545  18.801   9.787  13.763 -0.0825  0.1285  0.0520
 7362W        W23546   7.610  15.624   1.432  0.3657 -0.0284  0.3470
 7363W        W23547   8.694  13.080   1.138  0.0952 -0.1452  0.2952
 7364W        W23548  15.484   3.053  10.400  0.1997  0.1409 -0.1363
 7365W        W23549   6.244   0.345  14.971 -0.1825  0.2093  0.0678
 7366W        W23550  15.190  14.960  11.869  0.0805 -0.0515  0.3596
 7367W        W23551   5.537  12.324  12.636 -0.2470  0.0185  0.0441
 7368W        W23552  11.240   2.143   4.403  0.0997  0.0852 -0.1237
 7369W        W23553  17.644   3.816   3.443  0.1155  0.1941  0.2283
 7370W        W23554  16.071  18.324  11.036 -0.2138  0.1630 -0.0468
 7371W        W23555  15.863  18.180  11.707  0.0787 -0.3985  0.3643
 7372W        W23556   2.992   4.896   4.659  0.0151 -0.2396  0.1100
 7373W        W23557  12.187  12.418   4.247 -0.2669 -0.0625 -0.1570
 7374W        W23558   3.193   3.930  11.591  0.1676  0.1237 -0.2897
 7375W        W23559   4.095   3.577  13.652 -0.0915 -0.0099 -0.2135
 7376W        W23560   0.002  18.679   2.821  0.1358 -0.0078 -0.0076
 7377W        W23561  17.636   8.542  14.939  0.1232 -0.0411 -0.2590
 7378W        W23562   5.751   5.856  10.952 -0.0088  0.3435  0.3681
 7379W        W23563  18.251  13.889   3.665  0.4111 -0.1218 -0.0152
 7380W        W23564   3.759   2.548  13.039  0.1353  0.5259  0.0818
 7381W        W23565   1.500   6.613   1.410  0.2822  0.1976  0.0603
 7382W        W23566   7.936  10.477   3.639  0.0156  0.0795 -0.5138
 7383W        W23567   0.430   6.238   0.614 -0.0868 -0.2515 -0.1851
 7384W        W23568   6.440   6.012   1.603  0.0307  0.0756 -0.0032
 7385W        W23569  18.314  11.626  11.413  0.0097 -0.4388 -0.0657
 7386W        W23570  16.220   4.046   9.669 -0.1559 -0.0769  0.0420
 7387W        W23571  18.503  15.621  10.984  0.0361  0.3250 -0.1500
 7388W        W23572  19.075   6.988   4.785  0.0269  0.3087 -0.2185
 7389W        W23573  19.246   8.057   1.561 -0.1694  0.0776 -0.0395
 7390W        W23574   7.330  16.128  10.662  0.0920  0.1729  0.2559
 7391W        W23575  18.469  13.362  12.760 -0.2211 -0.2416 -0.0316
 7392W        W23576  13.202  11.584   2.683  0.0096  0.0797 -0.1084
 7393W        W23577   9.597   7.472   5.092 -0.0803  0.0708 -0.0976
 7394W        W23578   4.445  13.601   0.904 -0.2228  0.0799  0.1581
 7395W        W23579   8.635  14.723  14.526 -0.2273 -0.1621  0.0257
 7396W        W23580  16.709  19.054  12.500 -0.0766  0.2360  0.0070
 7397W        W23581   7.406   5.503   9.592  0.2135 -0.1170  0.2697
 7398W        W23582  17.503   5.947  10.346  0.0845  0.2827  0.2574
 7399W        W23583  11.289  17.983   4.246  0.2251  0.1801 -0.0156
 7400W        W23584   2.289  14.025   2.643  0.4356  0.2589  0.0295
 7401W        W23585  19.340   6.073  10.735 -0.0867  0.0827 -0.2659
 7402W        W23586   1.128   8.097   1.890  0.2600 -0.0654 -0.0883
 7403W        W23587   7.781  11.336   0.773 -0.1432 -0.0910 -0.2496
 7404W        W23588  17.855  13.428   2.576  0.1445  0.1254 -0.2918
 7405W        W23589  17.249   8.826   3.381  0.3070  0.3056  0.3097
 7406W        W23590   8.767   7.193  12.489  0.1839 -0.2751 -0.2229
 7407W        W23591   0.846  17.239  10.511 -0.4119  0.0572  0.2391
 7408W        W23592  18.915   0.385   3.621 -0.1163  0.0859  0.0242
 7409W        W23593  15.483  13.912  12.109  0.2632 -0.3171  0.0599
 7410W        W23594   4.177  10.907   4.324 -0.0411  0.2433  0.1856
 7411W        W23595   0.167  18.052   5.058  0.0509 -0.6250 -0.1248
 7412W        W23596  11.691  12.059   3.045  0.0762 -0.1425  0.1129
 7413W        W23597  14.263  15.756  12.997 -0.1859 -0.1218 -0.1899
 7414W        W23598   0.818   3.151   4.876  0.2089  0.0597  0.0876
 7415W        W23599  12.219  12.353  10.816  0.1216 -0.2199 -0.2402
 7416W        W23600  17.996   2.024   1.339  0.0934  0.2906  0.0588
 7417W        W23601   6.998   4.477   2.744 -0.2259  0.0773  0.1179
 7418W        W23602  17.154  13.505  10.885  0.0331  0.1117 -0.0032
 7419W        W23603   2.517   3.557  13.059  0.1181 -0.2697 -0.1143
 7420W        W23604  16.048   8.929   1.801  0.0797  0.1658 -0.0315
 7421W        W23605   4.073   5.758   2.404  0.0985  0.3050  0.0645
 7422W        W23606   4.891  16.522  11.819 -0.3986 -0.1025  0.0952
 7423W        W23607   6.969  12.434  11.389 -0.1764 -0.0071  0.2129
 7424W        W23608  15.879   6.381   0.301  0.0741  0.1709 -0.0330
 7425W        W23609   2.384  16.285  12.048 -0.1845 -0.0234  0.0415
 7426W        W23610  17.503   7.304  13.432 -0.0018 -0.0975  0.2013
 7427W        W23611   7.212   0.293   0.371  0.0872 -0.4019 -0.3512
 7428W        W23612   4.126  12.455   4.426 -0.3796 -0.3017  0.2655
 7429W        W23613  12.843   8.707  13.176 -0.1493 -0.0747  0.0001
 7430W        W23614   0.538   0.935  11.608 -0.0049  0.1639  0.0393
 7431W        W23615   2.480  18.053  11.856  0.0836 -0.0417  0.3060
 7432W        W23616   7.975   9.100   2.952  0.4335 -0.4079  0.1671
 7433W        W23617  17.538  13.490  11.585  0.2201 -0.0567  0.2692
 7434W        W23618   4.818  11.832  11.621  0.1168 -0.1839 -0.1954
 7435W        W23619   4.270  11.209   3.949  0.0173 -0.4791  0.2046
 7436W        W23620  11.047  13.152   4.005 -0.2076 -0.0639 -0.1346
 7437W        W23621   6.828  12.922  11.091  0.2160 -0.0742 -0.3896
 7438W        W23622  12.959   3.866  10.872  0.0147 -0.1256 -0.1101
 7439W        W23623  14.343   6.381  14.972 -0.1083 -0.1833 -0.0339
 7440W        W23624  17.488   2.949  12.085  0.0295 -0.0838 -0.1969
 7441W        W23625   8.742   0.417   5.573 -0.0521  0.1849 -0.4883
 7442W        W23626  10.914   6.393  14.052 -0.1517  0.2193 -0.0415
 7443W        W23627   6.578  19.220  13.179  0.0318  0.1732  0.4190
 7444W        W23628  12.577  17.642   0.552  0.1468  0.2781 -0.0070
 7445W        W23629   7.864  15.560  12.571  0.3894 -0.0655  0.1669
 7446W        W23630   2.934   9.829   0.779  0.2283  0.3951  0.1337
 7447W        W23631   2.417   7.197   9.654  0.1734  0.0515 -0.1956
 7448W        W23632   5.090   4.025  13.083 -0.1847  0.0224  0.3770
 7449W        W23633   7.584  10.335  11.964 -0.2582 -0.3342  0.3999
 7450W        W23634  14.867  17.783  14.226  0.2669 -0.0435 -0.0448
 7451W        W23635   8.479   0.477   2.412 -0.0323 -0.2364  0.0854
 7452W        W23636   6.708  12.883   1.682 -0.2171  0.0539  0.2162
 7453W        W23637   5.457   3.330  13.313 -0.0093 -0.0774  0.1793
 7454W        W23638   5.716  13.681   3.663  0.0768  0.0746 -0.0594
 7455W        W23639  18.022   8.205  13.960  0.1663 -0.0424  0.3700
 7456W        W23640   9.379   4.016   5.036  0.0632  0.1287  0.0193
 7457W        W23641   1.806  19.237   4.306 -0.1182 -0.5232 -0.0160
 7458W        W23642  18.165  12.416   9.807 -0.3313 -0.1752 -0.2937
 7459W        W23643  12.184  15.627   4.412 -0.0010  0.0681  0.1438
 7460W        W23644  10.010  16.816  12.920  0.2109  0.0934  0.2813
 7461W        W23645   9.484   0.514   2.011  0.1724  0.2712 -0.2887
 7462W        W23646   4.644  10.238   2.874  0.2787  0.0940  0.4538
 7463W        W23647  13.353   6.196  14.715 -0.2884  0.1013 -0.2901
 7464W        W23648   5.677   1.545   0.844 -0.0484  0.1009  0.0916
 7465W        W23649   3.592   8.414   4.123  0.0868 -0.1145 -0.2269
 7466W        W23650  12.300   5.608   3.889  0.0404 -0.0279 -0.2639
 7467W        W23651   1.631  16.262  10.816  0.0486  0.0013  0.0744
 7468W        W23652  17.827   5.104  11.037 -0.1587  0.0243  0.0553
 7469W        W23653  18.834  14.345   2.531 -0.0808 -0.4109  0.1449
 7470W        W23654   4.182   7.050  14.604  0.1697  0.0455 -0.0330
 7471W        W23655   4.281   5.845   0.894  0.1438 -0.1948 -0.4033
 7472W        W23656  12.871  18.401   4.441  0.3539 -0.3361  0.4016
 7473W        W23657   7.774   6.881  11.476  0.1000 -0.4236  0.1483
 7474W        W23658  19.070   9.351  13.086 -0.4901  0.2677 -0.2942
 7475W        W23659   0.346  17.192   3.782 -0.3731 -0.1387  0.0877
 7476W        W23660   8.943   2.888  10.757 -0.3505  0.1884 -0.3304
 7477W        W23661   7.187  18.529  13.479  0.1398  0.0112 -0.2763
 7478W        W23662  18.853  19.196  14.668 -0.1435 -0.2937  0.4588
 7479W        W23663   9.106  13.408  10.797 -0.1323 -0.0150  0.2074
 7480W        W23664  15.908   0.068   4.799 -0.0967 -0.0323 -0.2846
 7481W        W23665   9.016   9.270   5.004 -0.1525 -0.0095  0.1678
 7482W        W23666  14.109  12.523  13.794  0.0221 -0.0524  0.2465
 7483W        W23667  18.349  16.671   1.442  0.2907  0.0776  0.3569
 7484W        W23668  13.684  12.990   0.225  0.1326  0.1486  0.1509
 7485W        W23669   6.028   3.479  14.337 -0.5180  0.2742  0.0832
 7486W        W23670  18.130  12.765   1.791  0.2045 -0.0902 -0.0520
 7487W        W23671   7.870   6.372  14.873 -0.0224 -0.0503 -0.0324
 7488W        W23672  10.247   1.732  11.248 -0.2897  0.0511 -0.2027
 7489W        W23673   4.836   5.659   1.368 -0.0553 -0.2341  0.3973
 7490W        W23674   4.706   6.446  11.896  0.0547  0.0501 -0.0863
 7491W        W23675   9.636  11.417  13.731  0.0464  0.2769  0.0282
 7492W        W23676  13.278   4.185  11.183  0.2120  0.3217  0.0239
 7493W        W23677   1.404  12.886  14.730 -0.0649 -0.1470 -0.0477
 7494W        W23678  18.790  12.507  12.365 -0.1433  0.0764 -0.2426
 7495W        W23679   4.054   5.837   0.112  0.0430  0.0652 -0.0945
 7496W        W23680  16.935   3.939  13.660 -0.1759  0.1557 -0.2764
 7497W        W23681  14.613   9.587   2.485  0.3899 -0.0105  0.0135
 7498W        W23682  18.132   1.248  12.498 -0.1904 -0.1356 -0.0185
 7499W        W23683  18.540  11.353  12.846  0.1247  0.2743 -0.1138
 7500W        W23684  16.576  12.273  13.142  0.0671  0.0676  0.1691
 7501W        W23685  17.990   8.524   3.975  0.0000  0.1877  0.2339
 7502W        W23686   9.342  16.695  11.935  0.3719  0.0117 -0.2678
 7503W        W23687  10.037  10.388   4.583  0.0633  0.3185 -0.2391
 7504W        W23688  18.122  17.946  14.847 -0.0873 -0.0010  0.3566
 7505W        W23689   6.275  10.509   2.492  0.0859  0.0333  0.0516
 7506W        W23690   2.102   5.500   4.967  0.0424 -0.0184 -0.0889
 7507W        W23691  18.081   4.615   0.143  0.0564  0.1253 -0.3553
 7508W        W23692   8.918  18.191  12.840  0.0353  0.1641 -0.1661
 7509W        W23693  10.401   8.947   4.018  0.0202  0.1040 -0.3768
 7510W        W23694   6.348   0.379  11.108 -0.1586  0.0368 -0.0315
 7511W        W23695  13.261  14.793   5.175  0.2423 -0.0454  0.0359
 7512W        W23696  11.296   2.628  12.684 -0.0440  0.1672 -0.0547
 7513W        W23697   5.702  11.639  11.896  0.3093  0.0614 -0.3867
 7514W        W23698  18.335   5.885   2.156  0.0486 -0.1923 -0.3082
 7515W        W23699  16.238  15.958   5.011  0.0718  0.0944 -0.0103
 7516W        W23700   7.119   1.075   3.664 -0.0063 -0.1749 -0.1298
 7517W        W23701   0.306   4.722  11.091  0.1746 -0.0490  0.1165
 7518W        W23702  13.261   5.840  10.264  0.0813  0.1652 -0.2864
 7519W        W23703   9.397  10.910   4.831  0.2557  0.1334  0.0192
 7520W        W23704   1.938  15.448   0.090  0.2159 -0.0652 -0.2747
 7521W        W23705  11.751   0.435  14.669 -0.0617 -0.0327  0.2791
 7522W        W23706   4.008  17.917  11.012 -0.0495 -0.1933  0.2049
 7523W        W23707   1.086   8.285   2.831  0.4059 -0.1441  0.0224
 7524W        W23708   2.305   5.432  14.626 -0.0439  0.0904 -0.1589
 7525W        W23709  10.199  13.080   2.137  0.0462  0.2352 -0.0485
 7526W        W23710  18.920   6.965  12.155  0.1525  0.2850 -0.0048
 7527W        W23711   3.604  10.986  13.043 -0.4054  0.0707  0.0369
 7528W        W23712   2.702  10.342  13.078  0.1166  0.0646  0.2309
 7529W        W23713   5.806  18.302  13.604 -0.2644  0.0381  0.0625
 7530W        W23714  18.608  11.189  13.328  0.0494  0.0415  0.1978
 7531W        W23715   6.749   0.603   0.156  0.1116 -0.1081  0.0292
 7532W        W23716   9.614   9.787   3.951 -0.0809 -0.1053 -0.0547
 7533W        W23717  18.445   9.990  11.345 -0.1231  0.1786 -0.2641
 7534W        W23718  11.318   4.647  11.679  0.2131  0.1377  0.1593
 7535W        W23719  10.418  13.140  12.741 -0.1653 -0.0753  0.0656
 7536W        W23720  11.669   1.986   0.306  0.1646  0.0644 -0.3909
 7537W        W23721  15.887   4.918  11.708  0.0370 -0.2961  0.0524
 7538W        W23722  12.663   0.395  13.008 -0.1062 -0.1880  0.0608
 7539W        W23723  14.838   7.059   3.281 -0.5828 -0.2428  0.1990
 7540W        W23724  15.734  11.356   3.648  0.2285 -0.0747 -0.1126
 7541W        W23725  10.045  16.865   1.340  0.0160 -0.0626 -0.4554
 7542W        W23726   0.555   2.162  14.200  0.0661  0.1464 -0.1934
 7543W        W23727   4.565  13.918   2.268 -0.0007  0.0387  0.0219
 7544W        W23728  14.390   2.487  14.132 -0.1343 -0.0382  0.2363
 7545W        W23729   6.682   2.694   2.158 -0.2076 -0.1647  0.0821
 7546W        W23730   2.691  18.439  11.481 -0.3563  0.3025  0.0609
 7547W        W23731   5.707   0.818  12.776  0.1574  0.2571  0.1994
 7548W        W23732  17.973   1.774   0.378  0.0690  0.3635 -0.1408
 7549W        W23733  10.289  17.115   1.702 -0.0173 -0.0797 -0.0614
 7550W        W23734  13.444  11.378   1.222 -0.0387  0.1200  0.0121
 7551W        W23735   0.349   9.204  14.961 -0.2345  0.1889 -0.0171
 7552W        W23736  17.421  17.887  10.714 -0.0885  0.4533 -0.0603
 7553W        W23737  12.058   2.876  12.543 -0.0343 -0.4976 -0.1105
 7554W        W23738  14.761   2.412   9.578 -0.0185 -0.1633  0.2403
 7555W        W23739  14.041   8.889  13.265  0.1008  0.1491 -0.0877
 7556W        W23740  15.189   7.132  12.386  0.2905  0.1689 -0.3243
 7557W        W23741   2.914  16.798   3.314 -0.1306  0.0521 -0.3262
 7558W        W23742  18.146  17.859  13.767 -0.2428 -0.0510 -0.2692
 7559W        W23743  12.277  15.304  14.509 -0.0563  0.1419  0.1725
 7560W        W23744  15.520   7.353  13.818 -0.4224  0.1716  0.0899
 7561W        W23745   3.777  15.741  14.514 -0.0646 -0.2528  0.3365
 7562W        W23746   8.284  10.313   4.419 -0.0318  0.0111 -0.1723
 7563W        W23747   0.815   1.190   5.122 -0.2496 -0.1915 -0.0074
 7564W        W23748   0.321   8.635   2.109  0.1446 -0.1797  0.2140
 7565W        W23749   3.301  10.750   0.404  0.0975 -0.1616 -0.0989
 7566W        W23750   6.067  17.595   2.869 -0.1615  0.0697  0.1482
 7567W        W23751  15.337   1.247   0.425 -0.1398  0.1773  0.1714
 7568W        W23752   2.668   4.852   3.423  0.2678  0.1220 -0.0872
 7569W        W23753   0.570   5.628  14.115  0.0361 -0.0113 -0.1784
 7570W        W23754   7.144  12.247  14.337 -0.1756  0.0452  0.0252
 7571W        W23755   6.508  14.226  10.538 -0.1618  0.0370  0.0050
 7572W        W23756  15.763  16.296   1.549  0.1742  0.2140 -0.0667
 7573W        W23757   6.412   2.320   4.303 -0.1131  0.1619  0.0906
 7574W        W23758   2.957  17.292  14.658  0.1306 -0.0273  0.3224
 7575W        W23759  11.334   2.932  11.785  0.2430 -0.4915 -0.0173
 7576W        W23760  12.530   7.681  12.189 -0.0485 -0.2715  0.0555
 7577W        W23761   4.124   4.667  12.895 -0.1649  0.0581  0.0991
 7578W        W23762   4.095  14.582  12.867  0.1855  0.3347 -0.2302
 7579W        W23763   6.874  18.388  11.152  0.0137  0.0846  0.3769
 7580W        W23764  19.366   6.102   0.470  0.0834 -0.0329 -0.1876
 7581W        W23765  16.618   5.513  10.472  0.1777 -0.1952  0.0780
 7582W        W23766  18.593   5.848   5.526 -0.0955  0.2038  0.0174
 7583W        W23767  15.221   8.973   2.925  0.1687 -0.0536  0.0678
 7584W        W23768   7.808  12.986   9.998  0.4840 -0.1804 -0.4851
 7585W        W23769  10.485   2.597   3.060  0.0975 -0.0335 -0.1618
 7586W        W23770  13.352  11.468   2.180  0.2821 -0.4498 -0.0305
 7587W        W23771   8.620   7.633   1.394  0.1207 -0.3271 -0.0817
 7588W        W23772   8.344  19.330  14.517 -0.1253  0.1803 -0.0944
 7589W        W23773   6.235   7.778   1.973 -0.0161 -0.0647 -0.0326
 7590W        W23774   2.448   4.208   4.760 -0.3403  0.0033  0.2324
 7591W        W23775  19.244   1.487   4.263  0.3781  0.0159  0.1720
 7592W        W23776   5.707   5.767   5.143 -0.0763 -0.0720 -0.0912
 7593W        W23777  16.378   9.992  13.776 -0.2438 -0.4341 -0.1493
 7594W        W23778   2.992   8.872  13.285  0.0090 -0.2443 -0.0582
 7595W        W23779   6.140  18.916  12.788 -0.0016 -0.3289  0.0679
 7596W        W23780  17.175   9.903  14.627 -0.0857 -0.4261 -0.1390
 7597W        W23781   0.079  10.417   1.673 -0.1219  0.2575 -0.0376
 7598W        W23782   0.705  15.357   1.792  0.0214 -0.3356 -0.1601
 7599W        W23783   0.041   7.209   2.450 -0.0802  0.1323 -0.2020
 7600W        W23784   7.751   5.539  10.457 -0.2439  0.1949  0.0542
 7601W        W23785   5.993  18.844   0.443 -0.2452  0.2227 -0.1670
 7602W        W23786  14.843  10.237  10.936 -0.2980 -0.0686  0.1657
 7603W        W23787  12.528  12.117  11.689 -0.1573  0.0023 -0.0369
 7604W        W23788   9.105   0.026  12.131  0.0037  0.1483  0.1601
 7605W        W23789  15.247  18.825   0.148  0.1398  0.3361  0.1580
 7606W        W23790  11.984  18.226  10.636  0.1257 -0.1147 -0.1636
 7607W        W23791  18.047  14.782  12.063 -0.5580 -0.0765 -0.2934
 7608W        W23792   3.890   0.832   9.328 -0.0575  0.0610  0.1349
 7609W        W23793  18.733   2.335   2.607  0.3968  0.1945 -0.0400
 7610W        W23794  13.557   6.156   1.692  0.1649  0.3374  0.0948
 7611W        W23795  17.022   5.556  10.057 -0.0533 -0.0862  0.0247
 7612W        W23796  13.013   3.745  10.110  0.2400  0.0776  0.2403
 7613W        W23797  14.132  17.891  12.174  0.1342  0.1334  0.1900
 7614W        W23798   2.353   4.349   4.218 -0.1978  0.2931 -0.1740
 7615W        W23799   8.043  16.904   3.773 -0.0939  0.2853  0.0543
 7616W        W23800   5.858   3.704  11.033 -0.1862 -0.0978  0.2642
 7617W        W23801   1.082   8.073  13.106 -0.2852 -0.2888  0.1614
 7618W        W23802  10.603   0.167  14.485 -0.1470  0.0439 -0.0064
 7619W        W23803  12.084  10.708   3.852  0.0591  0.1767 -0.5224
 7620W        W23804   4.417   9.580  14.074  0.0374 -0.1029  0.1237
 7621W        W23805  18.993  16.628   4.628 -0.0675  0.3257  0.0335
 7622W        W23806  16.240   1.428   9.563  0.0662 -0.1537  0.1620
 7623W        W23807  18.909   6.126   3.787 -0.1970 -0.2125 -0.3105
 7624W        W23808  10.949   1.697   1.204 -0.1482 -0.0413  0.0077
 7625W        W23809   2.996   8.239  11.288  0.0476 -0.2517  0.1435
 7626W        W23810  14.783  12.916   4.960  0.1658 -0.2369 -0.1527
 7627W        W23811   1.469   0.157   1.668 -0.2611  0.1459  0.0396
 7628W        W23812   7.613   2.956  13.681 -0.1202  0.0999 -0.2250
 7629W        W23813   8.558  16.009  11.869  0.1252  0.2980  0.1741
 7630W        W23814  17.117  10.055  13.178 -0.1521 -0.0628  0.1559
 7631W        W23815  13.681   0.947  11.651 -0.4923  0.2574  0.2374
 7632W        W23816  18.004   4.486   4.771 -0.3386 -0.0737 -0.2232
 7633W        W23817  14.498  10.855  14.492  0.0552  0.0073 -0.0515
 7634W        W23818  17.209   4.890  13.162  0.0205  0.1806  0.2739
 7635W        W23819  10.495  16.242   4.651 -0.3350 -0.1583  0.1963
 7636W        W23820  19.312  15.894  14.495  0.2092 -0.1730  0.4345
 7637W        W23821  17.948   0.087   1.571  0.0168 -0.2213  0.0468
 7638W        W23822  12.338  13.064   4.127 -0.0258 -0.1677 -0.3114
 7639W        W23823   3.690  12.973  10.046  0.0509 -0.2905  0.1242
 7640W        W23824  18.926  15.588  14.752 -0.2941  0.1954 -0.0603
 7641W        W23825  13.114   0.224  13.788 -0.0256 -0.2290  0.2451
 7642W        W23826   7.400  17.802   0.330  0.5811 -0.0384 -0.1978
 7643W        W23827  19.186   6.292   4.215  0.1026  0.2053  0.2126
 7644W        W23828   5.463   2.415   9.059  0.0253  0.0188  0.0645
 7645W        W23829  17.850   3.087  11.268  0.2089 -0.2041 -0.3139
 7646W        W23830   3.752   6.923   9.207  0.0323 -0.0511 -0.1621
 7647W        W23831   9.276   7.459   0.158 -0.1645  0.1855 -0.0053
 7648W        W23832  10.857  16.315  12.785  0.2797  0.1202 -0.1058
 7649W        W23833   7.790   2.977   3.493 -0.0938 -0.3812 -0.2193
 7650W        W23834   8.224  10.969   5.307  0.1902  0.0253  0.1798
 7651W        W23835  12.935  11.020  14.055 -0.0460  0.1214 -0.1739
 7652W        W23836  18.830   6.992  11.201 -0.2796 -0.2317  0.1103
 7653W        W23837  18.086   2.332  10.113  0.0266  0.2302 -0.2042
 7654W        W23838  11.625   2.793   1.551 -0.3013  0.1244 -0.0750
 7655W        W23839   4.081  10.666  13.524 -0.0847 -0.3399 -0.2037
 7656W        W23840   8.578   3.585   1.327  0.1033 -0.2052  0.1793
 7657W        W23841  16.603  15.027   4.912  0.2118 -0.0268  0.0158
 7658W        W23842  18.268   1.401  11.306 -0.1920  0.3657  0.3038
 7659W        W23843  10.935   8.122  14.855 -0.1629 -0.0890  0.0074
 7660W        W23844   8.288  17.834   4.831 -0.1166 -0.0065 -0.0843
 7661W        W23845   1.690   9.259   4.798 -0.1392  0.2275  0.0278
 7662W        W23846   4.488  14.481  14.551  0.2753  0.0729 -0.1779
 7663W        W23847  16.109  16.055   1.917  0.2177 -0.0947  0.1361
 7664W        W23848   8.709  13.889   2.175  0.1392  0.2685  0.2622
 7665W        W23849  13.313   6.608  11.387  0.2350  0.2306  0.0948
 7666W        W23850   9.586  19.298   1.606  0.0087  0.1613 -0.1214
 7667W        W23851   7.856  18.722  11.891 -0.2708 -0.1523 -0.0120
 7668W        W23852   2.450  10.097  11.461  0.1396  0.0264  0.2435
 7669W        W23853  14.672  12.989   4.458 -0.2517  0.0817 -0.0769
 7670W        W23854   1.246  12.935   1.996 -0.0231  0.3499  0.0412
 7671W        W23855   2.382  19.273   4.832  0.2740  0.0812 -0.0238
 7672W        W23856  17.727   7.885   3.233  0.1879  0.0877 -0.1574
 7673W        W23857   0.428  12.972  12.971 -0.0878  0.0735  0.0251
 7674W        W23858  12.823  18.854   4.794  0.0232 -0.0796 -0.3529
 7675W        W23859  11.874   7.544   4.613  0.0971  0.1705  0.1627
 7676W        W23860   1.043   5.907   0.003  0.1523 -0.3487  0.1581
 7677W        W23861   1.648   4.822  12.841 -0.0174 -0.0104  0.1194
 7678W        W23862   7.663  14.899  10.742  0.0353  0.3853  0.2907
 7679W        W23863   7.684  11.755  10.314 -0.0145  0.0196  0.1453
 7680W        W23864  11.495   0.543   3.886 -0.1938 -0.0575 -0.0660
 7681W        W23865  19.086   9.865   4.890 -0.3085 -0.0916  0.0399
 7682W        W23866   0.314   6.886  11.168 -0.0978 -0.0427  0.0585
 7683W        W23867  15.778   0.665  14.243  0.2269 -0.0850 -0.3742
 7684W        W23868  13.329  17.205  12.482 -0.1012 -0.2201 -0.0165
 7685W        W23869  17.023  13.814   3.166  0.1250  0.0738 -0.0771
 7686W        W23870  18.037  14.484   2.469 -0.2955 -0.1384 -0.0292
 7687W        W23871  17.591  14.302  14.837  0.0061  0.0518 -0.1704
 7688W        W23872  10.930  19.025  10.033 -0.0768  0.0419 -0.0826
 7689W        W23873   8.571   5.227  10.786  0.2840 -0.1230 -0.1302
 7690W        W23874   8.972  17.465   2.937  0.1663  0.1966 -0.0537
 7691W        W23875   3.518   2.455  14.062 -0.1885  0.1410 -0.1463
 7692W        W23876   0.288  15.643  11.031 -0.3370 -0.1033 -0.0620
 7693W        W23877   1.422  11.859  13.226  0.1233 -0.1099  0.5395
 7694W        W23878   6.477  14.410  12.918 -0.1650 -0.2556  0.4876
 7695W        W23879   5.392   5.604   4.787  0.0102 -0.0686 -0.1804
 7696W        W23880   9.768   7.347  11.325 -0.4168 -0.3585  0.0475
 7697W        W23881   7.539  16.861  11.972 -0.3451 -0.0121  0.0215
 7698W        W23882  16.555   1.562   1.767 -0.1531  0.1923 -0.1771
 7699W        W23883   0.872  15.230   5.573  0.2338 -0.1644 -0.0391
 7700W        W23884   8.965   3.691   2.769 -0.1762 -0.0516 -0.1254
 7701W        W23885  10.061  14.040  14.214  0.0668  0.4546  0.2190
 7702W        W23886   2.652   7.681   2.974 -0.0408 -0.0871  0.6026
 7703W        W23887  12.282   0.341   3.841  0.2139 -0.0123 -0.2605
 7704W        W23888   3.693  10.096   2.067  0.2023  0.2437  0.1671
 7705W        W23889  19.187   8.503  13.131 -0.2392  0.2218  0.1052
 7706W        W23890  13.809  11.720   1.447 -0.0735  0.1070 -0.1755
 7707W        W23891  10.949   4.248   1.351  0.2109 -0.1342  0.0637
 7708W        W23892  10.756   4.405   2.733  0.2536 -0.2963 -0.1752
 7709W        W23893   9.443   4.307   0.943  0.0452 -0.2382  0.3309
 7710W        W23894  18.665  13.464   1.087 -0.0998 -0.0759 -0.3946
 7711W        W23895  18.224   0.950  10.592 -0.1205 -0.3092  0.1864
 7712W        W23896   6.530   1.400  14.190  0.0317 -0.2076 -0.2461
 7713W        W23897   0.659   6.620  11.783  0.2214  0.1248 -0.0081
 7714W        W23898   6.637   1.945   1.602 -0.0862 -0.3003 -0.0345
 7715W        W23899  14.337   3.200   0.676  0.0591  0.2564 -0.1849
 7716W        W23900  17.148   1.572  13.521 -0.1924 -0.1626 -0.0702
 7717W        W23901  18.790  14.123  14.404  0.2343 -0.3733  0.0730
 7718W        W23902  15.425  14.273   4.890 -0.1371  0.3399 -0.0767
 7719W        W23903   7.440   5.085   3.243 -0.0559  0.0209  0.0209
 7720W        W23904   4.332  13.608  14.622  0.1056 -0.4108 -0.1111
 7721W        W23905  14.559   0.793   3.827  0.0672  0.1838 -0.2051
 7722W        W23906  16.328   4.142   1.427 -0.0973 -0.0345 -0.0417
 7723W        W23907  17.543   0.072  14.073 -0.1414 -0.0446  0.0272
 7724W        W23908   7.207   6.207  11.391  0.0384 -0.0199 -0.0259
 7725W        W23909   9.277  16.631  12.917 -0.2263 -0.1153  0.1434
 7726W        W23910   8.792  19.021  13.530 -0.1199 -0.0041 -0.1253
 7727W        W23911  14.880  13.968   0.854  0.0167  0.3092 -0.0917
 7728W        W23912  14.615  18.384  12.927 -0.3383 -0.0637 -0.0337
 7729W        W23913   5.607   4.156   1.033 -0.4546 -0.1023 -0.4233
 7730W        W23914   1.170  16.054   1.180  0.0685  0.0940 -0.0203
 7731W        W23915   9.567   9.731  14.280  0.2143  0.1716 -0.3059
 7732W        W23916   3.352   0.826   1.581 -0.0753  0.1682 -0.1667
 7733W        W23917   2.893  12.228   3.308 -0.1214 -0.1477 -0.0137
 7734W        W23918  14.059   0.976   4.546 -0.0001  0.0182 -0.3655
 7735W        W23919  10.389   3.767   3.827 -0.1108 -0.1542  0.2580
 7736W        W23920  17.847  19.339   4.484 -0.3036  0.0617  0.1030
 7737W        W23921  11.759   9.477  10.249 -0.0985 -0.3094  0.0211
 7738W        W23922   1.247  15.788   0.122  0.1418  0.0740  0.4065
 7739W        W23923  14.034   6.231   4.754  0.1661 -0.0001 -0.4145
 7740W        W23924   8.451  14.256   0.485  0.0456  0.0963  0.3238
 7741W        W23925   8.317   9.701   0.249  0.3609 -0.3833 -0.1573
 7742W        W23926   3.587   1.913  10.494 -0.1044  0.2056  0.1589
 7743W        W23927  16.787  17.621  14.753 -0.3126 -0.2826 -0.0128
 7744W        W23928   8.158  16.354   0.196 -0.3036 -0.3820 -0.0097
 7745W        W23929  13.143   2.320  14.476  0.0424  0.0058 -0.2356
 7746W        W23930  14.987   8.870   0.201 -0.0457  0.1361  0.1299
 7747W        W23931  10.641   4.123   1.763  0.1382 -0.6049  0.3037
 7748W        W23932   8.599  16.235  11.049  0.1563  0.0967 -0.2256
 7749W        W23933  10.550   3.496  10.481  0.1530  0.3488 -0.0640
 7750W        W23934   2.500   8.004  11.172 -0.1311  0.1118 -0.1153
 7751W        W23935   4.971  14.546   1.006  0.1155  0.1522 -0.0552
 7752W        W23936   4.242  13.165   0.115 -0.0410 -0.1797 -0.1431
 7753W        W23937  14.424  15.416  14.615 -0.1086  0.0278 -0.0983
 7754W        W23938   9.973  17.561   4.825  0.1837  0.4410 -0.2193
 7755W        W23939  15.139  15.694  10.216  0.1522 -0.0392 -0.1631
 7756W        W23940   8.420   8.253   2.206  0.0460 -0.2770  0.1909
 7757W        W23941   3.789   5.436   5.097 -0.0532 -0.0373 -0.3541
 7758W        W23942   8.414   6.657  10.929 -0.0240  0.4973  0.0651
 7759W        W23943   6.043   3.949   0.824  0.4841 -0.2141  0.3978
 7760W        W23944   2.726   9.648   3.560  0.0371 -0.2994  0.2796
 7761W        W23945   7.664  10.564  13.828 -0.0887 -0.0501  0.1032
 7762W        W23946   5.771  14.617  14.389 -0.0392 -0.3360  0.0681
 7763W        W23947  15.730   8.750  13.201 -0.0669  0.2000  0.1945
 7764W        W23948  18.526   7.730  14.435 -0.1032 -0.0764  0.1450
 7765W        W23949   6.695   3.159   0.223 -0.2229 -0.0688  0.0554
 7766W        W23950   1.117   2.315  13.605 -0.3110  0.1648 -0.2081
 7767W        W23951   7.760  17.808  13.062  0.1263 -0.2022 -0.1103
 7768W        W23952   1.280  10.382  13.002 -0.0579 -0.1361 -0.0760
 7769W        W23953  19.179   9.381  14.501  0.2339 -0.2013  0.1748
 7770W        W23954   3.475   1.447   0.216  0.0543  0.0999 -0.1430
 7771W        W23955   7.554  17.801  10.698 -0.1681  0.3068  0.3350
 7772W        W23956   5.221   0.817  12.584 -0.2319  0.1627  0.1743
 7773W        W23957  12.105   1.788   3.868  0.0276  0.1754  0.1128
 7774W        W23958  11.008   1.902   3.560  0.1304 -0.1680  0.1663
 7775W        W23959  13.573   4.302  11.658 -0.4177 -0.0260  0.1139
 7776W        W23960   1.673   6.332  12.640 -0.0772  0.1867  0.0958
 7777W        W23961   9.503  12.408  11.738 -0.1176  0.3000 -0.1802
 7778W        W23962  11.644  12.753   1.647 -0.1892 -0.2114 -0.0108
 7779W        W23963   2.115  10.397   3.877 -0.0095  0.2291 -0.1094
 7780W        W23964  18.186  15.351   5.952  0.0852  0.0056  0.1151
 7781W        W23965   9.957  16.297   0.543 -0.0122 -0.3081 -0.0086
 7782W        W23966  18.461  18.696   2.269 -0.1646 -0.2551  0.0332
 7783W        W23967   6.523  15.736  10.273  0.1002 -0.1679 -0.4586
 7784W        W23968   0.206  14.245   4.534  0.0710  0.1020 -0.2478
 7785W        W23969  15.715   4.179  13.927 -0.2089 -0.3378 -0.0287
 7786W        W23970  10.724  19.325  12.733  0.0958 -0.0379 -0.3045
 7787W        W23971   8.078  17.286  13.090 -0.4425 -0.0226 -0.0024
 7788W        W23972  11.828   4.969   3.532 -0.2695  0.2701 -0.0101
 7789W        W23973   0.692   7.827   2.728  0.1064 -0.0811  0.1129
 7790W        W23974  16.458   8.945  14.937  0.2480  0.0983  0.1031
 7791W        W23975  18.454  13.899   0.866 -0.0897 -0.1601 -0.2395
 7792W        W23976  18.206   1.788  13.710  0.0028  0.3985  0.0884
 7793W        W23977   0.631  17.852   0.117  0.2636  0.0438  0.1663
 7794W        W23978   4.083   2.380  10.126 -0.1663  0.0585 -0.0971
 7795W        W23979   9.362  15.865  13.314  0.2659 -0.1977 -0.0951
 7796W        W23980   1.548   3.168   0.415 -0.0146  0.1651 -0.1457
 7797W        W23981   0.688  10.071   5.691 -0.2434 -0.1748  0.1693
 7798W        W23982  17.973  10.360  10.250 -0.0247  0.2263  0.2528
 7799W        W23983   2.415  18.338  11.118 -0.3211  0.0864  0.2723
 7800W        W23984   1.182  16.925   4.192 -0.0560  0.0774  0.0266
 7801W        W23985  15.287  11.000   4.449 -0.1385  0.1536  0.1256
 7802W        W23986  18.322  15.243   2.965  0.1114 -0.0341 -0.0139
 7803W        W23987  12.202   0.194  14.587 -0.0348 -0.1886  0.0409
 7804W        W23988  18.495   2.648   3.053 -0.0140  0.1245 -0.1869
 7805W        W23989   9.388  16.100   2.813 -0.1362  0.3970  0.0754
 7806W        W23990   0.690   8.128   1.561 -0.1367 -0.1759  0.1671
 7807W        W23991  10.764   7.068   2.717  0.0179 -0.1038 -0.1940
 7808W        W23992  14.111  17.631   0.592 -0.2269 -0.0522  0.1535
 7809W        W23993   9.123  17.551  12.815  0.2273 -0.3088 -0.1367
 7810W        W23994   1.989   8.146  13.413 -0.0292  0.1528  0.2248
 7811W        W23995  17.007   4.185  14.724 -0.0147 -0.1529  0.2254
 7812W        W23996  14.576  13.812   1.643 -0.1057  0.0885  0.0121
 7813W        W23997   5.857  11.482  10.198  0.0488 -0.0829 -0.2197
 7814W        W23998   4.184   2.834  12.949  0.0567 -0.1993 -0.3302
 7815W        W23999   9.135  10.319   2.328  0.1802 -0.3050  0.2342
 7816W        W24000  18.941   5.248   0.495 -0.0595 -0.0232  0.0879
 7817W        W24001   4.106  17.878   3.529 -0.0321  0.3062  0.1256
 7818W        W24002   3.838  11.736   2.523  0.1070  0.2971 -0.1831
 7819W        W24003  10.838  11.599  10.840 -0.0273  0.0932 -0.1652
 7820W        W24004   6.863  11.265   2.072  0.2453  0.0612 -0.1466
 7821W        W24005   3.761  18.908  10.439  0.0428  0.1282  0.0429
 7822W        W24006   9.581  11.905  13.904 -0.1988 -0.1587 -0.0358
 7823W        W24007   2.479  19.008   3.705 -0.4882  0.3223  0.0359
 7824W        W24008  14.729   6.356  12.921  0.1046  0.1074  0.0067
 7825W        W24009  13.769   1.239  12.051 -0.0136  0.4367 -0.1118
 7826W        W24010  12.968  15.795   2.733 -0.2676  0.1274  0.3188
 7827W        W24011  14.882  12.130  12.365 -0.2796  0.1219  0.1645
 7828W        W24012  17.855  18.314  11.328 -0.0657  0.0160  0.1872
 7829W        W24013  17.004  16.121   4.401  0.1451  0.0333 -0.0350
 7830W        W24014   9.765   0.207  14.325  0.0516  0.2659 -0.3123
 7831W        W24015   3.428   5.006  12.397  0.2952  0.2348 -0.1533
 7832W        W24016   9.504   5.746   2.353  0.3243  0.0676  0.3217
 7833W        W24017   1.748   3.832   3.823  0.0610  0.0560  0.0568
 7834W        W24018   9.376  10.693   3.934 -0.1643 -0.2453 -0.2592
 7835W        W24019   0.591  18.483  11.609  0.2391 -0.2110  0.0381
 7836W        W24020   5.494  15.488   1.011 -0.2425 -0.0699 -0.1201
 7837W        W24021  17.236   7.157   1.111 -0.1984 -0.0141  0.3136
 7838W        W24022  14.848   3.190  14.200 -0.0897 -0.1411 -0.0082
 7839W        W24023  14.203   5.698  12.229 -0.2661 -0.0084 -0.2083
 7840W        W24024  10.779   5.923  12.729 -0.0655  0.1501 -0.1563
 7841W        W24025  13.929  13.697  11.867  0.0365 -0.1619 -0.1928
 7842W        W24026  15.116   0.702   2.650  0.0034  0.0212 -0.2109
 7843W        W24027  15.178   4.208   0.702 -0.0114 -0.1578  0.0859
 7844W        W24028   2.839  11.557   2.749  0.2161  0.3512 -0.3932
 7845W        W24029  17.708   7.378   1.603  0.0963 -0.0631 -0.0437
 7846W        W24030  18.845  12.235   5.226  0.2462  0.0810 -0.3056
 7847W        W24031   1.591   8.747   0.594 -0.0396 -0.0851  0.0071
 7848W        W24032  16.579   0.463   2.989  0.2006  0.1467 -0.4547
 7849W        W24033  13.168   1.330  14.578  0.1680 -0.2128  0.0221
 7850W        W24034  13.153  10.516   4.408  0.0823  0.0724 -0.0305
 7851W        W24035  18.078  10.627  10.843 -0.3133  0.6005 -0.0799
 7852W        W24036  15.970  13.793  14.936  0.2710 -0.1324  0.0855
 7853W        W24037   2.951   0.003   1.780 -0.2306 -0.0204  0.1114
 7854W        W24038   8.544  15.685   2.797  0.0679 -0.0584  0.1098
 7855W        W24039   6.042   9.028   0.058  0.0844  0.0513  0.4546
 7856W        W24040   7.218   1.427  14.755  0.1730 -0.0507 -0.2770
 7857W        W24041  13.441  18.562   3.608 -0.1008  0.1082  0.0278
 7858W        W24042  10.515   5.017  14.941 -0.1813  0.0739 -0.1826
 7859W        W24043   2.454  13.085   1.179  0.1398 -0.1109  0.1978
 7860W        W24044   9.285  12.758  12.374  0.0816  0.1749  0.0405
 7861W        W24045   6.441  19.264   2.756 -0.0474  0.0149 -0.0900
 7862W        W24046   9.278   0.903   1.376 -0.0127 -0.2439 -0.0786
 7863W        W24047   5.820   5.305  12.032 -0.4219 -0.0220 -0.0717
 7864W        W24048   3.085   5.671  13.640  0.0857  0.2289  0.2051
 7865W        W24049  19.101   5.157   1.446 -0.0001 -0.1208  0.2820
 7866W        W24050   3.765  13.138   3.680  0.2240 -0.0184  0.1409
 7867W        W24051  10.105   3.342  11.052  0.0933 -0.0809 -0.0250
 7868W        W24052  17.108   4.625  10.952 -0.0300 -0.2915 -0.1385
 7869W        W24053   8.197   0.427  14.342 -0.1573  0.1499  0.0329
 7870W        W24054  17.490  16.771   3.053 -0.1407  0.0164  0.0145
 7871W        W24055  10.517  14.599  12.636 -0.1086 -0.0798  0.2311
 7872W        W24056   5.163  16.749  13.563 -0.0253  0.0986  0.2040
 7873W        W24057   9.973   9.227   0.794 -0.2110 -0.0365  0.0267
 7874W        W24058   8.358  15.330   1.928  0.0330 -0.0856 -0.1628
 7875W        W24059  12.508  17.353   4.396 -0.1883  0.4928 -0.1401
 7876W        W24060   3.167  10.055  11.767  0.1249 -0.1646 -0.0218
 7877W        W24061  15.326   0.607  11.564  0.1587  0.0330 -0.1200
 7878W        W24062  18.863  11.566   0.640  0.1647 -0.2161  0.4542
 7879W        W24063   1.015   0.246   1.398  0.0393 -0.2073  0.0252
 7880W        W24064   2.540  14.436   4.030 -0.1802  0.2221  0.1442
 7881W        W24065   3.162   4.752   0.654 -0.2624  0.0391  0.0300
 7882W        W24066   7.945   9.968  10.905  0.3413  0.2805 -0.0142
 7883W        W24067  17.303  16.556  11.823  0.1067  0.1474  0.1355
 7884W        W24068  10.066  15.680   9.082 -0.1141 -0.2246 -0.1401
 7885W        W24069  18.818   4.655  14.414  0.1253 -0.0534 -0.2241
 7886W        W24070  17.761   1.239  10.527  0.2091  0.2316 -0.0374
 7887W        W24071  18.824  13.071   3.377 -0.0387  0.1037 -0.2297
 7888W        W24072  10.743   7.569  11.319 -0.1312 -0.0275  0.4776
 7889W        W24073   9.348   4.787   1.074  0.0993  0.3595 -0.1122
 7890W        W24074  18.306  14.930  14.944  0.2089  0.2312 -0.6996
 7891W        W24075   3.674   7.912   2.231 -0.1008  0.3079 -0.0344
 7892W        W24076  18.261  15.969  14.387 -0.0433 -0.4126 -0.0529
 7893W        W24077   2.163  12.651   4.601  0.0770 -0.2674  0.0116
 7894W        W24078   4.883   9.525   4.674  0.0021 -0.0673 -0.0522
 7895W        W24079   0.789   2.179   2.433  0.0949  0.1409 -0.0864
 7896W        W24080  15.535  17.300   0.439 -0.0457 -0.0357  0.0196
 7897W        W24081   4.725  13.671   3.058  0.0556  0.0113  0.1134
 7898W        W24082  12.125   2.443  11.794 -0.2072  0.0301 -0.0781
 7899W        W24083   3.401   7.703  12.511  0.2306  0.1463  0.1149
 7900W        W24084  16.210   2.102  13.994 -0.0819 -0.1171  0.3553
 7901W        W24085  17.166   5.993  13.196 -0.2600  0.0243  0.0313
 7902W        W24086  19.334   5.041  12.742  0.1830  0.4721 -0.1778
 7903W        W24087  16.224   6.419   0.659  0.4092  0.1589 -0.1092
 7904W        W24088  15.867   0.907   9.028  0.0279 -0.1750  0.2909
 7905W        W24089  12.772   5.310   0.268 -0.3899 -0.1033 -0.1804
 7906W        W24090  11.651  11.954  12.708 -0.0547 -0.2112  0.4106
 7907W        W24091  15.844  15.571   2.758  0.0837 -0.3317 -0.0261
 7908W        W24092   8.348   9.060  14.763  0.1205 -0.0831 -0.2684
 7909W        W24093   3.355   1.815  10.905  0.2197 -0.1306 -0.0208
 7910W        W24094  11.775   4.497  11.298 -0.0252 -0.1369  0.1824
 7911W        W24095   3.214   0.349   3.381 -0.0121 -0.1300 -0.2839
 7912W        W24096   3.444   9.079   1.201  0.3151  0.1442  0.0616
 7913W        W24097   8.983   1.314  11.392 -0.5133  0.0515  0.1755
 7914W        W24098  18.421  16.402   0.954 -0.1674 -0.2948 -0.4755
 7915W        W24099   3.522  11.561  11.987 -0.1575 -0.1142 -0.2025
 7916W        W24100  13.607   3.065  11.996 -0.2694 -0.1129  0.0655
 7917W        W24101  11.475  18.375  14.828 -0.3779 -0.2043 -0.1418
 7918W        W24102   0.363  10.588   1.190 -0.1849  0.1342  0.1939
 7919W        W24103   1.984  16.804   2.530  0.0103  0.0548  0.1477
 7920W        W24104  11.509   4.809  10.345  0.1095 -0.2204 -0.1221
 7921W        W24105   9.013  16.348   0.106 -0.3769  0.0018  0.5660
 7922W        W24106   0.604  15.280  13.928 -0.0746  0.1242  0.0263
 7923W        W24107   9.822  16.065  10.654  0.3140 -0.0021 -0.0683
 7924W        W24108   2.011   4.261  12.979  0.2749  0.0723 -0.2906
 7925W        W24109   4.100  10.338   5.022 -0.1711 -0.1769  0.2366
 7926W        W24110  13.806  17.029  12.365 -0.1843  0.1094  0.0259
 7927W        W24111  19.142   5.294   5.019 -0.0133 -0.2137 -0.2784
 7928W        W24112  13.511  12.167   2.196 -0.0809  0.3988 -0.2678
 7929W        W24113  18.709  17.680  14.408  0.0215 -0.2135  0.1631
 7930W        W24114  19.284   6.487   4.764 -0.0566  0.2772  0.0455
 7931W        W24115  15.436  18.915  13.291 -0.0298 -0.1579 -0.2086
 7932W        W24116  14.941  11.276  10.330  0.1545 -0.0887  0.1016
 7933W        W24117  19.236   0.572   0.117 -0.2582 -0.2243  0.1088
 7934W        W24118  19.185   3.015   1.872 -0.0790 -0.0397  0.0280
 7935W        W24119   7.954  10.445   3.167  0.0086  0.2553  0.0022
 7936W        W24120   7.370   0.561  11.349  0.1024 -0.2145  0.1483
 7937W        W24121  13.319   6.512  10.499 -0.0587 -0.2273  0.1243
 7938W        W24122   0.235   7.123   4.120 -0.2348 -0.0384 -0.2614
 7939W        W24123   6.077   9.951  14.681 -0.1206 -0.2928 -0.0417
 7940W        W24124  18.456  14.317  14.073 -0.0052  0.2231 -0.3415
 7941W        W24125  14.961   8.572   4.811  0.0516 -0.3164 -0.3258
 7942W        W24126  14.800   9.104  11.492  0.1907 -0.0477  0.0396
 7943W        W24127   4.939  12.409   3.769 -0.0694  0.0953  0.1461
 7944W        W24128  14.138   4.664  10.569  0.1748 -0.0655 -0.3291
 7945W        W24129   7.550  11.973  14.078 -0.0331 -0.1594  0.4851
 7946W        W24130   9.799  18.591  10.829  0.2528 -0.1006  0.1391
 7947W        W24131   8.230   6.246  10.734 -0.0156 -0.1083  0.0532
 7948W        W24132   3.518   8.377   1.973 -0.0529  0.2612 -0.1843
 7949W        W24133  16.271  12.865   1.492 -0.1088  0.0693 -0.1331
 7950W        W24134   3.173   9.266   4.249 -0.1786 -0.0450  0.0140
 7951W        W24135   3.119   8.302   4.287 -0.1005 -0.0495  0.0308
 7952W        W24136   0.605   3.384   4.077 -0.0571 -0.0336  0.2342
 7953W        W24137  15.096  14.145  14.915  0.0268  0.1148 -0.2338
 7954W        W24138   1.212   0.383  14.248 -0.0067 -0.0025  0.1226
 7955W        W24139   4.411   2.995   1.747  0.3982 -0.3571  0.0417
 7956W        W24140   2.109  19.090   0.044  0.2603  0.0194 -0.0464
 7957W        W24141  16.477   8.718   5.306 -0.2692 -0.0461  0.3552
 7958W        W24142   7.971   2.823   2.598  0.4868 -0.4148  0.4161
 7959W        W24143  15.901   3.417  11.758 -0.1516  0.0274 -0.3109
 7960W        W24144   1.515  10.886  11.734  0.0308 -0.2326 -0.1065
 7961W        W24145  12.641   0.669   3.799  0.1897 -0.2449  0.1014
 7962W        W24146   7.136  15.205  11.167 -0.0404 -0.2237  0.1623
 7963W        W24147   2.463  10.283   4.869 -0.0360  0.2302  0.1702
 7964W        W24148   1.282  16.032   1.840  0.1688 -0.0946 -0.1352
 7965W        W24149  18.224  17.198   4.747  0.0511 -0.1429 -0.3343
 7966W        W24150  16.899  12.646   4.740  0.1601 -0.0465  0.1773
 7967W        W24151  17.293   8.035   2.952  0.2211 -0.4488 -0.0634
 7968W        W24152  16.082   8.198   4.135 -0.1186 -0.1656  0.2362
 7969W        W24153   7.641   3.125  11.169  0.2830 -0.1700  0.1228
 7970W        W24154  19.109  15.914  12.094  0.1186 -0.3493  0.1054
 7971W        W24155  17.125   7.102   9.178  0.0609 -0.1933 -0.4111
 7972W        W24156  15.448  15.051   1.641 -0.3191 -0.2319 -0.2604
 7973W        W24157  17.984   2.250  14.513  0.0991 -0.0840  0.1388
 7974W        W24158   1.842   7.220   0.970 -0.1198 -0.3764 -0.1330
 7975W        W24159   1.375  14.365   3.622 -0.0654  0.3461  0.0474
 7976W        W24160   2.149   1.448   0.014 -0.1848  0.1550 -0.1087
 7977W        W24161  10.887   7.446   4.209  0.0720  0.0193 -0.1860
 7978W        W24162  11.981  16.877   2.915  0.2957  0.0018  0.0280
 7979W        W24163   2.620   7.533  11.395  0.0621  0.3662 -0.1772
 7980W        W24164  12.165   6.740   4.576 -0.1488 -0.0964 -0.1668
 7981W        W24165   5.492  13.082  14.176 -0.0047  0.0896  0.0777
 7982W        W24166   1.724   0.154  13.680  0.3788 -0.3500 -0.0569
 7983W        W24167   0.925  17.585   4.952  0.1071  0.2251  0.1219
 7984W        W24168  11.487   2.365  14.660 -0.0471 -0.2763  0.2400
 7985W        W24169  19.324   5.397  10.329  0.0701  0.0452 -0.1205
 7986W        W24170   1.741   2.553   1.944  0.1958 -0.3000  0.2205
 7987W        W24171   7.588   2.450  13.686  0.0513 -0.2232 -0.1624
 7988W        W24172   0.849   4.180   0.824  0.0938  0.3129  0.3287
 7989W        W24173  14.701  17.664   1.127 -0.3643  0.3726  0.1972
 7990W        W24174  13.755   2.632  11.166  0.1378  0.2059  0.0575
 7991W        W24175   7.413   3.273  10.762 -0.0369 -0.0325  0.0911
 7992W        W24176   3.404  10.782   2.470  0.5693  0.3055 -0.0664
 7993W        W24177   9.805   2.549  14.395 -0.0343  0.0333  0.0813
 7994W        W24178   0.355   7.473   4.581  0.2869  0.1605 -0.2516
 7995W        W24179  17.661   0.349   2.642  0.1725  0.0352 -0.0397
 7996W        W24180  17.687  10.846   2.674  0.0652  0.0071 -0.2677
 7997W        W24181  12.054   5.195   1.044  0.1328  0.0075 -0.4339
 7998W        W24182   1.024   5.900  12.852 -0.5700 -0.2746 -0.0065
 7999W        W24183  16.672   5.365  12.767 -0.1925 -0.0478  0.1403
 8000W        W24184   7.936   9.959   4.748 -0.0371  0.3435  0.0530
 8001W        W24185   1.593   1.876  13.497  0.0693  0.5224 -0.0361
 8002W        W24186   4.094   9.617   2.852  0.0206 -0.2669  0.0995
 8003W        W24187   2.337  18.048   2.759  0.0034  0.0472  0.1811
 8004W        W24188   4.850   4.533   3.307  0.2563  0.0087 -0.2669
 8005W        W24189   0.300  14.684  13.955 -0.1781  0.2575  0.0576
 8006W        W24190  11.362   5.788  13.122  0.0067 -0.3633  0.3921
 8007W        W24191   7.548  19.105  11.960  0.1574  0.2736  0.4070
 8008W        W24192  16.744  14.246   6.107  0.0862 -0.1399 -0.3725
 8009W        W24193   5.974   3.062  14.665 -0.1858 -0.1901  0.0389
 8010W        W24194  10.800   9.901   4.146 -0.0298  0.3643  0.2135
 8011W        W24195   7.658  17.915  11.675 -0.1401  0.0644 -0.1221
 8012W        W24196  13.089   9.055   0.090  0.2567 -0.0104  0.1601
 8013W        W24197  16.007   8.887   0.834 -0.0716  0.1845 -0.0008
 8014W        W24198  11.397   8.118  10.947  0.1022 -0.3401  0.0765
 8015W        W24199  14.296  10.232  13.920 -0.3571 -0.2252 -0.3536
 8016W        W24200  12.376  16.596   0.964 -0.0566  0.4982 -0.3935
 8017W        W24201   7.652   1.760  11.545  0.4371  0.4589  0.0141
 8018W        W24202  14.874  13.183  13.661 -0.2176 -0.1052  0.0459
 8019W        W24203   3.131  10.243  11.305 -0.0348  0.1899 -0.0247
 8020W        W24204   3.440   5.559  10.574 -0.1765  0.4685 -0.0981
 8021W        W24205   5.239   3.412   1.361  0.1358  0.0364  0.3589
 8022W        W24206  15.230   8.335   4.415 -0.1131  0.2654 -0.1389
 8023W        W24207  17.927   8.082  12.480 -0.1858 -0.0521  0.1619
 8024W        W24208  17.768  19.256   3.552 -0.3640  0.0290  0.0020
 8025W        W24209  11.359  14.274  14.606  0.0621  0.0722 -0.3879
 8026W        W24210  18.982   1.485  10.586  0.0530 -0.2283 -0.0818
 8027W        W24211   5.879  12.168  13.392 -0.0240  0.0814 -0.2789
 8028W        W24212   8.308   7.759  10.311  0.1145  0.3045  0.0015
 8029W        W24213   9.070  13.948  10.585 -0.3807  0.2336 -0.0745
 8030W        W24214  12.124  18.724   4.317  0.0216 -0.2187 -0.1829
 8031W        W24215   6.062  12.908  10.536  0.4348  0.1074  0.2796
 8032W        W24216   2.131   7.390  14.555 -0.2329 -0.1205  0.5003
 8033W        W24217  12.776   6.551  11.868  0.0695 -0.1629  0.0601
 8034W        W24218   6.213  16.173  14.875  0.0700  0.0543  0.0286
 8035W        W24219   8.228  12.682   2.674  0.1911  0.1126  0.0260
 8036W        W24220   1.806  16.289  14.354 -0.0209 -0.0577 -0.1296
 8037W        W24221  15.363  14.478  13.694  0.1317  0.2170 -0.0751
 8038W        W24222   9.736   0.822  12.784  0.4059 -0.0135  0.1790
 8039W        W24223   0.705   8.512  14.301 -0.0299  0.0695  0.0237
 8040W        W24224   1.972  11.464  14.894  0.0493 -0.1263  0.1634
 8041W        W24225   9.757   9.527  12.242  0.3838  0.2126 -0.3727
 8042W        W24226  11.766  16.022   4.278  0.0452  0.2778  0.2101
 8043W        W24227  11.145  18.557   2.858  0.2315 -0.0661  0.1982
 8044W        W24228   8.046  19.084   1.604  0.0045  0.2219  0.4064
 8045W        W24229   3.970   1.271  11.213  0.0186 -0.1247 -0.0142
 8046W        W24230  19.243  10.551  13.861  0.0010  0.1484 -0.0506
 8047W        W24231   7.896  12.550   2.289 -0.2603  0.1465  0.0974
 8048W        W24232  17.710   7.320  11.559 -0.1183  0.2407  0.1233
 8049W        W24233   4.580  18.483  12.338  0.0874  0.0486  0.1845
 8050W        W24234   0.471   9.115  14.402  0.1736  0.0913  0.4399
 8051W        W24235  11.582   7.784   4.298  0.1030 -0.2682  0.1245
 8052W        W24236  11.672   6.165  14.312 -0.0763 -0.0559 -0.2039
 8053W        W24237  16.591  13.509   4.372  0.0331 -0.3537  0.1268
 8054W        W24238   9.057   1.964   0.697 -0.0292 -0.3642 -0.0740
 8055W        W24239   4.327  16.262   5.103  0.1729  0.1247 -0.0837
 8056W        W24240   8.981  10.406  10.823  0.1651  0.1282 -0.1703
 8057W        W24241   9.695   4.117   0.500  0.0967  0.0629 -0.1109
 8058W        W24242  11.258   2.935   4.975  0.0965 -0.0328 -0.3157
 8059W        W24243   7.812  14.250  12.130  0.1773  0.0636 -0.2562
 8060W        W24244   0.261  11.643   2.073 -0.0745 -0.0267 -0.0704
 8061W        W24245   0.118   8.726  14.289 -0.2943  0.2713 -0.0245
 8062W        W24246  11.946   8.098   4.381  0.2471 -0.1041 -0.2846
 8063W        W24247   0.403  16.169  14.196  0.1983 -0.0122 -0.0339
 8064W        W24248   0.165   4.151   4.479  0.4179  0.0831 -0.2761
 8065W        W24249   7.068   6.263  11.930 -0.1547  0.0002 -0.1560
 8066W        W24250   9.735  14.747   5.643 -0.1708 -0.1428  0.3950
 8067W        W24251   9.816   1.598   4.430 -0.0398 -0.1398  0.3159
 8068W        W24252   9.461   3.910   2.960  0.0406  0.0683  0.1026
 8069W        W24253   2.906  17.737  14.873 -0.0330  0.0048  0.0837
 8070W        W24254   7.826   0.976   3.420 -0.0325  0.3523 -0.2979
 8071W        W24255  16.574   5.110   1.832  0.3067 -0.1046  0.0263
 8072W        W24256  16.383  12.316   1.413 -0.0757 -0.2653 -0.0565
 8073W        W24257   2.072  11.857  12.470  0.1875 -0.0201 -0.3107
 8074W        W24258   9.792  11.814  13.404  0.2311  0.0084  0.0364
 8075W        W24259   1.136  14.090   4.552 -0.2304 -0.0017 -0.0495
 8076W        W24260  17.975   7.790  14.302 -0.0470 -0.2959  0.0704
 8077W        W24261  11.909  11.879  10.690 -0.0341  0.0948  0.1783
 8078W        W24262  17.442  14.426  13.927  0.0608  0.2823  0.3550
 8079W        W24263  17.497   1.983   1.135  0.0417 -0.0845  0.2947
 8080W        W24264  10.002   9.993   0.667 -0.3344 -0.1988  0.0210
 8081W        W24265   7.837   2.568   1.918  0.0350 -0.1204 -0.1678
 8082W        W24266   3.098   8.248   2.956  0.5052  0.0897 -0.1843
 8083W        W24267  12.761   3.545  10.494  0.0154 -0.1542 -0.2783
 8084W        W24268   7.630  16.021   3.340 -0.0303  0.0330 -0.0424
 8085W        W24269   2.182   9.590  13.482  0.2396 -0.5731  0.1062
 8086W        W24270   9.371  16.994   6.194  0.0019 -0.0982  0.1444
 8087W        W24271   3.026  18.368  11.114 -0.0369 -0.0227  0.4323
 8088W        W24272   5.827   5.898  13.367  0.0259 -0.1703 -0.1951
 8089W        W24273  10.822  10.492  14.494  0.0199  0.3626  0.0601
 8090W        W24274   8.437  16.947  13.005  0.0139  0.0969 -0.2820
 8091W        W24275  13.224  10.324  14.733  0.1403  0.0592 -0.0029
 8092W        W24276  17.323   8.838   2.788 -0.2660  0.1370 -0.2655
 8093W        W24277  16.679  14.777   4.504 -0.1697  0.0260 -0.1171
 8094W        W24278   0.309  13.456  14.180  0.2202  0.0071  0.0851
 8095W        W24279  15.120   3.026   2.834 -0.0226 -0.2922 -0.0155
 8096W        W24280   8.471  18.726   3.175  0.0502 -0.0540  0.1911
 8097W        W24281   5.288   1.187   0.913 -0.1797 -0.1125 -0.1774
 8098W        W24282   2.008  18.352   4.252  0.0962 -0.2063 -0.4822
 8099W        W24283   2.507   9.059  14.595  0.1498 -0.1453 -0.1196
 8100W        W24284  11.697  12.333  10.897  0.1542 -0.0551 -0.2211
 8101W        W24285  14.100  11.193  14.541  0.1157 -0.1707 -0.0677
 8102W        W24286   7.630   6.689  12.918 -0.0148 -0.3659 -0.0847
 8103W        W24287   3.426  15.530   5.330 -0.1299  0.0449 -0.2463
 8104W        W24288   4.860   1.031  13.332  0.0477  0.3490  0.0120
 8105W        W24289   4.128   3.084   3.192  0.0705 -0.1525 -0.3423
 8106W        W24290   7.084   8.871  12.265 -0.1374 -0.0735  0.2073
 8107W        W24291   1.091  12.149   0.395  0.1851 -0.0371 -0.2628
 8108W        W24292  16.409   3.597   2.888  0.2387  0.0064 -0.0513
 8109W        W24293  13.975   0.164   1.795 -0.2258  0.1006  0.1469
 8110W        W24294  13.530   3.849  12.534 -0.1060 -0.1079  0.1252
 8111W        W24295  10.079   0.138  10.289  0.2001  0.0245 -0.4475
 8112W        W24296   5.952   1.972   0.998  0.0336  0.0891  0.2604
 8113W        W24297  10.308   9.860  12.330  0.1582  0.0183 -0.0950
 8114W        W24298  19.166  16.404  14.675  0.0930 -0.1485  0.0218
 8115W        W24299  14.129  14.036  13.478 -0.1809  0.2526 -0.1317
 8116W        W24300   1.193  12.391  12.381  0.0208  0.0488 -0.1994
 8117W        W24301   9.145   0.569   4.580  0.0945  0.2449  0.2518
 8118W        W24302   2.442  17.200  12.183 -0.0990 -0.3266  0.0795
 8119W        W24303  10.218   6.351   4.463  0.2265 -0.1338  0.0565
 8120W        W24304  12.225   7.296  11.499  0.2149  0.2851  0.1365
 8121W        W24305   3.057   0.495   1.810  0.0672 -0.1511  0.0451
 8122W        W24306  14.395  19.300   0.199 -0.0718  0.0669 -0.1561
 8123W        W24307  10.440   8.866   0.790  0.2521 -0.2325  0.1462
 8124W        W24308   2.395  12.905   2.962  0.0526  0.2411  0.0565
 8125W        W24309  16.331   7.052  14.291  0.0693 -0.2854 -0.1191
 8126W        W24310  11.673   6.762   2.382  0.2849  0.0254 -0.0167
 8127W        W24311   3.775   1.601   5.190 -0.3112 -0.1927  0.3045
 8128W        W24312   1.482  19.359  11.376  0.1604  0.1371 -0.0487
 8129W        W24313   1.540   8.150   0.391 -0.1295 -0.0389  0.0948
 8130W        W24314   7.402   1.066   0.992  0.1115  0.0412 -0.2640
 8131W        W24315   9.595   5.337   1.995 -0.1574 -0.3839 -0.3192
 8132W        W24316   4.723   9.414   0.018  0.0130  0.2857 -0.1081
 8133W        W24317   0.920   9.641   2.583 -0.0136 -0.3174  0.1272
 8134W        W24318   5.259  13.995  10.950  0.4109 -0.0064  0.2163
 8135W        W24319   9.473  17.508   4.552  0.0545  0.0272 -0.0145
 8136W        W24320  15.517   0.480  12.249 -0.3896 -0.0305 -0.3184
 8137W        W24321  18.741  10.049  10.931 -0.0383  0.3192 -0.0636
 8138W        W24322  18.717   1.343  10.990  0.1189 -0.3390  0.3049
 8139W        W24323   8.126  15.942  11.520  0.2470 -0.0565  0.1221
 8140W        W24324  13.587  18.280   4.526  0.0519  0.2829  0.0796
 8141W        W24325   3.935   5.790  14.118 -0.0202 -0.0379 -0.0383
 8142W        W24326   4.907   1.008  11.436  0.1083 -0.3225 -0.1247
 8143W        W24327   5.021   6.516   1.228  0.1196  0.3892 -0.3508
 8144W        W24328  11.524   2.322   1.474 -0.0454 -0.3153 -0.0899
 8145W        W24329  12.402  10.454  13.568  0.0168  0.0625 -0.0040
 8146W        W24330   2.092  14.211   3.879  0.1792  0.0539 -0.0121
 8147W        W24331  15.810  16.256  12.738 -0.2436 -0.2563 -0.1040
 8148W        W24332   5.937   6.682   4.033  0.1342  0.2892 -0.0223
 8149W        W24333   4.927   6.787   1.699 -0.3866 -0.0407 -0.0045
 8150W        W24334  15.020  16.759   1.699  0.0474 -0.2407  0.0976
 8151W        W24335  17.723   6.694   1.646  0.1733  0.4162 -0.2828
 8152W        W24336  11.342  12.682   0.343  0.0675  0.0096 -0.0197
 8153W        W24337   4.931   8.187   1.622 -0.2045 -0.4172 -0.3575
 8154W        W24338  19.303   6.291  10.295  0.0652 -0.1424  0.1166
 8155W        W24339  18.147   3.132  12.754  0.0045 -0.3033 -0.0746
 8156W        W24340  12.842   3.388  14.264  0.0389 -0.0726 -0.0017
 8157W        W24341   9.395  10.923  12.331  0.0535 -0.0321  0.2737
 8158W        W24342  18.372   1.924   0.909  0.0587 -0.2638  0.0495
 8159W        W24343  15.646  17.472  11.047  0.2547 -0.0507 -0.0100
 8160W        W24344  11.646   0.626   2.741  0.0664 -0.0307  0.0756
 8161W        W24345   9.487  10.573  12.622 -0.0735  0.0878  0.0963
 8162W        W24346  13.124  11.509   5.800 -0.3635 -0.2213  0.1857
 8163W        W24347  11.756  12.546   2.333 -0.0733  0.1207 -0.0911
 8164W        W24348  18.654  10.181   2.140 -0.3193  0.0423 -0.0247
 8165W        W24349  15.585   1.773   1.630  0.1298 -0.2409  0.1545
 8166W        W24350  10.909   7.162   0.242 -0.3678  0.2819  0.0808
 8167W        W24351   7.941   3.616  11.397 -0.0143 -0.2734 -0.1363
 8168W        W24352  12.938  16.551   5.108  0.0655  0.1138  0.1203
 8169W        W24353   9.327   9.037   2.804  0.1080  0.1144 -0.4234
 8170W        W24354   7.659  18.373   3.962  0.0183 -0.0737  0.0597
 8171W        W24355   6.645  13.396   4.552 -0.0549 -0.1341 -0.0289
 8172W        W24356  14.344   9.691   3.945 -0.4128 -0.0170  0.1486
 8173W        W24357  10.388  11.341  12.419 -0.2758  0.0099  0.1969
 8174W        W24358  14.765  13.837   4.421  0.0244 -0.3102 -0.0376
 8175W        W24359  18.671   4.504   3.507  0.1702 -0.2271 -0.0205
 8176W        W24360  15.822   6.527  13.947  0.0130 -0.1807  0.0084
 8177W        W24361  10.902  13.638   4.057 -0.3203  0.0926  0.1066
 8178W        W24362   7.062  15.664   0.831 -0.2533 -0.0123  0.1237
 8179W        W24363  11.002  18.286   1.593  0.1405  0.0709 -0.2880
 8180W        W24364  15.656   7.858  13.721  0.1813  0.0667  0.1855
 8181W        W24365   3.290   3.749   1.622 -0.3003 -0.2487 -0.2539
 8182W        W24366  11.348   8.236   0.884  0.1173 -0.2063  0.1613
 8183W        W24367  19.213  16.327   3.387 -0.0391 -0.4088 -0.3891
 8184W        W24368   9.541  17.533   2.081 -0.0174 -0.1266  0.3526
 8185W        W24369   0.630   1.185   2.402 -0.1436  0.1987 -0.0784
 8186W        W24370   8.299   9.664  11.151  0.1806 -0.2141  0.0952
 8187W        W24371   9.161  14.950   6.287 -0.1162  0.0169 -0.1002
 8188W        W24372   8.220  12.787   9.634  0.0597 -0.1606  0.1163
 8189W        W24373   5.799   5.872  10.442  0.1210 -0.0600 -0.3833
 8190W        W24374   9.214  11.477  14.015  0.1638 -0.1505 -0.3584
 8191W        W24375  13.585  11.586  12.180  0.2836  0.4172 -0.0133
 8192W        W24376  15.137  12.901  13.214 -0.0311  0.2563  0.1303
 8193W        W24377   9.634   2.748  11.864 -0.2300 -0.1034  0.1855
 8194W        W24378  16.008   9.904   0.422 -0.4392 -0.3392 -0.1195
 8195W        W24379  11.372  18.725   0.157  0.1075 -0.1865  0.1512
 8196W        W24380  18.644   4.027   2.655  0.0050  0.5544 -0.0237
 8197W        W24381  11.342   3.144   1.727  0.0367 -0.0922 -0.0956
 8198W        W24382   6.859   1.201  14.478 -0.2238 -0.1831  0.1425
 8199W        W24383   5.005   1.361   1.390  0.0793 -0.2124  0.0311
 8200W        W24384   9.080   4.342   3.586 -0.0662  0.0026 -0.1618
 8201W        W24385   8.425   0.122   3.595  0.1337  0.5129  0.1734
 8202W        W24386   3.139   0.917   5.351  0.1851  0.2157  0.0594
 8203W        W24387  15.163  17.909   1.194 -0.1582 -0.1614  0.1027
 8204W        W24388   1.107   0.457   0.884  0.0510 -0.1864 -0.3112
 8205W        W24389   4.337  12.724   1.542 -0.0480 -0.0160  0.0665
 8206W        W24390  18.096  18.672  14.140 -0.1646 -0.2465 -0.2735
 8207W        W24391   9.210  18.628  13.454  0.0217 -0.0112  0.1052
 8208W        W24392   5.797   9.246   3.043  0.0437  0.1760 -0.0692
 8209W        W24393  12.621   4.587   1.407 -0.1256 -0.0460  0.1162
 8210W        W24394  15.742   5.367   2.408  0.0545 -0.0966 -0.0789
 8211W        W24395   0.062  13.299   4.038 -0.0410 -0.3815 -0.0623
 8212W        W24396  10.757   8.313  10.640 -0.0494  0.3406  0.1187
 8213W        W24397   0.366  18.695  14.425  0.1554 -0.0673 -0.2775
 8214W        W24398   1.498   7.101   9.573  0.2350  0.1731  0.3793
 8215W        W24399  14.572   7.421  10.564 -0.0008  0.1699 -0.0329
 8216W        W24400   3.571   1.169   4.339 -0.0737 -0.0866 -0.2975
 8217W        W24401   1.768  15.053  14.867  0.1501 -0.0066  0.0335
 8218W        W24402   1.315   7.679   0.415 -0.1917  0.0092  0.1087
 8219W        W24403  11.211  18.496   4.157  0.3194 -0.1790  0.0016
 8220W        W24404   3.382  17.087   4.826 -0.3491  0.2941  0.3819
 8221W        W24405  15.230   7.032  14.122 -0.0927 -0.0202 -0.0043
 8222W        W24406   2.947  17.917   1.751 -0.0025  0.0314  0.0422
 8223W        W24407   0.383   9.751   0.054 -0.0981  0.0492 -0.0063
 8224W        W24408  17.697   3.137  14.556  0.2241  0.1750  0.1729
 8225W        W24409   7.504  13.097   3.732 -0.1544  0.0375  0.0373
 8226W        W24410   1.905  11.870   2.958  0.0776  0.1261  0.0148
 8227W        W24411   5.519   1.775  14.694  0.2883 -0.0098 -0.5353
 8228W        W24412  15.452  15.568  11.143 -0.0851  0.3735  0.0092
 8229W        W24413  10.597  10.574  10.872  0.1164  0.0023 -0.1942
 8230W        W24414  11.989  14.609  12.359  0.1175  0.1371 -0.0513
 8231W        W24415   1.457   1.501  12.608 -0.1996  0.2804 -0.2328
 8232W        W24416  10.223  16.026   5.749  0.1985  0.1234  0.0756
 8233W        W24417   2.454   9.303  13.052  0.2239 -0.2291 -0.2941
 8234W        W24418  13.248   2.295   1.674 -0.0114 -0.1897  0.2258
 8235W        W24419   0.409  17.868   1.129 -0.2452  0.2042 -0.1935
 8236W        W24420   3.329   0.790  14.035  0.0426 -0.0592 -0.2992
 8237W        W24421   1.325  15.967   2.313  0.1207  0.1293 -0.0152
 8238W        W24422   2.629   8.601   4.431 -0.1109  0.1308 -0.0567
 8239W        W24423  16.847   8.312   5.102 -0.2563 -0.0190 -0.2364
 8240W        W24424  10.296   8.608   2.252 -0.2561  0.0360 -0.0270
 8241W        W24425   1.930  15.853  13.407  0.0104 -0.0155 -0.2976
 8242W        W24426   1.221  18.613   5.663  0.0531  0.0525  0.0167
 8243W        W24427   6.514  14.898  12.617  0.2847 -0.0031  0.3556
 8244W        W24428  13.011   5.181   2.620  0.1080 -0.0843 -0.1349
 8245W        W24429  11.752   6.655  10.932 -0.1564  0.1481  0.0062
 8246W        W24430   9.796   8.069  14.559  0.0838  0.2497  0.0114
 8247W        W24431   3.702   8.932  13.051 -0.1765 -0.1594 -0.2162
 8248W        W24432   1.735  14.572   1.575  0.0506 -0.2298  0.1440
 8249W        W24433  10.526  16.323   3.887 -0.0116  0.2083 -0.0998
 8250W        W24434   8.898   3.997  11.563  0.1274  0.3714 -0.2997
 8251W        W24435  11.241   9.640  13.879  0.1233  0.2288 -0.0643
 8252W        W24436   7.060  17.630  14.818 -0.3765 -0.2548  0.1382
 8253W        W24437  12.629  16.491   3.486  0.1771  0.0909  0.3196
 8254W        W24438   3.267  14.275  13.862  0.0524 -0.1016  0.0966
 8255W        W24439  11.103   9.787  13.382 -0.1795 -0.0665 -0.0190
 8256W        W24440   2.174   4.741  13.168  0.1936 -0.3462  0.0143
 8257W        W24441  10.565  17.526  10.041  0.0966  0.0977  0.0730
 8258W        W24442  18.023   6.575   0.118  0.0061  0.4941  0.2148
 8259W        W24443   9.976  17.783   0.297  0.0160 -0.2957  0.0281
 8260W        W24444  13.537   6.767  14.684 -0.1048 -0.1860  0.2562
 8261W        W24445  17.339  19.126  11.034  0.0346 -0.3411  0.1189
 8262W        W24446   4.548   4.019  11.612 -0.0916  0.1118 -0.0883
 8263W        W24447   4.828   1.486   0.856 -0.0578  0.3043  0.0053
 8264W        W24448   1.953   2.778  13.352  0.3693  0.2406 -0.0899
 8265W        W24449   9.502  12.582   4.894  0.0620  0.1259  0.0177
 8266W        W24450  15.504   6.804  12.019 -0.0303 -0.0152  0.3032
 8267W        W24451   3.220  19.121   5.362 -0.3613 -0.2413 -0.0303
 8268W        W24452  11.236   2.621   1.888 -0.0261 -0.0944  0.0329
 8269W        W24453   4.370  14.588   1.789 -0.4243 -0.0053  0.1510
 8270W        W24454   9.247  11.667  13.432 -0.0438 -0.0958  0.3241
 8271W        W24455   9.533   8.840   5.727  0.2904  0.0658 -0.1455
 8272W        W24456   0.424   5.511   3.210 -0.0177  0.0908  0.2307
 8273W        W24457   1.398   9.756   2.809 -0.2250  0.1933  0.3299
 8274W        W24458   7.434   1.471   3.364 -0.4873  0.0386 -0.3345
 8275W        W24459  10.629   3.958   4.259  0.0057  0.0783 -0.0984
 8276W        W24460  14.908  15.512   4.428  0.0005  0.2504 -0.0220
 8277W        W24461   9.254   7.791   3.139 -0.0706  0.1167 -0.5097
 8278W        W24462   0.783   0.518   2.948  0.3275  0.0982 -0.1088
 8279W        W24463   6.077   3.077   0.999  0.1552  0.0711  0.0396
 8280W        W24464  18.995  15.329   1.544  0.0954 -0.1008 -0.0934
 8281W        W24465  11.059  13.893   4.526  0.0411 -0.2502 -0.0992
 8282W        W24466   3.207   3.835   3.462 -0.4197 -0.1101 -0.1719
 8283W        W24467  14.137  11.602  11.917  0.3693  0.1108  0.0150
 8284W        W24468   3.088  14.166  10.925 -0.4766  0.0431  0.0570
 8285W        W24469   4.000  15.222   0.372 -0.0106  0.3103  0.1576
 8286W        W24470  17.637  10.746  10.449  0.0818 -0.1612  0.0069
 8287W        W24471  11.117  18.769  11.510 -0.0264  0.0820 -0.1428
 8288W        W24472   1.976   0.531  14.894 -0.0615 -0.1688 -0.0366
 8289W        W24473   6.620  11.184  12.376  0.1445 -0.1155 -0.1758
 8290W        W24474   1.707  14.780  11.698 -0.0241  0.0114  0.1852
 8291W        W24475  18.110   2.241   0.368 -0.0077 -0.3477  0.5862
 8292W        W24476  15.535  19.236  14.730 -0.1782  0.1140 -0.1218
 8293W        W24477  14.706  12.799   2.321  0.1275  0.3538 -0.2234
 8294W        W24478  16.148  16.034   0.515  0.1794  0.0397  0.4206
 8295W        W24479   0.747  10.461  11.989  0.0469  0.0138 -0.0554
 8296W        W24480   1.014   4.874  12.319  0.1800 -0.1808 -0.1699
 8297W        W24481  18.945   3.741  13.649 -0.2150  0.3736 -0.1721
 8298W        W24482   5.692  11.449  12.438  0.1470 -0.0882  0.0193
 8299W        W24483  17.783   1.271   0.683 -0.3612 -0.2123  0.0423
 8300W        W24484   0.439   4.507   0.013 -0.0811 -0.1016  0.2482
 8301W        W24485  10.921  14.001   3.595 -0.0314 -0.1361  0.4357
 8302W        W24486  14.724  18.305  10.565  0.3397  0.2765 -0.0139
 8303W        W24487   9.733   0.113   3.707  0.1708 -0.0228 -0.0815
 8304W        W24488  11.255   3.227   3.874  0.0516  0.3530  0.1657
 8305W        W24489   2.863  16.136   2.821  0.1203 -0.0753  0.1663
 8306W        W24490  15.013  12.280  11.918  0.2564  0.1889  0.0027
 8307W        W24491  10.466  12.173  12.771 -0.2221  0.1041 -0.2296
 8308W        W24492  18.525  16.840   4.604  0.1048 -0.2440  0.2212
 8309W        W24493   0.824   4.487   1.770 -0.0197  0.1915  0.2932
 8310W        W24494  13.804  17.367  11.982  0.1237 -0.0932  0.0172
 8311W        W24495   8.509   6.891   3.882  0.2809  0.2315 -0.1447
 8312W        W24496   6.243  13.002   1.725  0.0226  0.1754 -0.0548
 8313W        W24497   6.074   6.111   2.684  0.1678 -0.0664  0.0271
 8314W        W24498   1.099   3.740   0.019 -0.0137  0.2773  0.1854
 8315W        W24499  18.736   1.809   0.575 -0.2784 -0.1167 -0.1992
 8316W        W24500   4.819   9.138   1.937 -0.0800 -0.1000 -0.0064
 8317W        W24501   3.048   5.707  11.562 -0.4000 -0.1080 -0.0447
 8318W        W24502   3.924   5.142  11.645  0.0978  0.3351  0.0933
 8319W        W24503   0.352   9.261  12.495  0.1257  0.0494 -0.2212
 8320W        W24504   2.967   3.509   2.151 -0.2285  0.0833  0.2573
 8321W        W24505  10.504  12.483  11.366 -0.1200  0.2145  0.1674
 8322W        W24506   8.678  14.869  12.909  0.2546 -0.1226  0.3795
 8323W        W24507   2.166  17.524   3.979 -0.0980  0.1100  0.2205
 8324W        W24508  16.639   8.113  14.562 -0.0273  0.0717  0.0272
 8325W        W24509  11.325   8.914  14.133  0.0495 -0.1062 -0.3030
 8326W        W24510  10.300   7.951  11.577 -0.3608  0.0266  0.2096
 8327W        W24511  11.936   6.791   4.040 -0.1794  0.2025  0.3481
 8328W        W24512   2.879  13.987   3.872  0.2411 -0.0230  0.2070
 8329W        W24513   8.188   3.975  11.935 -0.0645  0.1690 -0.0177
 8330W        W24514   4.139  11.748  13.865 -0.1826  0.0905  0.0704
 8331W        W24515   4.507   2.389  14.166  0.1264  0.0365  0.0774
 8332W        W24516   2.231  15.835   4.587  0.2833 -0.3161 -0.1083
 8333W        W24517  12.953   8.199  14.928  0.0605  0.0493  0.2858
 8334W        W24518  10.547   1.948   4.901 -0.0065  0.1564  0.0154
 8335W        W24519   5.193   6.375  11.794 -0.3359  0.1050 -0.2663
 8336W        W24520  16.503  16.727  12.290  0.0719 -0.1041 -0.0558
 8337W        W24521   2.170  19.007  11.759  0.3825  0.0798 -0.1530
 8338W        W24522  11.900   7.860   0.869 -0.1061  0.1338  0.1348
 8339W        W24523   4.881  10.707  11.371  0.0166  0.1497  0.2929
 8340W        W24524   1.275   6.356  14.827 -0.0912  0.0689  0.2764
 8341W        W24525   5.894   9.444   5.009 -0.1600 -0.2578  0.0805
 8342W        W24526   1.260  14.261  14.202 -0.1531  0.3109 -0.1179
 8343W        W24527   1.811   7.651  13.428  0.4185 -0.0704 -0.1599
 8344W        W24528   0.791  14.309   1.415 -0.0216 -0.2564 -0.1893
 8345W        W24529   8.497   9.421   1.532  0.0089 -0.0188 -0.1157
 8346W        W24530   7.627  15.046  12.628 -0.1896 -0.1390 -0.6339
 8347W        W24531  18.189  11.347   3.555 -0.1482 -0.2917 -0.0510
 8348W        W24532   3.761  17.895   4.240  0.2004  0.0797 -0.0797
 8349W        W24533  17.164  18.494  12.580 -0.3329 -0.0758  0.0516
 8350W        W24534   9.278   3.043   3.398  0.1542 -0.0994 -0.0755
 8351W        W24535  10.526  15.845  11.135  0.0241 -0.0128 -0.1676
 8352W        W24536  12.683  12.698   4.127  0.0921 -0.1026 -0.2281
 8353W        W24537  11.377   4.224  12.975  0.0827 -0.2740  0.3551
 8354W        W24538   6.249  16.257   3.208  0.2130  0.1515 -0.0771
 8355W        W24539  11.879   0.732   3.598  0.0104 -0.0770 -0.0864
 8356W        W24540   1.451  18.401  13.057 -0.1400  0.0511  0.4927
 8357W        W24541  10.802  19.284   3.926  0.4055  0.2260 -0.2015
 8358W        W24542   6.797  14.246  14.249  0.3879  0.1954 -0.4497
 8359W        W24543   5.867   4.561   0.893 -0.3471  0.1695  0.1147
 8360W        W24544  16.680   4.704  13.163 -0.1776 -0.3904 -0.0042
 8361W        W24545   4.961   0.024  11.192  0.3987 -0.0257 -0.0474
 8362W        W24546  17.765   3.594  11.549  0.2673  0.3374  0.2375
 8363W        W24547  18.038   4.192  14.467  0.2860 -0.1465 -0.0298
 8364W        W24548  17.523   4.373   0.072  0.1120 -0.0665  0.0764
 8365W        W24549  12.907   0.099   0.186 -0.0437  0.0329 -0.2821
 8366W        W24550   9.793  15.001   4.580  0.0914  0.2655 -0.0513
 8367W        W24551   6.920  17.205   0.123  0.1812  0.0519 -0.2719
 8368W        W24552   6.721  14.993   0.372  0.0466 -0.1442  0.2106
 8369W        W24553  19.106  15.956   4.366 -0.0133 -0.3255  0.0899
 8370W        W24554   0.400  15.213   4.402 -0.2136  0.0722 -0.0409
 8371W        W24555   9.818   1.401  10.472  0.2057 -0.0644  0.0025
 8372W        W24556  17.068  16.927   4.190  0.1475  0.0167  0.2067
 8373W        W24557   0.212  16.109   0.088  0.4442 -0.0914  0.0755
 8374W        W24558   6.693  15.715   2.802  0.0043  0.2123  0.0158
 8375W        W24559   3.978  14.133   1.964 -0.1128 -0.0999 -0.2718
 8376W        W24560  13.960  10.102   3.332  0.0962 -0.0426 -0.0991
 8377W        W24561   4.634  16.473  10.933  0.0346  0.4270 -0.0789
 8378W        W24562   1.442   6.565   3.552  0.4327  0.1874 -0.0161
 8379W        W24563  15.582  17.946  10.804 -0.0318  0.0322 -0.1709
 8380W        W24564  10.223   5.962  14.858 -0.3082 -0.1877 -0.0921
 8381W        W24565  11.271   1.573   0.805  0.0029 -0.0837 -0.1036
 8382W        W24566  13.370  14.240   2.271  0.0775 -0.0590  0.0722
 8383W        W24567  12.713  11.090  14.625  0.0850  0.1187 -0.0410
 8384W        W24568  12.691  18.265   0.549  0.0159  0.1290 -0.2388
 8385W        W24569  10.259  16.521   1.756  0.1151 -0.1362  0.0436
 8386W        W24570  13.566  19.032  13.501 -0.1342 -0.0265  0.0416
 8387W        W24571   4.823  10.820  14.335  0.1485 -0.0865 -0.3387
 8388W        W24572  13.102   0.342  10.823  0.2897  0.1397 -0.2513
 8389W        W24573   4.479  17.807  13.064 -0.4320 -0.1306 -0.0995
 8390W        W24574  14.034  18.218   4.697  0.0824  0.0837  0.0572
 8391W        W24575  18.894   7.883   3.501 -0.0921  0.0854 -0.2749
 8392W        W24576   9.933  18.787   2.315 -0.2554 -0.0282 -0.0069
 8393W        W24577   8.528  17.705  13.798 -0.1441  0.2114 -0.1125
 8394W        W24578  13.814   2.689  12.344 -0.0544  0.2646  0.3923
 8395W        W24579   8.260   0.606  12.341 -0.0095 -0.4436  0.1744
 8396W        W24580  13.290   1.144  10.436 -0.0765 -0.0873  0.1190
 8397W        W24581  13.160   2.140   0.033  0.2423 -0.0809 -0.2857
 8398W        W24582   3.948   8.487   2.994 -0.0178  0.1068 -0.0072
 8399W        W24583   6.328  10.917   5.803  0.0409 -0.2194 -0.0213
 8400W        W24584  14.590  11.301   2.615  0.1709  0.2040  0.0842
 8401W        W24585   6.362   0.057   4.297  0.0622 -0.1105  0.2159
 8402W        W24586  14.829   1.402   2.397 -0.4024 -0.0860 -0.1369
 8403W        W24587  15.579   6.835   4.317  0.0947  0.1191  0.3260
 8404W        W24588   5.023  14.996  12.988 -0.0497 -0.1393  0.1166
 8405W        W24589  12.199   8.126   0.381 -0.3396 -0.3151  0.2224
 8406W        W24590  14.794  18.697   3.528  0.4425 -0.0169  0.3125
 8407W        W24591   0.935  16.797   0.932  0.0551  0.0294 -0.2505
 8408W        W24592  18.892  10.152  10.364  0.1674  0.0621 -0.0064
 8409W        W24593  12.589   1.100   4.109 -0.0316  0.1541 -0.2397
 8410W        W24594  12.752  17.649   2.326 -0.0145 -0.0700  0.0367
 8411W        W24595   8.137   9.462  14.588 -0.0763 -0.1546 -0.2648
 8412W        W24596  11.117   7.418   1.047 -0.2514  0.0609  0.2964
 8413W        W24597   5.236  10.775  11.884  0.0123 -0.0963 -0.1503
 8414W        W24598   9.006  14.239   1.211  0.1443  0.4747 -0.0957
 8415W        W24599   7.137  18.712   2.988 -0.2109  0.1196 -0.2004
 8416W        W24600   2.817   3.290   0.790 -0.0508  0.1850 -0.1532
 8417W        W24601  14.046   3.876  14.572 -0.0105  0.0005 -0.3174
 8418W        W24602  12.287  10.334  11.767  0.0285 -0.4954 -0.0137
 8419W        W24603   3.632   5.036  10.522 -0.0026 -0.0984 -0.0006
 8420W        W24604   3.309  12.449   5.212 -0.1614  0.0637 -0.2159
 8421W        W24605  16.990   1.276   9.962 -0.0298 -0.1483 -0.0531
 8422W        W24606  17.884  18.887   1.623  0.0012  0.0435 -0.1881
 8423W        W24607   4.458   5.015  13.818 -0.2640  0.1592 -0.2696
 8424W        W24608  16.745   5.510   2.078 -0.1115 -0.1982 -0.1609
 8425W        W24609  13.973   3.671  10.259  0.2404 -0.0611  0.0648
 8426W        W24610   6.550   6.727  14.809  0.1291  0.4455 -0.0654
 8427W        W24611   6.335   5.431   0.836 -0.1731 -0.2334  0.2284
 8428W        W24612   8.086   0.936  14.111 -0.1674  0.0878 -0.2365
 8429W        W24613   2.279  18.931  12.859 -0.0225 -0.1294 -0.1352
 8430W        W24614  11.193   0.121   9.479  0.6178  0.0134 -0.0377
 8431W        W24615  17.013  15.182  13.920  0.0281 -0.3665 -0.0664
 8432W        W24616  15.494   0.173  11.805  0.2496 -0.0037 -0.1118
 8433W        W24617   2.221   6.152   2.163  0.0719 -0.1180 -0.2345
 8434W        W24618  13.025   4.721   2.634 -0.3299 -0.1009 -0.1963
 8435W        W24619  12.024   2.498  10.938 -0.1792 -0.1115  0.0259
 8436W        W24620   8.145   3.615   4.696 -0.2653  0.1145  0.0581
 8437W        W24621   5.986  10.177   3.395  0.0897 -0.1613 -0.2052
 8438W        W24622   3.766  12.547   2.513  0.2125  0.0019  0.1212
 8439W        W24623  17.641  10.074   4.401 -0.3857 -0.0789  0.0839
 8440W        W24624   3.462  17.560  13.706  0.0984 -0.0413 -0.3272
 8441W        W24625   4.111  18.902   4.835  0.3018 -0.2753 -0.2910
 8442W        W24626  13.249   2.901   4.990 -0.3173  0.0498  0.2801
 8443W        W24627   1.637  18.765   1.270  0.0083  0.2451 -0.1054
 8444W        W24628  13.199   8.714  12.088  0.2101  0.2354 -0.2174
 8445W        W24629  16.505  11.021   0.775 -0.1667 -0.0659 -0.2439
 8446W        W24630  17.964  16.964   3.530 -0.1949  0.0326 -0.0022
 8447W        W24631   2.956  12.922   2.099 -0.3163  0.0735 -0.0083
 8448W        W24632  16.731   3.227   1.634 -0.3805 -0.0460  0.1770
 8449W        W24633   4.346   4.773   3.810 -0.3182 -0.1831  0.2327
 8450W        W24634  17.941   7.805  11.948  0.0788 -0.0984  0.2499
 8451W        W24635  18.416  15.063   1.582  0.0189  0.0822 -0.4149
 8452W        W24636   2.312  12.494   5.133  0.0208  0.2049 -0.3315
 8453W        W24637  15.390   2.516  12.549  0.0600 -0.1089 -0.0804
 8454W        W24638   4.664   4.310   1.618 -0.3485  0.1151 -0.2611
 8455W        W24639   5.447   6.789   1.517  0.1122  0.0501  0.1083
 8456W        W24640   6.566  11.178  13.626  0.1612 -0.3472 -0.3571
 8457W        W24641   2.221   6.604  13.885  0.1795  0.2331 -0.2106
 8458W        W24642   0.607  13.157  12.134 -0.0011 -0.0132 -0.2017
 8459W        W24643   0.530  19.113   5.146  0.0102 -0.2910  0.2797
 8460W        W24644   3.297   3.972  12.891 -0.2465 -0.0453  0.1840
 8461W        W24645   2.794  14.525   5.367 -0.2538  0.0053  0.2340
 8462W        W24646  18.889  11.963   3.971  0.0050 -0.1008  0.4853
 8463W        W24647  14.765   4.056  13.343 -0.0892 -0.0403  0.1306
 8464W        W24648  10.700   5.765  10.362  0.3271 -0.2174  0.4023
 8465W        W24649   4.672   3.059  14.924  0.0044  0.0390  0.0903
 8466W        W24650  11.201  14.824   3.382 -0.1660 -0.0223 -0.3257
 8467W        W24651  13.114  17.192   3.813 -0.1508 -0.0215  0.0087
 8468W        W24652  11.646  16.376  13.899  0.0547 -0.0661  0.2936
 8469W        W24653   7.128  18.604   4.834  0.1118  0.5997 -0.0664
 8470W        W24654  14.718   3.425   0.334 -0.2798  0.2490 -0.2409
 8471W        W24655   7.343  16.388   4.309  0.0480  0.4042  0.0906
 8472W        W24656   9.833  14.123   1.356  0.2606  0.0954  0.1599
 8473W        W24657   7.799  13.263   1.935 -0.0805  0.0895 -0.2285
 8474W        W24658   1.477  15.009   0.820  0.0377 -0.0281 -0.0628
 8475W        W24659   3.744  10.984  14.088 -0.2245 -0.0525 -0.2815
 8476W        W24660   1.054   1.564  12.386  0.0618 -0.1073  0.1846
 8477W        W24661  17.365  13.437   1.847  0.0734 -0.2218 -0.0986
 8478W        W24662  15.271   6.144  10.546 -0.0827 -0.0120 -0.0698
 8479W        W24663  16.512  10.792   3.830  0.0146  0.0762  0.1040
 8480W        W24664   5.024  12.773  12.306 -0.0762 -0.0328 -0.1051
 8481W        W24665   6.610   1.762   3.070 -0.1176 -0.1341  0.2293
 8482W        W24666  11.352  17.793  10.472 -0.1010  0.2521  0.0830
 8483W        W24667  17.072   9.039   4.671 -0.1762 -0.0173 -0.0411
 8484W        W24668  12.275  10.355   4.280 -0.0145 -0.1222 -0.2117
 8485W        W24669  16.702   0.443  14.926 -0.0598  0.0595 -0.1325
 8486W        W24670   0.178   2.564   1.042  0.0430 -0.4846  0.3879
 8487W        W24671   5.131  18.730  12.542 -0.2009  0.0859  0.1292
 8488W        W24672  15.163  13.253   0.555 -0.2284  0.0877  0.0246
 8489W        W24673   9.482   3.934  10.555  0.0921  0.2110 -0.1812
 8490W        W24674  17.553   1.817  14.675 -0.0142 -0.2383  0.1253
 8491W        W24675   6.345   9.476   0.958 -0.4445 -0.1123  0.1341
 8492W        W24676   8.805   8.312  11.264  0.1378 -0.0124  0.1449
 8493W        W24677  15.514  17.267   4.512 -0.1385 -0.0509 -0.2078
 8494W        W24678  11.404  15.896   4.595  0.1416 -0.0688  0.3072
 8495W        W24679   5.277   9.232  14.273 -0.0043 -0.5147 -0.0817
 8496W        W24680   0.559   6.703   0.352  0.1167 -0.0523  0.1519
 8497W        W24681  12.067  12.846  11.844  0.0269  0.0222  0.0337
 8498W        W24682   8.695   7.660  12.879 -0.1468 -0.0863  0.0034
 8499W        W24683   6.957   2.141   1.155  0.0784 -0.4017 -0.1093
 8500W        W24684  14.909  10.677   4.586  0.1286 -0.0915  0.0077
 8501W        W24685   4.691   0.533   0.996 -0.1793  0.2295 -0.0302
 8502W        W24686  10.356   0.790  14.831 -0.0074  0.3373 -0.1295
 8503W        W24687   0.292   2.904  11.343 -0.0763  0.2050 -0.1478
 8504W        W24688  10.024   2.320   0.625  0.2030  0.0082  0.0462
 8505W        W24689   0.813  15.346   2.322 -0.2424  0.2601 -0.1906
 8506W        W24690   7.323   1.620   1.997 -0.1308  0.2096  0.0722
 8507W        W24691  18.169  18.137   0.864 -0.1781  0.2683  0.2998
 8508W        W24692   6.213   8.421  13.262  0.0438  0.1380 -0.2280
 8509W        W24693  18.461   0.421   2.018  0.1132 -0.1687 -0.1915
 8510W        W24694  17.659  16.194  11.969 -0.1115 -0.1933 -0.0169
 8511W        W24695   4.965  17.126  11.325 -0.0039  0.4235 -0.0159
 8512W        W24696   1.741   5.296  10.652  0.1030 -0.3346 -0.0174
 8513W        W24697  14.016   7.492   2.047  0.2596 -0.2641  0.1396
 8514W        W24698  12.101  10.813  13.454  0.0875 -0.2683 -0.1413
 8515W        W24699  13.827   4.302  10.202  0.3460 -0.0696 -0.4471
 8516W        W24700  17.146  12.237  11.261  0.2669  0.1292  0.2243
 8517W        W24701   0.640  14.077   4.884  0.2091  0.2256  0.1078
 8518W        W24702  16.384  14.333  11.595  0.0759  0.2460 -0.0034
 8519W        W24703   6.871   0.570   2.478  0.0146 -0.1083 -0.0609
 8520W        W24704   4.365  11.649   0.942  0.1235 -0.1871  0.0699
 8521W        W24705   7.941  17.552   3.082  0.1881  0.1072  0.4095
 8522W        W24706   2.469   1.753   4.402 -0.1186 -0.3104  0.0927
 8523W        W24707   4.019   0.518  10.736  0.1866  0.1355  0.3278
 8524W        W24708   5.868  14.771   0.786 -0.2053  0.0634 -0.0863
 8525W        W24709   8.263   6.167   1.289  0.2019 -0.0557 -0.2572
 8526W        W24710   0.903   5.303  14.031 -0.1059 -0.0419  0.0792
 8527W        W24711  16.036  10.154  12.607  0.1382 -0.1357  0.0704
 8528W        W24712   5.848  15.844  14.283 -0.1024 -0.1490 -0.1181
 8529W        W24713   6.868  18.098   5.033  0.1394 -0.1740  0.1986
 8530W        W24714   0.058  14.285  14.299  0.0772  0.2413  0.0296
 8531W        W24715  17.440   5.016   0.841  0.1358  0.0778 -0.1071
 8532W        W24716   3.466   8.779  14.513  0.1544  0.0626 -0.0561
 8533W        W24717  16.078   7.242   1.701 -0.0416 -0.3013  0.0065
 8534W        W24718  10.650   2.557   0.181 -0.2013 -0.0310  0.0660
 8535W        W24719   7.335   3.931   4.144 -0.0918 -0.1468  0.0295
 8536W        W24720   8.860   5.546  12.157  0.2283  0.0235  0.0175
 8537W        W24721  11.434   8.502   4.530  0.0939 -0.2279  0.2315
 8538W        W24722  10.251   1.203  14.660  0.1209 -0.2911  0.1033
 8539W        W24723  14.504   3.696   5.151  0.2806  0.1281 -0.0927
 8540W        W24724   6.696  10.281  12.574 -0.0583  0.1760 -0.0780
 8541W        W24725   4.464  17.742  10.804  0.1097  0.2767 -0.1648
 8542W        W24726   3.869   6.375   9.727 -0.0671 -0.1491 -0.1339
 8543W        W24727   0.596  12.359  13.182 -0.1710 -0.0816 -0.1448
 8544W        W24728   0.101  13.765   4.299  0.0464  0.2090  0.0613
 8545W        W24729  15.016  10.226   4.941 -0.0309  0.1739  0.0089
 8546W        W24730   9.989   2.049   1.983 -0.0827 -0.0770  0.2026
 8547W        W24731  13.691   4.864  12.408 -0.2003 -0.4613  0.1310
 8548W        W24732  17.090   6.910  12.204  0.0982  0.1017 -0.4242
 8549W        W24733  17.758  14.323   0.535 -0.1828 -0.0102 -0.1863
 8550W        W24734  11.927  13.491   1.682 -0.2791  0.0497 -0.1108
 8551W        W24735   5.401   8.718  11.823  0.0966  0.1129  0.0915
 8552W        W24736  17.427  17.752   1.444 -0.2055 -0.2850 -0.0064
 8553W        W24737   0.334   0.929  14.196 -0.0711 -0.0047 -0.1653
 8554W        W24738  17.846  17.336   1.050 -0.2233  0.2954 -0.1424
 8555W        W24739   6.233  14.051  10.987  0.1466  0.2626  0.3131
 8556W        W24740   7.016  13.269  11.928 -0.5075 -0.0411  0.1036
 8557W        W24741  10.992   2.607  10.876 -0.1749 -0.1240 -0.2432
 8558W        W24742  14.062  14.260  11.820 -0.0263  0.1223 -0.0318
 8559W        W24743   3.612  13.253  11.319 -0.0346 -0.1402 -0.1278
 8560W        W24744  16.161  19.382  11.845  0.1931  0.0910  0.3133
 8561W        W24745   3.008   6.450   4.317 -0.1648  0.4749  0.0444
 8562W        W24746   6.110  16.812   5.663 -0.3079  0.0761 -0.1390
 8563W        W24747   2.128   5.917  14.843  0.3084  0.0661 -0.1766
 8564W        W24748  10.324   8.930  11.564  0.0709  0.1998  0.3599
 8565W        W24749  10.266   9.112  14.624  0.2053 -0.1409  0.1400
 8566W        W24750  18.694   5.304  10.661  0.0680  0.1561  0.1777
 8567W        W24751  11.805   3.562  14.669 -0.1435  0.1321 -0.3037
 8568W        W24752  17.110  15.546  13.531  0.2571 -0.3292  0.0751
 8569W        W24753  10.609   2.373   4.615 -0.3977  0.3923 -0.3465
 8570W        W24754  10.867   2.774  14.730 -0.2979  0.0452  0.2393
 8571W        W24755   0.499   7.593  13.916  0.0522  0.0983 -0.0248
 8572W        W24756   8.175  10.150  10.495  0.0730 -0.0360  0.0869
 8573W        W24757  16.678   6.776   3.265 -0.1551 -0.2369  0.1744
 8574W        W24758  12.588   5.978   5.582  0.2609  0.0561  0.1693
 8575W        W24759   0.548   0.572   3.731 -0.0198 -0.1655 -0.2211
 8576W        W24760  10.675   4.086   0.285  0.1549  0.2559  0.1729
 8577W        W24761  17.724  11.293  12.959 -0.1711 -0.1066  0.0257
 8578W        W24762   4.290   1.646  11.348  0.1823 -0.1939  0.1159
 8579W        W24763   6.045  15.482  12.907 -0.2644 -0.2316 -0.0949
 8580W        W24764  14.752  14.049  10.743 -0.2541  0.4659  0.0758
 8581W        W24765   2.502   3.278   2.458  0.0658  0.0200 -0.2931
 8582W        W24766   0.562  16.436   2.389 -0.0513  0.3288  0.1801
 8583W        W24767   5.601   7.622   4.018 -0.0388  0.0971 -0.2482
 8584W        W24768   1.525  15.590   1.106  0.2448  0.0812 -0.0004
 8585W        W24769   2.932  15.024  13.794 -0.1113  0.0905 -0.0363
 8586W        W24770  15.155   6.306  11.038 -0.1642  0.1041 -0.2674
 8587W        W24771  12.260  12.731   2.426 -0.1703  0.2538  0.0344
 8588W        W24772  12.489   9.985  13.718 -0.1893  0.2365  0.0771
 8589W        W24773   7.844   3.239   1.946 -0.1837 -0.0084  0.1603
 8590W        W24774   1.593  16.620   4.898  0.0231 -0.1669 -0.0042
 8591W        W24775   6.275   0.214   0.487  0.0590  0.0067  0.1342
 8592W        W24776  19.044  11.288   1.024 -0.1063 -0.0152  0.3891
 8593W        W24777  19.063  15.766   3.339 -0.1083 -0.3512 -0.0640
 8594W        W24778   3.474   4.301   9.827 -0.0782 -0.3058 -0.1569
 8595W        W24779   1.458  10.610  14.276  0.3744  0.0434 -0.0014
 8596W        W24780  16.307   0.445   3.499 -0.4047 -0.0627 -0.1531
 8597W        W24781  10.839   8.416  12.041  0.1173  0.1564 -0.1681
 8598W        W24782  10.877  11.984   4.650 -0.3386 -0.0228  0.2006
 8599W        W24783   9.738   3.925   1.402  0.1226 -0.1840 -0.1421
 8600W        W24784   5.008  11.721  13.175 -0.0392 -0.1068  0.4988
 8601W        W24785   3.047   7.446  11.843  0.0232  0.3958  0.0438
 8602W        W24786   7.826   9.001   5.936  0.0475  0.1482  0.0690
 8603W        W24787  17.112  17.946  12.296 -0.0483 -0.0743  0.2172
 8604W        W24788   3.832   6.756   5.191  0.1653  0.1834  0.2618
 8605W        W24789   9.510  10.693  11.013  0.4566  0.3935  0.2493
 8606W        W24790  11.893  16.750  11.665  0.0132  0.1392  0.0193
 8607W        W24791   1.994  12.318   2.066  0.1757  0.0411 -0.3547
 8608W        W24792  11.311   0.254   3.062 -0.0930  0.1157 -0.1219
 8609W        W24793   4.068  18.081  12.797  0.0601  0.1660  0.1469
 8610W        W24794  16.047   1.572   9.997  0.0053 -0.2453  0.0785
 8611W        W24795  13.784   0.044  12.179 -0.2404  0.0291  0.2788
 8612W        W24796   6.644  16.903   9.748  0.0489  0.4507 -0.1038
 8613W        W24797   6.962  17.216   3.795 -0.0243  0.2122 -0.1265
 8614W        W24798  19.009  12.989  14.230 -0.0439  0.1681  0.0627
 8615W        W24799  14.048   8.155  13.697  0.1341 -0.2786  0.1919
 8616W        W24800  12.161   8.076  11.519  0.1193  0.0488  0.1067
 8617W        W24801   7.860  11.052  12.731 -0.1651 -0.0703  0.0446
 8618W        W24802   5.108   4.963  13.019 -0.0104 -0.3268  0.0376
 8619W        W24803   7.243  18.904  14.606  0.2513  0.2054 -0.3621
 8620W        W24804  14.081   5.656   3.314  0.1217 -0.2147  0.0778
 8621W        W24805   7.094  16.178  14.667 -0.2345 -0.0504  0.3105
 8622W        W24806  16.009   8.902  12.470 -0.3240 -0.1096  0.3103
 8623W        W24807   7.897  13.432  10.459  0.0198  0.5008 -0.2009
 8624W        W24808   4.509   8.354   0.758  0.2439 -0.2111  0.0348
 8625W        W24809  15.637   2.462  11.167 -0.1377 -0.0186 -0.0620
 8626W        W24810  16.515   4.505   1.811  0.2314 -0.2856  0.0875
 8627W        W24811  15.005  11.026   2.808 -0.0716  0.0578 -0.3007
 8628W        W24812   9.407  14.440  12.370 -0.2483 -0.2407 -0.1446
 8629W        W24813   2.463   1.794   5.446 -0.2533  0.1392  0.1035
 8630W        W24814   1.410  17.644  14.965  0.0324 -0.1345  0.0338
 8631W        W24815  17.967  15.685  11.834  0.1551 -0.2104  0.1893
 8632W        W24816  14.755  17.109  12.543  0.1996 -0.1683  0.2620
 8633W        W24817  16.790   1.787   4.360  0.1713 -0.0954  0.2090
 8634W        W24818   6.443   9.699  13.467 -0.0580  0.3113  0.2568
 8635W        W24819   0.794  11.364  10.580 -0.4602 -0.3412  0.0796
 8636W        W24820   9.239   6.747  11.271 -0.1914 -0.0643  0.0151
 8637W        W24821   1.009  18.544  11.834  0.3059  0.1675 -0.2797
 8638W        W24822   2.523  12.437   2.972 -0.2083 -0.0549  0.2989
 8639W        W24823  17.555   5.043  11.815  0.2606 -0.1089 -0.1843
 8640W        W24824  16.191   9.982   1.743  0.5392 -0.1833  0.0058
 8641W        W24825  18.207  10.824  10.410  0.2335  0.4508 -0.0220
 8642W        W24826   7.724  12.643   4.440  0.4969 -0.2159 -0.0838
 8643W        W24827   4.675   9.850  12.044 -0.0961  0.0162  0.0156
 8644W        W24828   8.929  16.396   3.530 -0.4838  0.3041  0.0587
 8645W        W24829  19.177   3.358  13.409  0.1789 -0.1677 -0.2996
 8646W        W24830   3.320   6.124   2.427  0.1373  0.0180 -0.1277
 8647W        W24831   0.905   0.643   4.500  0.1150  0.0482 -0.2694
 8648W        W24832   4.921  17.125   2.091  0.1537 -0.2423  0.1604
 8649W        W24833  17.337   9.940  10.923  0.5333  0.0390  0.1254
 8650W        W24834  17.304   6.343   3.185 -0.2272 -0.0608 -0.2161
 8651W        W24835   6.852   5.099  10.081  0.2967 -0.1002 -0.0243
 8652W        W24836  15.558  12.890   3.633  0.1657 -0.0264  0.0459
 8653W        W24837  18.541  19.337   4.936  0.1374 -0.0475  0.3369
 8654W        W24838  10.655   8.684   3.035 -0.2736 -0.1260 -0.1110
 8655W        W24839  14.904   8.049   4.705 -0.0988 -0.0085  0.0871
 8656W        W24840  16.123   9.382   1.527 -0.1254  0.0800  0.2422
 8657W        W24841  13.856  17.838   3.679  0.3505 -0.0864 -0.0572
 8658W        W24842  13.844  14.709   1.786 -0.2414 -0.1978  0.1960
 8659W        W24843  17.391   0.700   2.452  0.3053 -0.2700  0.4407
 8660W        W24844  19.297  14.401   0.412  0.0486  0.0660 -0.0424
 8661W        W24845  15.607   2.547  13.651  0.4302 -0.1502  0.0529
 8662W        W24846   0.528  15.040   0.971  0.1877 -0.2160 -0.2409
 8663W        W24847  13.869  10.591   3.156 -0.0405 -0.2555 -0.1404
 8664W        W24848  19.214   5.763   4.071  0.0099 -0.0777 -0.3018
 8665W        W24849   6.824  18.281   9.627 -0.0185  0.2914 -0.0406
 8666W        W24850  16.208  13.967   2.258  0.1178  0.1327 -0.3394
 8667W        W24851   6.205   1.361  12.387  0.2047  0.2671 -0.5074
 8668W        W24852   5.000   6.035   2.927 -0.0339 -0.2028  0.1837
 8669W        W24853   6.038   2.821   3.428  0.1125  0.0889 -0.2857
 8670W        W24854  15.437   6.834  11.553 -0.0952  0.1227  0.4067
 8671W        W24855  18.091  15.803   1.766 -0.0857  0.3056 -0.0015
 8672W        W24856   9.901   0.155  12.002  0.1822  0.2135 -0.0560
 8673W        W24857   8.449   7.741  14.920  0.3256 -0.1585 -0.0171
 8674W        W24858   8.702  17.536   1.141 -0.4754 -0.0959 -0.0804
 8675W        W24859   4.949  10.066  11.383 -0.2181  0.2364 -0.0361
 8676W        W24860  16.807  12.282  10.742  0.2732 -0.1603  0.2148
 8677W        W24861   9.623   8.412   5.022 -0.2613 -0.3176  0.4901
 8678W        W24862   2.549   5.888  12.409  0.0856  0.0609  0.4463
 8679W        W24863   0.911   2.979   4.027 -0.0432 -0.0834  0.2343
 8680W        W24864  18.892   5.995   4.552 -0.2080 -0.0699 -0.1633
 8681W        W24865  11.958  18.269  14.713 -0.0495  0.1329  0.1581
 8682W        W24866   0.689  10.059   2.024 -0.1414 -0.0772 -0.0783
 8683W        W24867   8.282  18.900   3.852  0.1984  0.0175  0.0658
 8684W        W24868  16.005  12.673   0.637  0.0138 -0.1652  0.2241
 8685W        W24869   9.920   5.675  10.449  0.2817 -0.3635 -0.3168
 8686W        W24870  14.304  10.414   2.371  0.2128 -0.2028 -0.3466
 8687W        W24871  12.988  10.174   4.685 -0.0871 -0.0181  0.0834
 8688W        W24872   8.918  18.795  11.319 -0.0324  0.0374 -0.1730
 8689W        W24873  19.051   0.352  12.660  0.1191 -0.2982 -0.1469
 8690W        W24874   4.012   8.847  14.028  0.2183  0.1495 -0.0073
 8691W        W24875  14.447  14.896  10.436  0.1878 -0.1910  0.1666
 8692W        W24876   7.676  10.726   1.912  0.0490  0.2567  0.2344
 8693W        W24877  10.701  15.947   0.040  0.1314  0.0626 -0.1104
 8694W        W24878  18.331   3.310  12.326 -0.1359  0.0419  0.3135
 8695W        W24879   6.519   5.888   2.470  0.0932  0.1560 -0.2551
 8696W        W24880   4.920  10.859   3.315  0.0461 -0.2215 -0.0095
 8697W        W24881  14.369  13.917   4.841 -0.1655 -0.0168  0.1487
 8698W        W24882   8.500  13.467  13.295 -0.0712 -0.2305  0.0380
 8699W        W24883  12.559   9.358  14.084 -0.0898 -0.1191 -0.2913
 8700W        W24884  14.029   7.719  12.409 -0.0001 -0.1061 -0.2448
 8701W        W24885  18.081   5.493   2.485 -0.0912 -0.3066  0.0498
 8702W        W24886   4.720  10.592  12.550  0.1038 -0.0390 -0.2587
 8703W        W24887   5.896   1.222   4.020 -0.1408  0.2855 -0.0748
 8704W        W24888  13.369  17.984  14.489  0.2383 -0.3449  0.4572
 8705W        W24889  14.592  15.185   4.697  0.0793  0.3971 -0.2890
 8706W        W24890  15.795  11.611  13.203 -0.0533 -0.2996 -0.0198
 8707W        W24891  17.596   4.125  14.000  0.2969 -0.2354 -0.0390
 8708W        W24892  18.491  16.414   0.227  0.3160 -0.1745 -0.0670
 8709W        W24893  13.640   2.134   4.313 -0.1729  0.2226 -0.0328
 8710W        W24894  18.765   5.835   3.248  0.2177  0.0781  0.0181
 8711W        W24895  16.855   7.122  10.938  0.0667  0.1672  0.2466
 8712W        W24896   0.700  10.768   4.832  0.0529 -0.1763  0.0508
 8713W        W24897  18.781   3.275  11.697  0.1981  0.0368  0.0108
 8714W        W24898  10.540  18.182   4.093  0.1704  0.0986  0.0230
 8715W        W24899   1.410  10.153  10.967  0.0563 -0.0102  0.5238
 8716W        W24900   6.493   4.295   4.371  0.1699 -0.0285  0.2851
 8717W        W24901  13.324  17.589  11.941  0.1987  0.3979 -0.2073
 8718W        W24902  12.011  19.042   4.852  0.0913  0.0940 -0.0558
 8719W        W24903   9.586   6.970  11.564 -0.1228 -0.0979  0.1849
 8720W        W24904   7.259  11.886   3.933 -0.1824 -0.3948  0.0108
 8721W        W24905  14.087   5.136  12.275 -0.0840 -0.2445 -0.1548
 8722W        W24906   4.838  19.247   1.381  0.1358 -0.0912 -0.3749
 8723W        W24907  13.221  10.240  10.366  0.1757  0.0798  0.0934
 8724W        W24908   6.299  14.343   4.497  0.2203 -0.1608  0.2434
 8725W        W24909   9.969  10.916  12.318  0.0996  0.1653  0.0899
 8726W        W24910   1.707  12.135   2.533  0.0583 -0.0411 -0.0150
 8727W        W24911   2.934  18.941  11.053  0.3245  0.0086  0.1164
 8728W        W24912   8.687   2.051   3.390  0.1453  0.1987  0.0503
 8729W        W24913  15.514  16.381  13.639  0.1305  0.2446 -0.2675
 8730W        W24914  11.702   5.056   5.503  0.3749 -0.0147 -0.1830
 8731W        W24915  10.706   8.567   4.069 -0.0335 -0.0747 -0.0749
 8732W        W24916  16.789  10.680  11.470 -0.1784 -0.0786 -0.2753
 8733W        W24917   0.557   1.431  14.156 -0.0808  0.1879  0.3529
 8734W        W24918  11.434  16.985  14.732 -0.2747 -0.0843  0.0227
 8735W        W24919  18.567  15.977   4.196 -0.0609  0.0766 -0.0625
 8736W        W24920   7.348  10.812  11.952  0.4959  0.0353 -0.0838
 8737W        W24921  10.798  13.347   2.458  0.0094 -0.2445  0.1230
 8738W        W24922   1.301   8.468   4.399 -0.1748  0.1161  0.2318
 8739W        W24923  18.291   6.020  12.448  0.0975  0.0119 -0.0875
 8740W        W24924   4.509   0.660  11.442 -0.0219 -0.1640  0.4113
 8741W        W24925  10.145   0.050   1.638 -0.1648 -0.0086 -0.0123
 8742W        W24926   6.308  18.138  12.965  0.0304 -0.0053  0.1492
 8743W        W24927  10.916   3.704   3.911 -0.2688  0.0003 -0.2872
 8744W        W24928  10.542  11.796   5.048  0.3358  0.1978  0.1994
 8745W        W24929  10.300   1.019   4.817 -0.0689 -0.2954 -0.0713
 8746W        W24930   5.204   8.522   2.067 -0.1091 -0.1080  0.1580
 8747W        W24931  10.324  14.480  11.493  0.0178 -0.2007  0.0109
 8748W        W24932  15.669  11.328   4.149  0.1671  0.1108 -0.1298
 8749W        W24933   8.811  13.923   0.797  0.1065 -0.1935  0.6171
 8750W        W24934   2.288  17.720   2.208 -0.0251  0.0055 -0.0872
 8751W        W24935   0.327   3.651  14.220 -0.0436  0.1187 -0.0212
 8752W        W24936  16.898  12.636   1.458  0.3737  0.0337  0.2710
 8753W        W24937   6.404  14.089   2.787  0.4012  0.1994 -0.0809
 8754W        W24938   6.432  17.098   0.105  0.0953 -0.1703 -0.1551
 8755W        W24939   1.364   9.828   3.818  0.0379  0.2329 -0.1478
 8756W        W24940   7.031   4.719   1.883  0.2724 -0.1439  0.1072
 8757W        W24941  15.167   3.525   1.891  0.0050  0.1266  0.1440
 8758W        W24942  11.520  17.757  10.933 -0.3494  0.0009 -0.2840
 8759W        W24943  19.308   0.905   4.646 -0.0513 -0.0409 -0.2201
 8760W        W24944  13.370   9.352  14.770  0.0723  0.2558  0.0975
 8761W        W24945  16.015  15.666  13.354  0.3306 -0.2202  0.0369
 8762W        W24946   3.959   8.142   4.989 -0.4078  0.2359 -0.1678
 8763W        W24947  12.536   6.199   0.485 -0.2360 -0.0382  0.1673
 8764W        W24948   4.219   2.698  11.549 -0.3250  0.2411 -0.5863
 8765W        W24949  16.293   9.954  10.505 -0.0635 -0.1309 -0.1315
 8766W        W24950  17.155   2.340   4.978 -0.0530 -0.2384 -0.0696
 8767W        W24951  10.372   6.941   3.233 -0.0651 -0.0042 -0.1209
 8768W        W24952  10.180  11.083   4.146 -0.0880 -0.0630 -0.1202
 8769W        W24953  15.795   6.495   3.595  0.0737 -0.1082  0.4925
 8770W        W24954  10.991   0.942  10.842 -0.0414 -0.1928 -0.0562
 8771W        W24955   0.314  12.302   1.961  0.6151  0.1689 -0.1261
 8772W        W24956   5.038   7.724  11.076 -0.3195  0.3047 -0.0194
 8773W        W24957  13.886  13.345   2.427 -0.2836 -0.2558 -0.1287
 8774W        W24958  14.045  11.372   2.643 -0.1013  0.0071  0.2051
 8775W        W24959   5.437  10.671  11.453 -0.0101 -0.2424  0.2420
 8776W        W24960   4.330   6.847  12.066 -0.4969 -0.1292  0.2495
 8777W        W24961  16.816  14.245  12.367  0.1165  0.1201 -0.2580
 8778W        W24962  13.143  14.987   3.056  0.0141 -0.0060 -0.1383
 8779W        W24963   1.623   7.189  13.172 -0.2211 -0.0159 -0.4249
 8780W        W24964   5.299  19.355  14.832 -0.0057  0.1792 -0.0378
 8781W        W24965  12.252  14.584   0.560  0.1456  0.1795  0.2191
 8782W        W24966   5.906   3.541   4.067  0.0682  0.2377 -0.2584
 8783W        W24967   5.963   8.803   9.637 -0.0397 -0.0506  0.0850
 8784W        W24968   1.483  13.361  12.116  0.1764  0.0879 -0.3465
 8785W        W24969  14.275  14.177   0.041 -0.1062 -0.0608 -0.5309
 8786W        W24970  16.248   1.252   1.941  0.0246 -0.0226  0.2891
 8787W        W24971   0.859   8.485  12.893  0.1154 -0.1915  0.3268
 8788W        W24972  14.273   6.928  13.803  0.0835 -0.0771  0.0344
 8789W        W24973  15.864   4.627  13.674 -0.2365  0.0480 -0.0187
 8790W        W24974  18.466   3.148   2.951  0.1315 -0.4774  0.1134
 8791W        W24975   3.282   6.198  12.104  0.2522  0.1778  0.2490
 8792W        W24976  16.450   6.530  11.935  0.1865 -0.1561  0.0387
 8793W        W24977   2.677   7.353   1.602  0.0110  0.3131  0.2791
 8794W        W24978  16.362  17.157  11.021  0.1468 -0.0069  0.1857
 8795W        W24979   5.615   3.566   1.087  0.0072  0.1983 -0.2457
 8796W        W24980   0.231  17.592   6.164 -0.1163 -0.1573 -0.0935
 8797W        W24981   3.432   5.893   4.434 -0.0704 -0.0700 -0.0637
 8798W        W24982   1.049  10.672   3.943 -0.2621 -0.1704  0.1652
 8799W        W24983   0.804   0.539  14.883  0.0657  0.4647  0.0735
 8800W        W24984  11.851  12.901  14.301 -0.2795  0.1129  0.0951
 8801W        W24985   6.020   7.778   1.236 -0.0869 -0.2635  0.0287
 8802W        W24986   2.812  13.256  11.851 -0.4542 -0.2866 -0.2105
 8803W        W24987   1.634  16.469   1.625  0.1710 -0.0746  0.1576
 8804W        W24988   7.895   9.561  12.204  0.2621  0.1906 -0.2407
 8805W        W24989  15.729  11.179   4.666  0.3135  0.2353  0.1830
 8806W        W24990   6.367  16.336  13.542 -0.1326 -0.0616  0.0355
 8807W        W24991  11.993  10.313  12.210 -0.0021 -0.2556 -0.1634
 8808W        W24992   7.458   5.154  12.440 -0.2331 -0.4850  0.2067
 8809W        W24993  15.906   7.675  14.140  0.1618  0.1870 -0.1351
 8810W        W24994   8.235  17.928   3.662  0.0468  0.1841 -0.0737
 8811W        W24995   4.677  11.536   2.631  0.4412 -0.0081 -0.3310
 8812W        W24996   4.982   0.842  14.510  0.0405  0.1275 -0.1334
 8813W        W24997  11.667   0.195   4.813  0.2610  0.1413 -0.2912
 8814W        W24998  10.648   1.392  14.332  0.0352 -0.3130  0.0927
 8815W        W24999   1.519   5.549  11.520 -0.1146  0.0978 -0.2096
 8816W        W25000   5.074   2.638  10.489 -0.1376  0.2351 -0.3185
 8817W        W25001  13.894  11.807   3.774 -0.1468  0.2740 -0.1168
 8818W        W25002   8.593   8.490   3.248  0.2234 -0.1801  0.5015
 8819W        W25003   5.337  18.456  14.314 -0.0585 -0.1294  0.1177
 8820W        W25004  11.530   5.162  14.588  0.2063  0.0374 -0.1107
 8821W        W25005   0.960   2.224   1.275 -0.2152 -0.0382  0.0372
 8822W        W25006   1.131   0.202   0.269  0.3594 -0.1930 -0.2715
 8823W        W25007  18.713   1.852  13.987  0.2358  0.0949  0.0575
 8824W        W25008  15.271  15.507   1.600  0.1629  0.3001 -0.0795
 8825W        W25009  11.731  11.648  13.572  0.1359 -0.1430 -0.1089
 8826W        W25010   6.757  16.222  12.718 -0.1085 -0.2452 -0.0503
 8827W        W25011   3.231  14.956   4.193  0.1553 -0.4494  0.3412
 8828W        W25012  17.132  10.265  11.448 -0.0444 -0.1673  0.0531
 8829W        W25013  17.066   4.358  13.307  0.0110 -0.4006  0.0519
 8830W        W25014  12.626  15.392   4.385 -0.1727  0.1143  0.1334
 8831W        W25015   7.889  19.273  11.617 -0.1905  0.0854 -0.1923
 8832W        W25016  18.635  11.725   4.499 -0.0109 -0.2499  0.0277
 8833W        W25017   3.522  12.737  12.377  0.0700  0.0873  0.0051
 8834W        W25018  19.095   7.098   1.959  0.0252  0.1342  0.1748
 8835W        W25019   3.963   8.928  11.250 -0.0658 -0.4162  0.0300
 8836W        W25020  18.835  14.964   1.271 -0.0465 -0.0350 -0.1974
 8837W        W25021   2.398   7.563   3.354 -0.0563 -0.2227  0.4831
 8838W        W25022  17.478   7.790  14.456  0.1088  0.1070  0.3063
 8839W        W25023   2.265  15.037  10.075 -0.1030  0.2460 -0.0711
 8840W        W25024   1.368   9.061  14.000 -0.0656  0.0705  0.6609
 8841W        W25025   9.149   6.257  12.633  0.0427 -0.0433 -0.2108
 8842W        W25026  11.821   3.287   2.663 -0.1506  0.0773 -0.3682
 8843W        W25027   6.844   5.570   9.916 -0.0530  0.0058  0.0151
 8844W        W25028  12.091  13.851   2.962  0.0597  0.1002  0.0069
 8845W        W25029   2.637  16.101  10.521 -0.2581 -0.1374  0.4386
 8846W        W25030   2.088   2.684  12.232 -0.0514  0.0283 -0.1942
 8847W        W25031  12.732   6.969   0.839 -0.1983 -0.2743 -0.1743
 8848W        W25032  18.471  17.854  10.377  0.1444 -0.0938  0.1311
 8849W        W25033   0.976   9.751   0.715 -0.1852 -0.0476  0.2968
 8850W        W25034  15.256   8.404  11.953 -0.2337  0.0608 -0.1807
 8851W        W25035  13.961  12.872  12.929  0.1433  0.0223 -0.2268
 8852W        W25036  10.161   1.976  14.606 -0.0613 -0.1977 -0.0759
 8853W        W25037   2.257   5.850   5.425 -0.0402 -0.0896  0.0033
 8854W        W25038  18.544  16.526  11.096  0.7119  0.0842  0.3308
 8855W        W25039   2.077   0.466   0.409 -0.1945 -0.1172 -0.0019
 8856W        W25040  12.554   7.259  13.388  0.0350 -0.1498 -0.3773
 8857W        W25041   7.166  16.012  12.518  0.0041 -0.1253  0.1951
 8858W        W25042   3.200   8.994  12.844 -0.1077 -0.3217  0.2381
 8859W        W25043   6.513  13.861  14.492  0.4354  0.2200  0.2750
 8860W        W25044  13.679  14.313  13.716 -0.0018  0.0288 -0.0984
 8861W        W25045  14.367  15.937  10.222  0.1186  0.2686  0.0585
 8862W        W25046  11.019   7.205  10.815  0.0800  0.0044 -0.2052
 8863W        W25047  15.727   8.399   0.849 -0.1676  0.0654  0.2174
 8864W        W25048  13.950   0.959  10.076 -0.4052  0.3064 -0.1531
 8865W        W25049   0.343  19.100   4.054  0.0430  0.1756  0.0425
 8866W        W25050  10.560   7.988   1.398 -0.1417 -0.1302  0.0868
 8867W        W25051   5.034  16.171  14.268 -0.1254  0.1239  0.1309
 8868W        W25052  17.874  16.398  11.329 -0.0538  0.1000  0.0671
 8869W        W25053   7.520   1.541   2.410 -0.1994  0.2770 -0.1256
 8870W        W25054  13.682   7.141   3.054  0.1157  0.0672  0.1293
 8871W        W25055   5.258   1.614   0.587 -0.0301 -0.0886  0.1981
 8872W        W25056   1.058  11.686  10.949 -0.1660  0.2131  0.1551
 8873W        W25057   3.386  11.354  14.283  0.0237  0.2039 -0.3319
 8874W        W25058   7.412  18.277  13.901 -0.3512  0.0515  0.1174
 8875W        W25059   3.588   5.381   4.540 -0.0651 -0.1394  0.0139
 8876W        W25060   3.345   1.760  14.801  0.2042 -0.3067 -0.2718
 8877W        W25061   9.874  17.442   4.249  0.3715 -0.0689 -0.1591
 8878W        W25062  14.619   7.955   0.107  0.1637  0.1761  0.0537
 8879W        W25063  16.115  11.459  14.575  0.0831  0.1223 -0.0069
 8880W        W25064   4.311   8.547   2.596  0.0886 -0.2235 -0.1954
 8881W        W25065   2.656   1.155   3.190 -0.1341 -0.1303  0.0850
 8882W        W25066  17.153   5.658   2.816  0.2088 -0.0468 -0.2486
 8883W        W25067   5.332  14.554  14.659  0.1326 -0.2052 -0.4745
 8884W        W25068   7.217  10.248   1.311  0.1116 -0.4084 -0.0209
 8885W        W25069  11.950   3.542  13.246  0.0177  0.0688 -0.4258
 8886W        W25070   8.020   4.088   2.746 -0.2371  0.1607  0.0168
 8887W        W25071  12.510  16.672   2.111 -0.1144  0.2458 -0.2222
 8888W        W25072   0.556  18.730   2.278 -0.0561  0.1101 -0.3290
 8889W        W25073  15.131   1.417  13.700  0.0527  0.0809 -0.2274
 8890W        W25074   5.986   9.686   3.244 -0.3065  0.3757  0.0680
 8891W        W25075  18.833   6.525   4.543  0.1231  0.2318 -0.1488
 8892W        W25076   6.816  17.423   3.326  0.1104 -0.1584  0.0717
 8893W        W25077   0.564   4.345   4.157 -0.0592 -0.1905  0.3000
 8894W        W25078  16.583  10.165   3.109  0.1756 -0.2043  0.1381
 8895W        W25079  14.929  11.291   0.048 -0.2391 -0.0738 -0.2502
 8896W        W25080   7.643  10.697   5.327 -0.0999  0.1970 -0.2920
 8897W        W25081  18.169  17.711   4.968 -0.2035  0.1475 -0.1412
 8898W        W25082   5.465   3.919  10.638  0.0214  0.2248 -0.0788
 8899W        W25083  19.359   8.074  11.394 -0.1681 -0.0309  0.0874
 8900W        W25084   8.370   5.729  11.542 -0.0827 -0.0865 -0.0952
 8901W        W25085  17.990  13.115   4.132  0.1209 -0.0665  0.4217
 8902W        W25086  13.809   6.561  13.836  0.1597 -0.0378  0.1000
 8903W        W25087  11.877   2.715  14.038 -0.2653  0.2330 -0.2790
 8904W        W25088  11.356   3.119   2.436 -0.2431  0.1262 -0.3302
 8905W        W25089   5.912  10.367   1.285 -0.1941  0.3860  0.1603
 8906W        W25090  11.637   7.233   2.719  0.2734 -0.2337 -0.1510
 8907W        W25091   2.812  13.289  10.425 -0.1669  0.0701 -0.0239
 8908W        W25092   4.056  18.890  13.984 -0.5178 -0.0678  0.0208
 8909W        W25093   3.045   4.886  13.090 -0.0455  0.0279 -0.1854
 8910W        W25094   0.980   9.012  14.328  0.0409 -0.4038 -0.0557
 8911W        W25095   0.349  18.221  10.755 -0.1688 -0.2982  0.2556
 8912W        W25096  17.899  11.872   3.560  0.0638  0.3862  0.0993
 8913W        W25097   7.253   8.409  10.456 -0.1655  0.2123 -0.1546
 8914W        W25098   7.809  15.927   0.874  0.0638  0.0923  0.1258
 8915W        W25099   9.636   5.571   9.599 -0.0004 -0.1643 -0.3198
 8916W        W25100  11.697  17.583  13.567 -0.1778  0.2340 -0.3679
 8917W        W25101  11.845   7.988  12.903  0.0848 -0.0704 -0.0525
 8918W        W25102   1.103  16.284  12.161 -0.0352 -0.1783  0.0669
 8919W        W25103  14.528   5.334   2.084  0.0530  0.2132 -0.0790
 8920W        W25104  15.515  12.675   4.076  0.1446  0.0945 -0.2810
 8921W        W25105  13.424   0.715  14.763 -0.1900 -0.3468 -0.2708
 8922W        W25106   8.425   0.640  11.031  0.0877  0.3128 -0.0574
 8923W        W25107   7.199   3.202  14.960  0.3977 -0.1235  0.2930
 8924W        W25108   4.730  13.778   5.187  0.1398  0.1377 -0.0924
 8925W        W25109   8.923   9.032  11.120  0.1687 -0.4765  0.0397
 8926W        W25110   3.328   8.287   1.457  0.0549 -0.0439  0.0637
 8927W        W25111   5.161   2.020  12.423 -0.1086 -0.1988  0.0204
 8928W        W25112   4.048  19.149   3.828 -0.3760 -0.0994 -0.2948
 8929W        W25113  14.973   9.808   3.231  0.1017  0.3285  0.1719
 8930W        W25114  11.611   2.068  12.078 -0.2206  0.3948  0.1549
 8931W        W25115   7.113  12.441  10.931 -0.1713 -0.2843 -0.0446
 8932W        W25116   7.276   4.832  13.408  0.0795  0.0163  0.4325
 8933W        W25117  11.918   3.223  14.292  0.0505  0.0448  0.2762
 8934W        W25118   2.090  18.786   3.351  0.1372  0.1112 -0.0139
 8935W        W25119   9.282   5.068   1.469  0.2323  0.0190 -0.3537
 8936W        W25120   0.642   5.912   3.794 -0.0138 -0.0020  0.0117
 8937W        W25121  13.840   7.947   1.995 -0.1899  0.1119  0.1626
 8938W        W25122   1.885  15.197  13.880 -0.0145 -0.2381 -0.0417
 8939W        W25123   8.010   3.666   3.087 -0.0543  0.3545  0.0918
 8940W        W25124  14.710   6.844  12.404  0.0729 -0.2869 -0.0831
 8941W        W25125   9.864  16.544   0.996 -0.0728 -0.2414 -0.2632
 8942W        W25126  15.030   1.013   4.022 -0.1063 -0.1215  0.1561
 8943W        W25127  11.525   8.567  13.123  0.2319 -0.3804 -0.0408
 8944W        W25128   6.740   5.709   1.885 -0.0611 -0.0131  0.0461
 8945W        W25129   6.153   4.955   0.912 -0.2503 -0.1809 -0.0455
 8946W        W25130  13.244  13.148   2.030  0.2028  0.2409  0.2838
 8947W        W25131  16.429  16.711  14.666  0.2023 -0.1650 -0.4010
 8948W        W25132  11.793   6.890   3.053 -0.1870  0.2652 -0.2618
 8949W        W25133   6.499  13.943   0.943  0.1371  0.0357 -0.1751
 8950W        W25134   4.216   7.689   2.932  0.0119 -0.3054  0.2772
 8951W        W25135  12.431   8.008  12.940  0.2027  0.0929  0.2920
 8952W        W25136  13.735   5.529   3.639 -0.0899  0.1127  0.0450
 8953W        W25137   7.418  11.430   0.198  0.1454 -0.0164  0.1781
 8954W        W25138  16.724   6.655   0.282 -0.0259 -0.3389 -0.3366
 8955W        W25139  11.045   0.380  14.471  0.0140 -0.0186  0.0179
 8956W        W25140  15.011  12.852   3.328  0.0166 -0.2630  0.2299
 8957W        W25141  17.713   4.021   1.580 -0.2814 -0.0224 -0.0774
 8958W        W25142   7.445   6.163   0.759  0.1365  0.0344 -0.2661
 8959W        W25143  12.517   5.724   4.873 -0.0990  0.1720 -0.4228
 8960W        W25144   2.414   5.126  11.887 -0.0172  0.1765  0.3458
 8961W        W25145   3.910  14.513  12.031 -0.2488 -0.2034  0.2798
 8962W        W25146  15.133  18.303  12.947 -0.2012  0.1761 -0.1634
 8963W        W25147  17.382  17.448   5.745 -0.0194 -0.1857 -0.0144
 8964W        W25148  14.358  11.306  14.026 -0.4438 -0.2448  0.3750
 8965W        W25149  18.702   3.131   2.054  0.0698 -0.1747  0.1054
 8966W        W25150   2.409  18.033   3.979 -0.2097 -0.1553  0.0813
 8967W        W25151  19.083   8.483   3.264  0.1924  0.0620  0.1376
 8968W        W25152  14.085  19.069  11.784 -0.1587 -0.0472  0.1676
 8969W        W25153  13.680  16.100   4.202 -0.2467  0.2605 -0.0948
 8970W        W25154   3.900   8.047   4.222 -0.4484  0.3454 -0.0770
 8971W        W25155  13.371  11.758   0.028 -0.1093 -0.2408 -0.1908
 8972W        W25156  17.193   4.600  10.474  0.1501 -0.0932 -0.0556
 8973W        W25157   3.022  14.053   5.001 -0.0010  0.0827 -0.2003
 8974W        W25158  15.663  11.775  13.680  0.0511 -0.0078  0.1194
 8975W        W25159  10.144  13.896  11.472  0.1370 -0.0267 -0.1468
 8976W        W25160  19.065  15.953  13.926  0.2613 -0.3065 -0.1547
 8977W        W25161  12.855   8.673  14.917  0.2585  0.0933  0.2333
 8978W        W25162   4.399   0.239   4.053 -0.0682  0.1716  0.4515
 8979W        W25163   1.680   3.942  13.326  0.0014 -0.0875  0.0298
 8980W        W25164  13.994   4.765   9.838 -0.0026  0.1510  0.0063
 8981W        W25165   7.397  12.220   9.480 -0.3570  0.1304 -0.1003
 8982W        W25166  15.187   8.071  12.370 -0.0128 -0.1078 -0.1224
 8983W        W25167  17.979  18.429   2.752  0.2041 -0.2259  0.1179
 8984W        W25168   8.602   8.221  14.942 -0.1868  0.0470 -0.0591
 8985W        W25169   8.583   6.854   4.362 -0.1991 -0.1297  0.0921
 8986W        W25170  10.534   1.144  13.606  0.0441 -0.1170 -0.2877
 8987W        W25171   1.254   8.074  11.465  0.2339  0.2719 -0.0070
 8988W        W25172  13.755   2.267  10.547 -0.2875 -0.2107 -0.2070
 8989W        W25173  10.316   8.493   3.751  0.0808  0.0810 -0.1029
 8990W        W25174  10.538   6.237   1.238  0.0190  0.0913 -0.2678
 8991W        W25175  14.823  11.725   4.692  0.0673  0.2974 -0.2094
 8992W        W25176   0.113   1.066  11.361  0.0213 -0.1144 -0.0604
 8993W        W25177   2.838  12.878   0.848  0.1394  0.2487  0.0554
 8994W        W25178   3.669   3.103  14.927 -0.3767  0.2418  0.3556
 8995W        W25179  17.746  11.364   1.394 -0.1739 -0.0976 -0.2342
 8996W        W25180   0.920  10.072  10.978  0.2708 -0.1554 -0.2946
 8997W        W25181   4.506  10.036   0.587  0.0258  0.1661  0.1413
 8998W        W25182   1.000  18.918   0.879  0.0462 -0.3694 -0.0323
 8999W        W25183  18.548   9.224   3.558 -0.3621  0.0207  0.0977
 9000W        W25184   8.497  10.153   3.138 -0.3584 -0.1552 -0.1835
 9001W        W25185   0.548  19.286  11.372  0.1649  0.3566 -0.0587
 9002W        W25186  16.650   6.691   1.477  0.0014  0.2248 -0.3379
 9003W        W25187   2.782   1.241   5.477  0.0553 -0.0737  0.3993
 9004W        W25188   6.330  17.415  11.350  0.1713 -0.0543 -0.0472
 9005W        W25189  10.340   3.046  10.158  0.0640 -0.2571  0.3610
 9006W        W25190  11.416   4.125  12.465 -0.1922  0.0125 -0.4219
 9007W        W25191   3.077   9.049  14.508  0.1740 -0.1770  0.1736
 9008W        W25192  13.884   5.902   0.615 -0.2284 -0.0014  0.0331
 9009W        W25193   5.598  17.671  10.833 -0.1884  0.0890  0.1988
 9010W        W25194  15.663  11.850   0.438  0.1013 -0.4212 -0.0916
 9011W        W25195   3.588  18.862   0.432  0.2314  0.2854  0.0483
 9012W        W25196   8.532  11.937  14.715 -0.2646 -0.3531  0.3001
 9013W        W25197   4.615  18.660   3.072  0.1306 -0.0089  0.2513
 9014W        W25198  10.699   3.362  10.908 -0.2393  0.0724 -0.0568
 9015W        W25199  10.144  19.048  10.433  0.0167 -0.0470  0.0109
 9016W        W25200   6.472   4.286  14.619 -0.0037  0.4054  0.4008
 9017W        W25201  12.267   3.552  10.990  0.0923 -0.1921  0.1626
 9018W        W25202  11.283   7.075   2.356  0.0716 -0.2287 -0.4362
 9019W        W25203  11.820   3.634   0.615 -0.0034  0.2138 -0.1503
 9020W        W25204   8.325   2.788   2.232  0.1256  0.1886  0.0215
 9021W        W25205  16.011  11.495  11.798  0.0759  0.0254  0.0644
 9022W        W25206  15.794  15.099  11.854 -0.0823  0.1611  0.0453
 9023W        W25207   9.360  11.311  11.113 -0.1576 -0.1772  0.2342
 9024W        W25208   4.903  17.637   2.281  0.0912 -0.0127 -0.0034
 9025W        W25209   0.019  15.013  13.033  0.2549  0.0527 -0.4012
 9026W        W25210   5.528   6.257  13.091  0.2337  0.0678 -0.0688
 9027W        W25211   0.187   0.805  13.484 -0.0354  0.0023 -0.2267
 9028W        W25212  14.594  17.478   2.015  0.1820 -0.2614 -0.1637
 9029W        W25213   3.060   0.127  13.340  0.0903  0.1483  0.0845
 9030W        W25214  13.913  16.772   5.001 -0.1224  0.1197 -0.1299
 9031W        W25215  16.582   0.704  13.695 -0.0643  0.0213 -0.5653
 9032W        W25216   1.709   4.386  12.591  0.1071 -0.1062  0.2004
 9033W        W25217  16.020   9.744  11.124  0.1882 -0.3978 -0.1864
 9034W        W25218  16.316  13.235  10.704  0.2755  0.2359  0.3580
 9035W        W25219  12.766   1.429   0.250  0.4563 -0.1610 -0.1943
 9036W        W25220   2.296   3.988  14.200  0.2269  0.2905 -0.0371
 9037W        W25221  10.928  14.776  12.233 -0.0046  0.1754  0.0528
 9038W        W25222   5.394   0.699  11.679 -0.1873 -0.1294 -0.0685
 9039W        W25223   1.456  17.397   4.962 -0.1726 -0.0905 -0.4187
 9040W        W25224   1.502   4.583   2.894  0.0285  0.0901  0.0085
 9041W        W25225  17.509  11.346  14.726  0.1775  0.0737 -0.0014
 9042W        W25226  17.513   9.576   0.986  0.1534  0.1145 -0.1573
 9043W        W25227  16.107  13.058  11.548 -0.0481 -0.1014 -0.2169
 9044W        W25228  12.925   5.296  11.731 -0.5502 -0.0379  0.0046
 9045W        W25229  17.610   6.226   4.889 -0.2923  0.0969  0.0181
 9046W        W25230   4.244  15.636  12.027 -0.2443  0.1707  0.2291
 9047W        W25231   5.518   7.211   5.160 -0.1139 -0.0280  0.3404
 9048W        W25232   1.847   0.488   3.933 -0.2410 -0.0648 -0.3296
 9049W        W25233  12.330  14.658   2.829 -0.0547  0.0345  0.2279
 9050W        W25234   9.420  19.102   3.081 -0.0511 -0.0213  0.0184
 9051W        W25235   0.082   1.935   4.308  0.2881  0.0250 -0.0765
 9052W        W25236  13.087  15.034   0.428  0.0187  0.3966 -0.1271
 9053W        W25237   7.760   9.198  10.418  0.0028 -0.0917 -0.0511
 9054W        W25238   4.317  19.314   9.688  0.1393 -0.1388 -0.2330
 9055W        W25239  17.282   6.560  11.907  0.0249 -0.4099 -0.1436
 9056W        W25240   6.319  12.325   3.713  0.1039 -0.0093 -0.0778
 9057W        W25241   6.814   8.995   1.407  0.1130 -0.2655  0.1171
 9058W        W25242  17.419   2.006   2.983  0.0521  0.1325 -0.0629
 9059W        W25243   5.595   6.291   1.595  0.4108 -0.0903  0.0194
 9060W        W25244   3.312   2.051   4.159 -0.1086  0.0702 -0.0260
 9061W        W25245   5.405  14.229   0.132  0.0077 -0.1138 -0.1757
 9062W        W25246   2.604   4.939   0.536  0.0637 -0.1368 -0.2006
 9063W        W25247  10.967  16.150   3.891  0.0368  0.0506  0.1619
 9064W        W25248  18.465  10.339   0.374 -0.0742  0.1223  0.1036
 9065W        W25249   8.404  11.166  11.194  0.2270  0.2675 -0.1905
 9066W        W25250   8.149   9.500   1.040 -0.0629  0.3165 -0.0518
 9067W        W25251   9.204   0.254   2.790 -0.1714 -0.1202  0.0414
 9068W        W25252  14.613  14.117   0.393 -0.0711  0.0346 -0.3069
 9069W        W25253  13.551  10.156   2.902 -0.1239  0.1898  0.1588
 9070W        W25254  14.845   2.320   4.596  0.2035 -0.2469  0.1229
 9071W        W25255   3.799  15.799  11.970 -0.1306  0.0384 -0.0712
 9072W        W25256   5.893  10.405   0.609 -0.1378 -0.1210  0.1985
 9073W        W25257  16.008  15.439  12.822  0.1728 -0.0721  0.1699
 9074W        W25258  14.473  11.053   4.692 -0.2832 -0.0246  0.0894
 9075W        W25259  17.026   0.663   1.573 -0.0373 -0.3540 -0.1464
 9076W        W25260   5.463   2.012   3.789  0.4658  0.3103  0.1254
 9077W        W25261  11.005   2.820  13.089  0.0124  0.1604  0.1677
 9078W        W25262  19.140   2.616  10.883  0.0584  0.1487  0.0558
 9079W        W25263   3.442   3.460  13.977  0.0624  0.1788 -0.1510
 9080W        W25264   4.298   8.644   4.758  0.0035  0.0063  0.0347
 9081W        W25265  16.376  11.073   2.353 -0.2713  0.2127 -0.2279
 9082W        W25266  10.300   3.139  13.943  0.2243 -0.0034 -0.2320
 9083W        W25267  15.860  18.484  10.176 -0.1235  0.0445 -0.0417
 9084W        W25268   3.161   1.909  12.855 -0.2178  0.1741 -0.1556
 9085W        W25269   9.257  16.675   4.195 -0.0294  0.0902  0.0560
 9086W        W25270   5.620   7.862   4.870  0.0997 -0.3156  0.0340
 9087W        W25271   0.651  12.209  14.651 -0.0713  0.0638 -0.0636
 9088W        W25272   6.491  10.280   2.078  0.0950 -0.0743 -0.1043
 9089W        W25273   8.564  15.453  13.637  0.0516  0.0794 -0.3693
 9090W        W25274  13.036  16.754  14.547  0.1306 -0.3179 -0.1003
 9091W        W25275   1.013   0.674   1.771 -0.2463  0.1198 -0.1285
 9092W        W25276  16.077   8.839   3.906 -0.0917 -0.2941 -0.0538
 9093W        W25277  12.105  11.416   1.154 -0.1009 -0.2977  0.3682
 9094W        W25278  15.402  17.872  14.145  0.1611  0.1054  0.1440
 9095W        W25279  16.241   1.755  12.886 -0.0022  0.0817  0.1114
 9096W        W25280  14.028   2.556  10.252 -0.0884 -0.0527 -0.3398
 9097W        W25281  17.944   9.883   4.020  0.0148 -0.0076  0.3182
 9098W        W25282   6.930   4.959   3.878 -0.1213 -0.1063 -0.1141
 9099W        W25283  13.665  18.230   2.320  0.1180  0.1388  0.2195
 9100W        W25284   7.537  12.215   3.686 -0.1368 -0.1340  0.0786
 9101W        W25285   0.173  10.108  14.114  0.0333  0.1344  0.0831
 9102W        W25286   3.795  12.577   1.696  0.1120 -0.1225 -0.0135
 9103W        W25287   3.390  10.105  13.625 -0.1379 -0.0448 -0.0036
 9104W        W25288   5.898   9.914  12.641  0.3334 -0.2034  0.0439
 9105W        W25289   8.737   1.127   1.807  0.1136 -0.1613 -0.1181
 9106W        W25290  18.759  13.034  11.513 -0.0939  0.1180 -0.2537
 9107W        W25291   1.351   4.921   4.703 -0.0297  0.0180 -0.0974
 9108W        W25292   9.576  18.225  12.304  0.3665  0.1123 -0.0333
 9109W        W25293  16.092   9.998   4.592  0.1417 -0.1007 -0.3244
 9110W        W25294  10.586   4.560   4.447 -0.0570 -0.0061 -0.3326
 9111W        W25295   4.284   9.921  11.145  0.0385  0.1517 -0.1509
 9112W        W25296   4.352   7.562  13.307 -0.0346  0.3589 -0.0704
 9113W        W25297   8.198   9.283   0.576  0.0668 -0.2203  0.3114
 9114W        W25298   0.952   5.648  11.548 -0.1541  0.0814 -0.0037
 9115W        W25299   7.896   5.624   4.429  0.0069 -0.1663 -0.0357
 9116W        W25300   8.575   9.269  10.098  0.1673  0.2811  0.0337
 9117W        W25301   0.300  17.381   5.662  0.3814  0.1545 -0.2916
 9118W        W25302   4.423  17.227  11.729 -0.0256  0.1245 -0.0129
 9119W        W25303   6.181   8.956  11.649  0.0276 -0.1338 -0.1694
 9120W        W25304   8.974  10.132  14.861 -0.0336 -0.2714 -0.1283
 9121W        W25305   4.376   0.382   5.132  0.0902  0.2313  0.2048
 9122W        W25306   8.807   1.610  10.998  0.0111  0.0471 -0.2252
 9123W        W25307   8.027   9.392   4.541 -0.0584 -0.0234 -0.0082
 9124W        W25308  11.195  19.009   4.213 -0.2466 -0.1722  0.0772
 9125W        W25309  12.278   2.199   4.562 -0.2549  0.2212  0.2973
 9126W        W25310  15.402   2.085   1.962 -0.0250  0.0336 -0.1371
 9127W        W25311   3.647  15.040   2.669  0.0083 -0.0943  0.1280
 9128W        W25312   7.382   3.698  14.809  0.2800 -0.0049 -0.0555
 9129W        W25313   8.787   9.447  12.809 -0.0833  0.2216 -0.1982
 9130W        W25314  11.673   5.369  13.364  0.4456 -0.1298  0.0458
 9131W        W25315  18.912   2.441  13.048  0.1720 -0.1814 -0.1121
 9132W        W25316  17.656  18.303  13.215  0.0202  0.1278  0.0618
 9133W        W25317   8.437  11.534  10.834  0.1806  0.0866  0.2407
 9134W        W25318  12.949   0.896  11.126 -0.0956  0.1379 -0.0214
 9135W        W25319   2.354  12.551  11.994 -0.3353 -0.0332  0.0046
 9136W        W25320  12.465   4.433  10.499 -0.0816 -0.0170  0.0841
 9137W        W25321   4.257   2.396  12.074 -0.1904 -0.0753  0.1010
 9138W        W25322   9.254  18.619   9.443  0.0389 -0.0100 -0.1229
 9139W        W25323  15.665  18.143  14.692  0.0436  0.0448  0.0232
 9140W        W25324   8.602   5.191   3.900  0.4050 -0.3348 -0.3949
 9141W        W25325   5.865  16.188   0.310 -0.1567  0.2353 -0.2799
 9142W        W25326   7.905   0.547  11.091 -0.2293  0.4108 -0.1538
 9143W        W25327   4.147  10.424   1.641  0.0270 -0.1340  0.2459
 9144W        W25328  18.719   9.435  10.020  0.4216  0.3893  0.4652
 9145W        W25329   3.492  13.319   3.343 -0.2408 -0.1317 -0.0423
 9146W        W25330   7.854  13.923   3.042  0.3535  0.0475 -0.2666
 9147W        W25331   4.226  17.821   4.042  0.0928 -0.1411  0.1054
 9148W        W25332   4.416   9.678   4.538 -0.1218  0.0210  0.0028
 9149W        W25333   4.240   4.500  13.474  0.1682 -0.0179  0.1904
 9150W        W25334   3.091  10.294   0.885 -0.1603  0.1057 -0.4106
 9151W        W25335  14.508  17.495  13.209 -0.2684  0.2699  0.1715
 9152W        W25336   5.346   4.662  13.314 -0.1716 -0.1490 -0.1564
 9153W        W25337  14.558   7.083   4.562 -0.0558  0.0347  0.0432
 9154W        W25338  12.659  12.522   5.206  0.2995  0.0340  0.0246
 9155W        W25339   0.978  13.847  11.863  0.1776 -0.2361  0.1464
 9156W        W25340   7.724   8.072   0.577 -0.3980 -0.1303  0.2204
 9157W        W25341   5.534   0.805  14.507 -0.2313 -0.2951  0.2478
 9158W        W25342   2.684  14.734  14.901  0.2373  0.2803  0.1236
 9159W        W25343  12.964  18.064   2.826 -0.0424  0.2038 -0.2005
 9160W        W25344  18.986   4.271  13.460  0.0840  0.3584 -0.1519
 9161W        W25345  15.192  11.584  11.279  0.1588 -0.2334  0.1207
 9162W        W25346  12.334   6.553  10.820  0.1848 -0.3018 -0.0210
 9163W        W25347   3.637   7.668   2.666 -0.3433 -0.1133 -0.0124
 9164W        W25348  10.519   8.068   0.921  0.3113  0.1987  0.2383
 9165W        W25349   4.861   6.921  12.155  0.0155 -0.0775  0.0139
 9166W        W25350   0.647   0.360   0.479 -0.0080  0.2016  0.3153
 9167W        W25351  15.313  14.566   5.447  0.2611  0.0422  0.1425
 9168W        W25352   5.837  13.329   5.660  0.2524  0.1446 -0.4435
 9169W        W25353   2.770  14.848   3.870 -0.1583 -0.0954  0.0592
 9170W        W25354   0.656   8.205  14.719 -0.0178 -0.0657 -0.3088
 9171W        W25355  15.757   1.052   0.880 -0.1100 -0.0398 -0.3210
 9172W        W25356   6.579  18.308   1.090 -0.2763 -0.1469 -0.1160
 9173W        W25357   2.316  16.790   0.665  0.1450  0.2060 -0.2507
 9174W        W25358   2.932   4.002  12.609 -0.0637 -0.1823 -0.1616
 9175W        W25359  15.207  13.915   4.138 -0.3284 -0.1474  0.3931
 9176W        W25360   2.001  12.405   3.697  0.0877  0.0323 -0.1374
 9177W        W25361   4.772   9.621   1.741 -0.1355 -0.2089 -0.2492
 9178W        W25362  17.397  16.141   2.999  0.2418 -0.2901  0.1017
 9179W        W25363  11.238   1.993  13.444 -0.1575  0.0261 -0.2209
 9180W        W25364   8.711  12.120  12.101  0.1338 -0.0046 -0.1887
 9181W        W25365  14.930  15.297  12.959 -0.3170  0.2808  0.2190
 9182W        W25366   1.005   5.100  10.585  0.0230 -0.0008  0.3704
 9183W        W25367   7.173   2.907  12.299 -0.2367 -0.2719 -0.0306
 9184W        W25368   6.768   1.742  11.474 -0.4623  0.0412 -0.0919
 9185W        W25369   1.950  14.643   2.995 -0.0506 -0.1077  0.0339
 9186W        W25370   8.269   5.226   1.105  0.0379  0.1940 -0.4202
 9187W        W25371  11.309   3.910   1.176 -0.1285 -0.1847  0.0297
 9188W        W25372  11.973   3.985  11.481 -0.0051  0.3080  0.0611
 9189W        W25373  16.505  11.512   3.208 -0.0331  0.1452  0.0017
 9190W        W25374   5.465   2.842  12.478  0.0199 -0.1740  0.1872
 9191W        W25375   4.810   8.419   2.650  0.0926  0.2023 -0.0387
 9192W        W25376  13.922   3.084  11.044  0.1105  0.3480 -0.2456
 9193W        W25377   6.431   8.085  14.740 -0.0041  0.2338 -0.4951
 9194W        W25378  18.915  17.414   5.342  0.0237 -0.2179 -0.0146
 9195W        W25379  16.272   3.040  11.619  0.0581  0.0341 -0.3395
 9196W        W25380   3.187  18.154   2.352 -0.0842 -0.0626  0.1672
 9197W        W25381  11.459  16.779  10.487  0.0061  0.0430 -0.0945
 9198W        W25382   9.025  10.344   1.246  0.2265  0.1846  0.0696
 9199W        W25383  14.249  17.377  14.031  0.0753 -0.0485  0.4454
 9200W        W25384   5.658   9.776  11.704  0.1597 -0.0735  0.2784
 9201W        W25385  14.979  15.840   4.024 -0.2547  0.3412  0.0355
 9202W        W25386   9.542  11.090  14.169 -0.0705 -0.2421 -0.1553
 9203W        W25387   2.228   0.904   0.161  0.1173  0.0518  0.0008
 9204W        W25388   4.272   6.557   4.169  0.1423 -0.1897  0.2999
 9205W        W25389   3.776   6.656   4.147  0.0253  0.2660 -0.1458
 9206W        W25390   8.851   4.952  11.229  0.2563 -0.0575 -0.3206
 9207W        W25391  11.896   0.703  12.672  0.1640  0.1984  0.0861
 9208W        W25392  18.145   4.745   1.914  0.3707  0.1583 -0.0606
 9209W        W25393  10.709   1.883  14.299 -0.1378  0.1860 -0.1124
 9210W        W25394  10.486  13.069   5.239 -0.3176  0.1047 -0.1013
 9211W        W25395  15.714  14.352   3.429  0.0724  0.0670 -0.0338
 9212W        W25396  10.348  15.597   4.101  0.1236 -0.0393 -0.0299
 9213W        W25397   4.442  14.941   2.256  0.1454 -0.1428 -0.0558
 9214W        W25398  15.632   9.094   4.413  0.2154  0.1356 -0.3675
 9215W        W25399   7.383   1.570  13.706 -0.2246 -0.2002 -0.1137
 9216W        W25400   9.400   7.925  10.054  0.1604 -0.1360  0.1812
 9217W        W25401   6.972  18.473   5.318  0.1835  0.1092  0.2588
 9218W        W25402  10.250   4.370  11.563  0.0096 -0.1032 -0.5112
 9219W        W25403  11.809  10.230   0.061  0.2358 -0.0698  0.0704
 9220W        W25404  12.842  15.225  13.447  0.1381  0.2150  0.1376
 9221W        W25405  12.990  15.945  12.570  0.0365 -0.1736 -0.6876
 9222W        W25406   0.373  17.969   2.134  0.3782  0.3880  0.1382
 9223W        W25407   3.956  18.236   4.698 -0.0818  0.1972  0.1662
 9224W        W25408   2.368   4.974   3.042 -0.1955  0.3214  0.0282
 9225W        W25409   1.385   9.892   1.692 -0.0648  0.1832 -0.0599
 9226W        W25410  19.292   8.675   2.594  0.4211 -0.1483  0.0016
 9227W        W25411  14.463  14.304  13.287  0.3314 -0.0588 -0.0633
 9228W        W25412   5.056  14.072  11.436 -0.0124  0.1719 -0.0296
 9229W        W25413   0.303   4.400  13.876 -0.0199 -0.0357 -0.0661
 9230W        W25414  14.728   9.980  10.329  0.2630 -0.1433 -0.1485
 9231W        W25415   8.230   7.117   0.280 -0.1460  0.1816  0.1677
 9232W        W25416   9.629  12.448  14.119  0.2401 -0.2544 -0.1556
 9233W        W25417  16.904   2.199   0.991  0.0454  0.2734  0.0235
 9234W        W25418  10.113  12.839  10.730 -0.2265 -0.0184 -0.1074
 9235W        W25419  16.476  13.761   1.320 -0.4464  0.1448  0.0466
 9236W        W25420  15.830  12.297   4.200  0.0736 -0.2418  0.1286
 9237W        W25421  17.352  12.557   4.506  0.0317 -0.1461  0.0255
 9238W        W25422  18.570  12.575   0.487 -0.0644 -0.0076  0.0240
 9239W        W25423  18.160   1.646   4.234 -0.1489  0.1119 -0.0622
 9240W        W25424   4.177   5.383  12.977 -0.0320 -0.1054 -0.0528
 9241W        W25425   0.836   2.510  14.884  0.1732 -0.3706  0.0679
 9242W        W25426   2.514  13.714   3.635 -0.0566 -0.0904 -0.0717
 9243W        W25427  10.599   5.687   2.397  0.2384 -0.1137  0.2791
 9244W        W25428  14.986   8.777  11.149 -0.1812 -0.2548  0.0231
 9245W        W25429  10.162   1.586  12.845  0.1384  0.1654 -0.2171
 9246W        W25430  13.160   1.233   1.112  0.1840 -0.0866 -0.0852
 9247W        W25431  10.485   0.228   9.992  0.2364  0.1352  0.1937
 9248W        W25432  11.904  11.819  12.249 -0.1984  0.0308  0.2335
 9249W        W25433  18.343  14.046  11.847 -0.0201 -0.1335 -0.0960
 9250W        W25434   8.118   7.569   3.437 -0.1088  0.1975 -0.0398
 9251W        W25435  17.034   7.579  10.181  0.1401  0.2303  0.0782
 9252W        W25436   9.547   2.182   2.637 -0.1860  0.1647 -0.2381
 9253W        W25437  14.222  13.693   5.256  0.0395  0.5059  0.2529
 9254W        W25438  17.965  11.163  12.578 -0.0856  0.1157 -0.4067
 9255W        W25439  15.722   9.251   2.223  0.1234 -0.2552  0.1541
 9256W        W25440   5.228   9.744  11.964 -0.4861 -0.1499 -0.1881
 9257W        W25441   7.712   4.669   3.163  0.3558 -0.0084  0.0587
 9258W        W25442   5.077   8.529   5.628 -0.3182 -0.1888  0.1373
 9259W        W25443   3.745  14.763   5.112  0.1371 -0.2449 -0.3115
 9260W        W25444   3.577  13.843   2.112 -0.3477  0.0132  0.2277
 9261W        W25445   6.697  18.775   0.854  0.0428 -0.0619 -0.1506
 9262W        W25446  14.307   4.678   4.637  0.3100 -0.0696  0.0674
 9263W        W25447   8.181  10.740  13.736 -0.0208  0.0985  0.2609
 9264W        W25448  14.500  12.562   4.183  0.1391  0.1685 -0.0810
 9265W        W25449   3.336   5.747   0.671  0.1491  0.2332 -0.0734
 9266W        W25450   1.108  10.456   4.989  0.2581 -0.0403 -0.0847
 9267W        W25451  11.557  13.893  13.149 -0.0543  0.2256  0.1944
 9268W        W25452  10.966   6.351  12.488 -0.2400 -0.1121  0.3367
 9269W        W25453  18.467   2.719  12.397  0.3930 -0.1211 -0.0148
 9270W        W25454   9.054  10.114   4.725 -0.3503 -0.1170  0.1702
 9271W        W25455  15.131  17.590   4.610  0.2247 -0.2880 -0.0267
 9272W        W25456   2.017   5.414   4.509  0.0603 -0.0620 -0.3133
 9273W        W25457  16.009   7.343  14.616 -0.1590 -0.0778 -0.0447
 9274W        W25458  19.303  17.120  11.671  0.0982 -0.0195 -0.0679
 9275W        W25459   7.839   2.099  10.009 -0.1345 -0.1290  0.0972
 9276W        W25460   5.261   0.796  13.568 -0.0736  0.2477  0.2488
 9277W        W25461  16.692  18.151  13.395  0.0320 -0.0869  0.2306
 9278W        W25462   4.544  16.363  13.605 -0.0315 -0.0676  0.0390
 9279W        W25463  17.933   5.182  13.580  0.0103 -0.0252 -0.0077
 9280W        W25464   9.613  11.510   5.582 -0.4806  0.0803 -0.0794
 9281W        W25465  13.405  15.817  12.324  0.1337 -0.1121  0.1828
 9282W        W25466   3.008   2.916  11.888 -0.2092  0.0232 -0.4616
 9283W        W25467  10.069  16.986   4.390 -0.0183 -0.1408 -0.1012
 9284W        W25468   1.002   1.506  12.920 -0.1072  0.0730  0.0079
 9285W        W25469   6.738   3.758  13.200 -0.2877 -0.1021  0.1870
 9286W        W25470  19.355   5.577   0.375 -0.1548  0.0691 -0.1649
 9287W        W25471   2.034   0.952   3.931  0.0578 -0.1334  0.2690
 9288W        W25472  11.898   6.328   2.190 -0.1802 -0.0859 -0.0191
 9289W        W25473   0.848   9.262   4.503  0.1509 -0.3281 -0.4410
 9290W        W25474   8.179  14.247   2.780 -0.2290 -0.1916 -0.1204
 9291W        W25475   7.479   9.548   1.229 -0.0696  0.1170 -0.0900
 9292W        W25476  14.177  19.354   3.729  0.1183  0.1051 -0.1269
 9293W        W25477   7.243   1.671  11.825  0.1372 -0.2856 -0.1551
 9294W        W25478   9.270  10.705  14.181 -0.1176  0.1349 -0.1458
 9295W        W25479  17.749   3.900   1.046  0.1620 -0.0381 -0.0678
 9296W        W25480  18.360  12.264   1.712  0.0512  0.0149 -0.0467
 9297W        W25481   7.410   9.475   0.191 -0.2914 -0.1141 -0.3931
 9298W        W25482  12.816   4.388   0.908  0.3353  0.1964  0.2234
 9299W        W25483   9.886   3.866  14.036 -0.0007  0.1250  0.1559
 9300W        W25484   8.674   6.812  10.253 -0.0513  0.1308 -0.1879
 9301W        W25485  11.423  19.139   5.541  0.1209 -0.0583  0.1516
 9302W        W25486  13.529   4.641   2.628  0.0852  0.1460  0.0504
 9303W        W25487   6.848   0.288  10.671  0.1647 -0.1590 -0.3197
 9304W        W25488  19.184   9.758  10.982 -0.2291  0.0378  0.0351
 9305W        W25489  10.905   9.426   4.534 -0.0872  0.2194  0.2548
 9306W        W25490  12.297   4.183   2.230  0.2646 -0.0337 -0.2635
 9307W        W25491  13.607  14.699   3.829 -0.1255 -0.1585 -0.0213
 9308W        W25492   7.888   0.396   2.811 -0.0333 -0.2526 -0.1504
 9309W        W25493  11.152  18.273  13.785  0.0804 -0.2875  0.1357
 9310W        W25494   2.407   2.186  11.094  0.0567 -0.2311  0.0370
 9311W        W25495   7.108  10.773   3.605  0.2659 -0.2868  0.1101
 9312W        W25496   2.080  12.787   3.403 -0.0855  0.2270  0.1445
 9313W        W25497  13.172   8.353   5.272 -0.0703 -0.1122 -0.0662
 9314W        W25498  16.590   4.739  10.202  0.1227 -0.4072  0.0207
 9315W        W25499   6.717  11.676  13.425 -0.2364  0.2548  0.3449
 9316W        W25500  11.214   0.587  10.521  0.3156  0.1105  0.1389
 9317W        W25501  12.000   0.169  10.231  0.1190  0.0632  0.0705
 9318W        W25502   1.830   9.696  11.122 -0.0664  0.2324  0.2822
 9319W        W25503  16.144   0.155   4.361 -0.0797 -0.1663  0.2909
 9320W        W25504   7.472  18.272  10.705 -0.2946 -0.0995  0.0944
 9321W        W25505   8.707  17.868  10.062 -0.0885  0.2950  0.1061
 9322W        W25506  14.374   3.403  13.748  0.2542 -0.0162  0.2958
 9323W        W25507   6.846  12.436  12.435  0.0188 -0.0917 -0.0462
 9324W        W25508   9.930  18.409  14.005 -0.2901 -0.2074 -0.1546
 9325W        W25509   7.392  11.700   0.886  0.0331  0.1725  0.1409
 9326W        W25510   9.309   7.001   2.608  0.0046 -0.1048 -0.1096
 9327W        W25511   3.324   1.475   3.326  0.1610  0.1375  0.1913
 9328W        W25512  11.877   0.628   1.314 -0.2075  0.1324  0.1603
 9329W        W25513   3.903  17.510   4.636 -0.0410 -0.3851  0.0641
 9330W        W25514  14.094   6.917  11.700  0.1545  0.2642 -0.1645
 9331W        W25515  12.136   6.304  11.167  0.1110 -0.0245 -0.1563
 9332W        W25516   2.356   0.599   1.688  0.1384 -0.0002  0.1428
 9333W        W25517  16.594   2.429  11.721 -0.0565  0.0299 -0.0036
 9334W        W25518   4.902   4.867  14.027  0.0377  0.4894 -0.0713
 9335W        W25519  18.141   5.598  13.707  0.4250  0.1801 -0.1871
 9336W        W25520  17.416  15.581   1.613  0.2071  0.0272  0.1328
 9337W        W25521   5.897   4.538  13.292 -0.1297 -0.1225  0.0921
 9338W        W25522   2.026   1.546   1.821 -0.1382 -0.0702 -0.1019
 9339W        W25523   6.968   9.229   4.193 -0.0552  0.2157  0.0296
 9340W        W25524   7.485  13.254   0.183 -0.3042  0.2430  0.0563
 9341W        W25525   7.945  14.092   1.498 -0.0573  0.1995  0.2352
 9342W        W25526  11.679  14.850   0.537  0.0709  0.2395  0.2433
 9343W        W25527   9.002   7.783   5.741 -0.1608  0.2208 -0.0505
 9344W        W25528   6.426  12.254  12.613  0.0758 -0.0570 -0.1040
 9345W        W25529  14.989   9.244   3.753 -0.0476  0.1441  0.1593
 9346W        W25530  11.391  14.907  14.750 -0.1343  0.1877 -0.1845
 9347W        W25531   1.868   6.573   3.363  0.0023  0.1502 -0.1660
 9348W        W25532   7.627  16.013  12.830 -0.0668  0.4134 -0.1258
 9349W        W25533   1.348  16.737   9.242 -0.0713  0.0603  0.1630
 9350W        W25534   8.356   7.816   9.793 -0.3124 -0.0575 -0.0686
 9351W        W25535   5.654  16.979  11.659  0.1090 -0.1141 -0.0216
 9352W        W25536   9.608  10.863   5.684 -0.4208 -0.4658 -0.2061
 9353W        W25537  15.536  19.285   3.871 -0.2330 -0.1382 -0.0218
 9354W        W25538   6.628  10.750   2.755  0.0505 -0.3067  0.1324
 9355W        W25539  12.105   7.228   1.626  0.2549 -0.0014 -0.1056
 9356W        W25540   9.971  11.851  14.709 -0.0160 -0.1602 -0.0031
 9357W        W25541   7.643  13.576   4.539 -0.2674  0.3563  0.2716
 9358W        W25542  13.377  13.046  12.325 -0.0427 -0.3890  0.0081
 9359W        W25543   3.722   4.582   1.435  0.1882 -0.1255  0.1763
 9360W        W25544   9.491   5.608  11.206  0.3693 -0.2868  0.2381
 9361W        W25545  13.588  10.964   3.145 -0.2064  0.0926 -0.1175
 9362W        W25546   0.656  13.214  12.651 -0.2585 -0.1341 -0.1882
 9363W        W25547  12.697  14.234   4.073  0.2351 -0.0374 -0.1137
 9364W        W25548   1.698   7.738   4.658 -0.6083  0.2377 -0.0763
 9365W        W25549  18.375   0.030  14.106  0.1443 -0.2335  0.0007
 9366W        W25550   4.943  15.551   5.076 -0.2615  0.1566  0.0621
 9367W        W25551   2.606   5.334   3.347 -0.2700 -0.3227  0.1657
 9368W        W25552   5.791  18.785  10.336 -0.1546 -0.1714  0.0777
 9369W        W25553   6.528  16.798  11.971  0.1042  0.2884  0.0897
 9370W        W25554   5.038   4.472   2.448 -0.0594 -0.0826 -0.1395
 9371W        W25555   4.331   5.662  12.225 -0.0768 -0.2767 -0.0414
 9372W        W25556   1.729   5.247  14.015  0.2197  0.1687  0.1290
 9373W        W25557   0.400   4.402   0.552  0.4304 -0.2757  0.1113
 9374W        W25558  19.343  16.907   3.379  0.1667 -0.2066  0.2995
 9375W        W25559   8.399   4.780   3.612  0.0067 -0.1016 -0.1839
 9376W        W25560  18.733  10.476   2.587 -0.0345 -0.0002  0.0807
 9377W        W25561  15.629  16.323   3.475  0.1820 -0.2092 -0.3551
 9378W        W25562   1.304   7.062   3.609 -0.0026 -0.1430 -0.1338
 9379W        W25563  17.679   2.024  10.266  0.2392 -0.1261  0.3698
 9380W        W25564   9.991  11.409   2.291 -0.0211 -0.2948  0.0291
 9381W        W25565  18.285   6.662   2.065 -0.1109  0.0781  0.0112
 9382W        W25566  11.040  16.773   1.183  0.3918 -0.1494  0.4410
 9383W        W25567   5.348  15.657   2.997 -0.2003 -0.1461  0.1388
 9384W        W25568   2.171   2.544   3.223  0.1262  0.0013  0.0773
 9385W        W25569   1.833   5.864   2.954  0.0463 -0.1354  0.3936
 9386W        W25570  12.728  14.272   5.826 -0.0933  0.1300  0.0031
 9387W        W25571   8.297  14.804  13.355  0.2403 -0.0881 -0.1288
 9388W        W25572  18.306   7.045   0.396  0.0069 -0.0449 -0.0628
 9389W        W25573   8.035   2.427   2.891  0.3841 -0.3661 -0.2659
 9390W        W25574  10.318  15.779   4.750 -0.1253  0.0688  0.3632
 9391W        W25575   8.353   7.335   1.862  0.2656  0.1489 -0.2639
 9392W        W25576   2.968   2.952  10.849 -0.1885  0.2761  0.5707
 9393W        W25577   6.824  11.411  10.587  0.1928  0.1885 -0.0606
 9394W        W25578  12.625   0.044  13.843  0.1333 -0.1473  0.1156
 9395W        W25579  10.025   8.876   3.619  0.2029 -0.0438 -0.1588
 9396W        W25580  18.111  13.602  13.141 -0.4495 -0.2935 -0.0261
 9397W        W25581   5.709  16.057  14.793  0.1007 -0.0943  0.0998
 9398W        W25582   7.107   7.591   0.331  0.3211  0.2435 -0.1507
 9399W        W25583   2.690  11.481   4.297 -0.1081 -0.0538  0.1488
 9400W        W25584   5.871   9.016  12.032  0.1640  0.1827  0.0851
 9401W        W25585  11.758   2.952   0.802  0.1400 -0.3206 -0.0376
 9402W        W25586  15.457  15.398   0.120  0.1989  0.0719  0.0899
 9403W        W25587  13.987   4.276   9.720  0.0609 -0.0257 -0.3483
 9404W        W25588   3.658   4.693   0.637 -0.3297 -0.2675 -0.2690
 9405W        W25589   2.848   5.214   5.581  0.0799  0.0053 -0.0628
 9406W        W25590  13.779  15.972   2.213  0.0501 -0.2208  0.1965
 9407W        W25591   1.429   9.830  11.370 -0.0392 -0.1198  0.0298
 9408W        W25592  10.720  11.306   3.737  0.3302 -0.0189 -0.4229
 9409W        W25593  12.098  11.135  11.761  0.4071 -0.0056  0.2589
 9410W        W25594  14.422  11.424  10.282  0.0435  0.0978 -0.0928
 9411W        W25595   4.627  18.523   9.675  0.0915 -0.0962 -0.2080
 9412W        W25596   3.963  12.099   0.820 -0.0186  0.0789 -0.1655
 9413W        W25597   1.471  13.523   0.775  0.0193  0.2262  0.3169
 9414W        W25598   1.547  14.840   0.349 -0.3190  0.2519  0.0545
 9415W        W25599   5.740  11.735   2.153  0.0557  0.1591 -0.1989
 9416W        W25600   5.059  17.837  14.142  0.0555 -0.4965 -0.2315
 9417W        W25601  14.038   2.385   0.410  0.0226  0.0944 -0.1072
 9418W        W25602   3.210   3.627  13.309  0.1201 -0.1598 -0.1620
 9419W        W25603  17.506   9.544   3.007  0.1519 -0.4215 -0.0545
 9420W        W25604  16.524  12.527  13.579 -0.0211 -0.2227  0.1663
 9421W        W25605   0.466   3.902  13.773  0.2385 -0.0628 -0.0976
 9422W        W25606   1.881   9.629   3.835 -0.1351 -0.0103  0.5724
 9423W        W25607  13.393   6.540  14.254  0.0871 -0.2277  0.0073
 9424W        W25608   7.607  17.061  10.657  0.1088  0.1295  0.4486
 9425W        W25609   7.621   3.140  14.635 -0.1441 -0.0067 -0.4523
 9426W        W25610   2.833   0.283  10.186  0.2052  0.1635 -0.0803
 9427W        W25611   7.385   2.535   3.490 -0.4947 -0.1447  0.0247
 9428W        W25612  13.626  16.886   3.586  0.1138  0.0560  0.0402
 9429W        W25613   7.105  15.877   3.163  0.0946 -0.2268  0.0592
 9430W        W25614  11.864   7.094   4.748 -0.0619 -0.1245  0.0147
 9431W        W25615  13.753  17.497  12.472 -0.0286 -0.1943 -0.0335
 9432W        W25616  17.129  17.669  11.073 -0.0033  0.4446 -0.1230
 9433W        W25617   1.564   9.587  12.826  0.0763 -0.3666 -0.2456
 9434W        W25618  18.698   8.276   0.901 -0.1945 -0.1263 -0.0834
 9435W        W25619   4.926   2.528   1.252  0.5220  0.1536 -0.0262
 9436W        W25620  13.123  10.851   3.433  0.0139 -0.1716 -0.1162
 9437W        W25621  11.892  14.206   0.449 -0.2987  0.1195  0.1659
 9438W        W25622   3.078   8.585  11.809  0.1083  0.0886 -0.2848
 9439W        W25623   1.578   2.152   4.211  0.3819 -0.3161 -0.2100
 9440W        W25624   3.509  19.249   3.928  0.0023 -0.4619 -0.3080
 9441W        W25625  15.491  10.814  11.544 -0.3714  0.0143 -0.0378
 9442W        W25626  11.714   9.737  11.516  0.1054 -0.0285  0.0224
 9443W        W25627  11.996  10.228   1.003 -0.0181  0.2430  0.0052
 9444W        W25628  18.812  15.502  10.575  0.1040 -0.1397 -0.2986
 9445W        W25629  19.054  13.522   4.299  0.5938 -0.2775  0.3697
 9446W        W25630  16.570  10.618  14.618  0.1154 -0.0192  0.2111
 9447W        W25631   1.765   6.876   0.003  0.0973  0.0491  0.0681
 9448W        W25632   2.063   1.166   4.412  0.0901 -0.0329 -0.1983
 9449W        W25633  12.556  18.940   4.321 -0.2451 -0.1185 -0.1394
 9450W        W25634   0.977   8.810   4.628  0.1802 -0.2106  0.0311
 9451W        W25635   8.771   3.773  11.051 -0.3776  0.1738 -0.3232
 9452W        W25636  11.894  17.194  13.884 -0.0320 -0.0647 -0.2257
 9453W        W25637   4.681  14.038  14.385 -0.0415 -0.0525  0.3370
 9454W        W25638  13.759  14.151  14.632  0.2143  0.0404  0.0556
 9455W        W25639  15.437  11.487   0.192  0.0396 -0.0209 -0.2381
 9456W        W25640  17.141  18.863  12.210 -0.0452  0.0556  0.0006
 9457W        W25641   3.940  15.433   3.693  0.0279 -0.1128 -0.2136
 9458W        W25642   0.050   4.646   1.570  0.0619  0.0492 -0.1262
 9459W        W25643  17.275   5.539  14.420  0.0281  0.3687 -0.0368
 9460W        W25644  12.381   7.545   0.054  0.0606  0.2375  0.2096
 9461W        W25645  16.702  14.044   5.292  0.0833 -0.0091  0.3174
 9462W        W25646  10.691   5.707  11.848 -0.2300  0.3176  0.0273
 9463W        W25647   4.589   4.522  12.596 -0.2562 -0.0609 -0.2818
 9464W        W25648  17.062  11.434  13.556 -0.1247 -0.3075  0.0244
 9465W        W25649  10.312  10.993   1.610  0.0128 -0.1298  0.2691
 9466W        W25650  11.937   0.319  13.580  0.0492  0.1035  0.0089
 9467W        W25651   9.006   4.970   0.118  0.4124  0.1692  0.0037
 9468W        W25652   5.285  10.063   4.358 -0.1770  0.0188  0.3090
 9469W        W25653  15.503  14.051   2.927  0.0188  0.0016 -0.0555
 9470W        W25654   4.396   8.271   5.138 -0.0147  0.0381  0.0311
 9471W        W25655   4.287   2.734   9.824  0.0192 -0.0328 -0.1782
 9472W        W25656   9.612   9.099   0.425 -0.1192 -0.4583 -0.0472
 9473W        W25657  15.954   8.671  14.250  0.1224  0.1374  0.0657
 9474W        W25658  16.022  14.283  14.876 -0.1884 -0.2702 -0.0553
 9475W        W25659  10.553  11.304   5.071  0.2314 -0.2255  0.0084
 9476W        W25660   5.659  12.085   0.659 -0.3631  0.1972 -0.1304
 9477W        W25661  16.545   6.258  11.437 -0.1436  0.0097 -0.1232
 9478W        W25662   3.555   8.933  11.649  0.1078 -0.1695 -0.0536
 9479W        W25663   6.482   4.917   0.468  0.4969  0.0259  0.0134
 9480W        W25664  10.678   6.712   0.489 -0.2532 -0.2245  0.1990
 9481W        W25665  11.890   1.504  14.619 -0.4131 -0.2458  0.0711
 9482W        W25666   9.857   7.929  13.039  0.0876 -0.1525 -0.1394
 9483W        W25667   9.754  13.818  14.525  0.3224 -0.4096  0.2579
 9484W        W25668   2.284  12.266   3.346 -0.3172 -0.2433  0.1573
 9485W        W25669  12.996  11.544   4.241 -0.4627  0.1476 -0.2732
 9486W        W25670  17.886  12.606  13.234  0.1556  0.0056 -0.0907
 9487W        W25671   4.415   5.611   3.694  0.2954 -0.0196  0.0930
 9488W        W25672  16.393   4.914   2.987 -0.1423 -0.3605  0.0630
 9489W        W25673   3.554  13.771  13.046 -0.0611 -0.2323 -0.0822
 9490W        W25674   1.483  10.727   2.219  0.0744 -0.2954 -0.1859
 9491W        W25675  11.159   0.891   4.576 -0.2387  0.1028  0.1134
 9492W        W25676   7.540   2.928   1.717 -0.4364 -0.0416  0.4838
 9493W        W25677   4.140   0.048  10.723  0.2941  0.0432 -0.2653
 9494W        W25678  13.172   0.783   4.910 -0.0156 -0.0620  0.0496
 9495W        W25679   3.048   4.164   0.019 -0.2132  0.0731  0.4058
 9496W        W25680   9.168  11.086  14.514 -0.3889 -0.3222 -0.3532
 9497W        W25681   7.626   6.687   3.655 -0.0100  0.1720 -0.1884
 9498W        W25682   4.327   0.391   0.319 -0.2205 -0.0522 -0.0149
 9499W        W25683   1.958   7.740   2.367 -0.4084  0.3031 -0.2436
 9500W        W25684  15.854   7.957   0.332 -0.1974  0.1352  0.3682
 9501W        W25685  19.175   0.434  12.148 -0.3005  0.1306  0.0154
 9502W        W25686  11.363   8.875  10.620 -0.3578  0.3849  0.0030
 9503W        W25687   4.394  18.443   3.482  0.3542 -0.0076 -0.4434
 9504W        W25688  12.680  13.738   3.075  0.1300 -0.0159 -0.3342
 9505W        W25689  13.686  13.338  12.757 -0.0739 -0.1329  0.0000
 9506W        W25690  12.077  11.882   3.628 -0.0128 -0.0109 -0.4824
 9507W        W25691   8.687   4.066  13.141 -0.0459  0.2453  0.0474
 9508W        W25692   7.511  18.853   3.625  0.2130  0.3052 -0.0830
 9509W        W25693   6.409  18.562   2.914 -0.1229  0.1660  0.1288
 9510W        W25694  10.466   8.043  12.020 -0.0916 -0.0223 -0.2967
 9511W        W25695   1.791  15.168   4.706 -0.0158 -0.0111  0.0957
 9512W        W25696  15.499  15.009  11.431 -0.1626 -0.0551  0.1915
 9513W        W25697   0.786  18.355   3.463  0.3305 -0.0819 -0.0081
 9514W        W25698  14.544   4.893   1.308 -0.0974  0.4013  0.0065
 9515W        W25699   3.415   5.874  14.043  0.0653 -0.0100  0.0056
 9516W        W25700  12.128   1.793  11.673 -0.1451 -0.1341  0.1057
 9517W        W25701   5.259  10.086   2.693  0.0049  0.1450 -0.1510
 9518W        W25702   5.767   5.838  12.774  0.0446 -0.0593 -0.0221
 9519W        W25703  15.878   7.038  14.151  0.3638 -0.1293 -0.0500
 9520W        W25704  16.595   7.573  11.311 -0.0493  0.0878  0.1912
 9521W        W25705   6.621  19.293   3.510 -0.1877  0.2000 -0.3575
 9522W        W25706  10.045  13.769   5.061  0.1142 -0.0034 -0.2993
 9523W        W25707  14.373  10.719  14.019 -0.2994 -0.0243  0.1181
 9524W        W25708  18.750   0.702  12.106 -0.1211 -0.0713 -0.0985
 9525W        W25709   5.469   8.161   5.260 -0.0895 -0.2629  0.4201
 9526W        W25710  12.576  16.206   1.841  0.0787 -0.1434 -0.1866
 9527W        W25711   0.479  16.987   2.336 -0.2817  0.0724 -0.2168
 9528W        W25712   3.411  12.374  13.386 -0.0817 -0.0539 -0.2502
 9529W        W25713   6.948   4.433   4.054  0.3249  0.0194  0.0052
 9530W        W25714   8.627   2.123   4.350 -0.1639 -0.0989 -0.0798
 9531W        W25715  12.512  16.257   5.070 -0.1374 -0.2378 -0.0229
 9532W        W25716  15.566   6.125   9.599  0.0434 -0.2422 -0.1201
 9533W        W25717   4.648  10.072   3.842  0.0929  0.2736 -0.0005
 9534W        W25718   7.692   2.210  10.839 -0.2883 -0.2966  0.0523
 9535W        W25719  18.542   7.966  10.581  0.0696  0.2712 -0.1172
 9536W        W25720  11.644   2.129  11.583 -0.2089 -0.0675 -0.0443
 9537W        W25721  13.668  17.847   4.862 -0.1401 -0.0209  0.3864
 9538W        W25722  14.470   7.720  12.717 -0.1103  0.0489 -0.1177
 9539W        W25723  19.091   9.875   5.423 -0.3872  0.2011  0.0604
 9540W        W25724   9.496  14.372  12.853 -0.2090 -0.2221 -0.1298
 9541W        W25725  16.089  17.463   1.194 -0.1624  0.3215 -0.0333
 9542W        W25726   1.777   8.183   3.598 -0.0103  0.1306  0.1626
 9543W        W25727  12.997   9.771  11.254  0.1795  0.6822  0.0112
 9544W        W25728  19.049   6.215   1.038  0.1098 -0.0256  0.0365
 9545W        W25729   3.835   6.290  11.185 -0.0418 -0.4533  0.0742
 9546W        W25730   1.973  12.785  10.602  0.0480 -0.2342  0.2737
 9547W        W25731  15.162   2.160  11.738 -0.0109 -0.2746 -0.1669
 9548W        W25732  18.848   9.192   0.022  0.2648  0.1291 -0.5553
 9549W        W25733  14.408   9.325   3.655 -0.2227 -0.1249  0.2864
 9550W        W25734   5.939   3.781  11.950  0.0080  0.2769 -0.1012
 9551W        W25735  17.543   5.553  10.937 -0.2992  0.0243 -0.1120
 9552W        W25736  15.867   7.474  13.448 -0.1028 -0.5383  0.1475
 9553W        W25737   7.202   0.007  11.574 -0.0061 -0.1386 -0.2040
 9554W        W25738   9.474   8.929  12.100 -0.2243 -0.1873  0.4614
 9555W        W25739  10.892   4.165   4.648  0.0987  0.1355 -0.1557
 9556W        W25740   8.598   0.036  13.248 -0.1097  0.0640  0.3012
 9557W        W25741  17.136  19.113   1.972 -0.1669 -0.2210 -0.2275
 9558W        W25742  12.624   8.769   2.338  0.0313  0.2164 -0.1563
 9559W        W25743  18.956  14.519   0.773  0.0131 -0.2381  0.2326
 9560W        W25744   2.472  14.837  12.947 -0.2002 -0.0365  0.0785
 9561W        W25745  17.199   0.234  10.258 -0.2940  0.0922  0.0190
 9562W        W25746   9.531   7.991  12.658 -0.1415 -0.1272 -0.1030
 9563W        W25747  13.603   6.816   1.297 -0.1693  0.0392 -0.0360
 9564W        W25748  14.928  15.542   3.631 -0.3220  0.4270  0.4124
 9565W        W25749   3.881  13.229   0.875 -0.2329  0.0618 -0.0261
 9566W        W25750  16.958  13.140   4.459  0.4108 -0.3198 -0.0418
 9567W        W25751  11.372   0.144   2.058 -0.0787  0.1305 -0.2266
 9568W        W25752   2.107   7.707  11.313 -0.1442  0.1353  0.1535
 9569W        W25753   7.421   3.009  11.864 -0.1938  0.2073 -0.0956
 9570W        W25754  15.085   4.914  11.133  0.1020 -0.1120  0.0292
 9571W        W25755   9.538  14.588   0.544  0.1037 -0.0719 -0.1447
 9572W        W25756   4.635   6.791   5.000  0.3262 -0.1015  0.0900
 9573W        W25757   7.188   6.928   3.652 -0.3337 -0.1950 -0.1194
 9574W        W25758   9.165   8.309   2.475  0.2800  0.1114 -0.0253
 9575W        W25759   3.039   9.896  14.035 -0.4296 -0.0807  0.1628
 9576W        W25760  13.193  16.107   4.472 -0.1616  0.1122  0.3441
 9577W        W25761  15.737   1.626   3.561 -0.2393 -0.1560  0.3818
 9578W        W25762   0.037  17.451   4.751  0.2072  0.2747  0.1049
 9579W        W25763  10.007   7.027  11.888 -0.2250 -0.2129 -0.2410
 9580W        W25764  14.846   7.750   1.827 -0.0094  0.0983 -0.2027
 9581W        W25765  15.786  17.949  13.373 -0.1294  0.2533  0.0714
 9582W        W25766  17.766  10.299  12.713  0.0405  0.0121 -0.0774
 9583W        W25767  11.540   5.623  11.528 -0.0628 -0.0335 -0.4435
 9584W        W25768  15.399  13.611  11.094  0.0788 -0.1047  0.2147
 9585W        W25769   9.687   9.279   1.222  0.2018 -0.0829  0.1509
 9586W        W25770   9.078  15.322  11.835  0.0598 -0.0616 -0.4642
 9587W        W25771  11.578   2.650   2.429  0.0079 -0.1163 -0.0808
 9588W        W25772   7.309  17.064   0.872  0.0864  0.1013 -0.2999
 9589W        W25773   5.012  16.267  13.426  0.0888 -0.1237  0.0540
 9590W        W25774   4.838  19.287  11.796 -0.3683  0.3177  0.1065
 9591W        W25775  19.161   9.599   3.075 -0.0824  0.1158  0.0824
 9592W        W25776   4.826   1.403  11.792  0.0729  0.0363 -0.2811
 9593W        W25777   9.377  14.978   4.155 -0.2391  0.2360 -0.0715
 9594W        W25778   0.709   9.629  11.785  0.1050 -0.3282  0.1317
 9595W        W25779   8.116  16.896  13.393 -0.3173 -0.0957 -0.3536
 9596W        W25780   2.218  14.857   4.226  0.1899 -0.0122  0.1195
 9597W        W25781   1.145   8.096   5.359  0.0169  0.2872  0.0015
 9598W        W25782   6.084  13.482   1.513 -0.0020 -0.5076  0.0832
 9599W        W25783   0.866  10.582  11.298  0.1461  0.2615 -0.4137
 9600W        W25784  19.282   4.994   2.817 -0.1023 -0.0182 -0.1370
 9601W        W25785  10.613  19.238  10.387  0.0771 -0.1231  0.0022
 9602W        W25786  10.099   7.406  10.853 -0.0057  0.0653  0.4194
 9603W        W25787  15.652   1.490  12.233 -0.0044 -0.2029  0.2160
 9604W        W25788  10.910  15.200   9.724  0.1469  0.0269 -0.0044
 9605W        W25789  16.016   4.746  10.100 -0.0446 -0.0093  0.0857
 9606W        W25790  14.962  16.924   3.486 -0.0806  0.2229  0.4183
 9607W        W25791  11.684   2.583   0.457  0.0955  0.0234  0.1405
 9608W        W25792  13.832  12.635   2.356  0.3411 -0.5763 -0.1201
 9609W        W25793   5.217  15.547  10.851  0.0811  0.0654 -0.3535
 9610W        W25794   4.598   5.091   4.658 -0.0414 -0.1858  0.0880
 9611W        W25795  13.575   3.482   3.687  0.0392 -0.2449  0.0408
 9612W        W25796  10.476   7.892  12.549  0.1206  0.1011  0.0732
 9613W        W25797   2.097  10.270  11.865 -0.2631  0.0153  0.0371
 9614W        W25798   2.446  17.004   2.704  0.2225  0.1279  0.3540
 9615W        W25799  13.309  16.845  14.124  0.0708 -0.1489 -0.2390
 9616W        W25800  16.416  12.391  11.982  0.0424  0.4667  0.0837
 9617W        W25801   0.173   2.740  10.675  0.0043  0.0144 -0.0238
 9618W        W25802   0.509   2.918   3.209  0.1825  0.1662  0.1077
 9619W        W25803   5.477   3.525   2.363 -0.1284  0.1099  0.3703
 9620W        W25804  13.368  19.294  11.861  0.1817 -0.0670  0.2213
 9621W        W25805   6.352  16.643   4.215 -0.2295 -0.0026  0.0978
 9622W        W25806   6.963  14.653  11.335  0.2473  0.3721 -0.0910
 9623W        W25807  14.600   9.592  10.780 -0.0913 -0.0388  0.4007
 9624W        W25808  19.329  18.507  11.722  0.0563  0.2760  0.1764
 9625W        W25809  16.585  12.762  11.438 -0.0966 -0.2657  0.3255
 9626W        W25810   7.136  16.380   1.797  0.1470  0.0758 -0.2206
 9627W        W25811  10.561   7.571  12.202  0.2530  0.0381  0.2820
 9628W        W25812   0.832  18.495   5.994  0.1207 -0.1749 -0.1791
 9629W        W25813  14.810  14.452   2.456 -0.0681  0.0416  0.0689
 9630W        W25814  15.099   7.278  14.552  0.3346  0.0065 -0.1989
 9631W        W25815  12.586   7.021   4.631 -0.0791  0.2914  0.0838
 9632W        W25816  11.555  17.130   2.282  0.1965  0.1857 -0.3129
 9633W        W25817   5.942   3.099  10.471  0.2275 -0.0966 -0.1029
 9634W        W25818  12.926  18.216  14.625  0.3228  0.0536  0.1881
 9635W        W25819   0.022   8.132   0.875  0.1858 -0.0098  0.1416
 9636W        W25820  15.105  17.053   4.982  0.2535  0.0495  0.1941
 9637W        W25821   0.860   2.698   1.552 -0.0539  0.0672  0.0099
 9638W        W25822   6.809  10.601   1.769  0.0195  0.3119 -0.0150
 9639W        W25823  13.082  19.192  11.020 -0.0680 -0.0313  0.2443
 9640W        W25824  17.943  12.952   0.600  0.0899  0.0559  0.0549
 9641W        W25825  10.644   6.285  14.836 -0.0853  0.0077  0.2437
 9642W        W25826  10.589   3.433   1.338 -0.1642 -0.2398  0.0362
 9643W        W25827  10.472   3.962  11.654  0.0805  0.1248  0.0304
 9644W        W25828   1.157   3.675   2.717 -0.1047  0.1874 -0.1397
 9645W        W25829   4.342   7.089  10.838 -0.1284  0.0856 -0.1937
 9646W        W25830   9.536   8.619   0.586  0.0590 -0.1064 -0.1421
 9647W        W25831   2.745   9.613   2.291  0.0240  0.2003  0.1535
 9648W        W25832   1.285   2.281  10.853 -0.1894  0.1733  0.2525
 9649W        W25833   1.461  15.458  11.577 -0.0512  0.0703  0.2915
 9650W        W25834   3.890  12.210  10.445 -0.2128 -0.1862 -0.0323
 9651W        W25835  13.642  10.034  12.372  0.2187  0.1016 -0.1928
 9652W        W25836  17.164   6.830   3.463  0.3554  0.0452  0.0062
 9653W        W25837   3.839   3.633   0.886 -0.0204  0.3406  0.3721
 9654W        W25838   8.750  12.816   3.514 -0.3509 -0.0565  0.0486
 9655W        W25839  14.903   6.169   3.205 -0.0686 -0.0499  0.0369
 9656W        W25840  16.633  10.419   1.239  0.0335  0.1742  0.0062
 9657W        W25841   6.712  10.871  13.175 -0.0353 -0.0092  0.1736
 9658W        W25842   0.670   3.833  12.782 -0.3955  0.0027  0.2925
 9659W        W25843   7.125  15.734  10.444  0.2191 -0.0409 -0.0322
 9660W        W25844   2.413  13.133  14.002 -0.3150  0.0685 -0.5501
 9661W        W25845   6.954   7.370   2.672  0.0864  0.3296 -0.2366
 9662W        W25846   7.217   0.849  13.953 -0.1015  0.1331 -0.0179
 9663W        W25847   1.446   8.837  13.549 -0.1895  0.4624 -0.1260
 9664W        W25848  12.401  14.294  13.620  0.0313 -0.3654  0.2334
 9665W        W25849   7.942  13.773  11.984 -0.1807 -0.2368 -0.0389
 9666W        W25850  19.150   3.089   4.369  0.1361  0.1838  0.0909
 9667W        W25851  13.790   4.860   4.634  0.1124  0.0119  0.1479
 9668W        W25852   3.741  16.344  13.070  0.1957 -0.2355  0.2018
 9669W        W25853   4.442  11.964  12.569  0.1027  0.2147  0.0334
 9670W        W25854  14.524  17.431  10.735 -0.0908  0.1427 -0.1466
 9671W        W25855   7.619   5.700   0.966  0.0052  0.1077  0.0817
 9672W        W25856  12.957   6.039  11.164  0.3987 -0.1371  0.1134
 9673W        W25857  14.572  13.712  14.326 -0.0052  0.7523 -0.0800
 9674W        W25858  10.241   8.772  14.242  0.4234 -0.3617  0.1382
 9675W        W25859  17.909   8.152   4.309 -0.0081  0.1782  0.0012
 9676W        W25860   2.769   5.387  13.403  0.0063  0.0814 -0.0357
 9677W        W25861  18.064  17.994  13.272  0.4862  0.3017  0.0435
 9678W        W25862   9.105   9.605   0.653 -0.2132  0.1180  0.1164
 9679W        W25863   1.940   9.902  13.827 -0.0443  0.0128  0.0691
 9680W        W25864  12.938   3.373   3.263 -0.1013 -0.4144 -0.1813
 9681W        W25865   6.704   1.714   3.519 -0.0469 -0.0871 -0.1752
 9682W        W25866  12.649  15.577  14.769 -0.3503  0.0292  0.2456
 9683W        W25867  16.890  11.451  10.750 -0.0955 -0.2997 -0.6139
 9684W        W25868   3.463   6.369   3.341  0.3716 -0.1352 -0.1839
 9685W        W25869   3.925   2.499   5.137  0.2630  0.1361  0.5870
 9686W        W25870  12.558  14.208   0.525 -0.3186  0.0910  0.0071
 9687W        W25871  18.144  11.192   0.561  0.0086  0.2357  0.1308
 9688W        W25872  14.457  16.922  14.010 -0.0357 -0.0312 -0.1826
 9689W        W25873   0.396  17.581  14.671 -0.0107 -0.1796 -0.0547
 9690W        W25874   8.073   0.290   0.818 -0.1331 -0.1475 -0.2258
 9691W        W25875   2.436  16.654   5.095 -0.2943 -0.0915  0.1178
 9692W        W25876  16.197  14.600  13.163 -0.0167 -0.5146 -0.4063
 9693W        W25877   7.616  12.117   5.775 -0.0115  0.1803  0.1157
 9694W        W25878  17.699  16.080  14.637 -0.0924  0.1513 -0.1088
 9695W        W25879   9.980  13.379  11.411 -0.0511 -0.1572 -0.0109
 9696W        W25880  13.680   0.317   1.398  0.0722  0.2610 -0.0530
 9697W        W25881  11.185  10.443   2.088 -0.1602  0.2184  0.0588
 9698W        W25882   9.322   6.436   0.098 -0.0383  0.0364  0.2709
 9699W        W25883   6.496  13.706  12.134  0.1837 -0.0044 -0.2094
 9700W        W25884  16.000  15.425   3.533  0.1375 -0.1677  0.0525
 9701W        W25885   1.342   0.736  12.017  0.1207  0.0463  0.0654
 9702W        W25886   0.876   1.945  12.672  0.2783 -0.0642 -0.0747
 9703W        W25887   1.701   7.302  10.806 -0.1856 -0.3051  0.3230
 9704W        W25888   3.615   8.702   5.471  0.1511 -0.0895  0.0439
 9705W        W25889  11.464   2.785   4.100  0.1454 -0.2675 -0.0842
 9706W        W25890  13.228   7.235   3.274  0.0915  0.0109 -0.1525
 9707W        W25891   2.981   7.160  11.385 -0.0206  0.3170  0.1538
 9708W        W25892   3.343  17.059  11.385 -0.1164  0.3204 -0.0685
 9709W        W25893  15.482   3.832  11.590 -0.1517 -0.2400 -0.0093
 9710W        W25894   3.694   9.757  12.668  0.0127 -0.2060 -0.0367
 9711W        W25895   0.598  12.575  11.338  0.1759  0.0047  0.0098
 9712W        W25896   3.091   1.180  13.605  0.3195 -0.0320 -0.2119
 9713W        W25897  11.250  15.794   4.125  0.3621  0.0485  0.0424
 9714W        W25898   5.550  15.650  12.974  0.3722 -0.1733  0.0616
 9715W        W25899  19.176  16.781   3.948  0.0072 -0.1198 -0.2854
 9716W        W25900  17.812   0.905  13.850  0.0969 -0.2279  0.1562
 9717W        W25901   4.551   2.297   0.414  0.1834 -0.0576 -0.1670
 9718W        W25902   2.851  15.632   1.129 -0.3554  0.1570 -0.0888
 9719W        W25903  14.379  13.437   4.374 -0.2954 -0.3592 -0.0272
 9720W        W25904   1.501   2.373  11.399 -0.1397  0.1073 -0.0891
 9721W        W25905  19.136   3.248   0.922  0.2250 -0.3823 -0.1222
 9722W        W25906   9.480   6.278   5.279 -0.3798 -0.1310 -0.1996
 9723W        W25907  17.969   5.098  12.072 -0.2378  0.0798  0.0545
 9724W        W25908  15.923   4.830   3.151 -0.1179 -0.0979 -0.1502
 9725W        W25909  14.775  10.853   1.212  0.0148  0.2132 -0.1760
 9726W        W25910  14.212  17.005  12.747 -0.3920 -0.3602  0.1271
 9727W        W25911  15.554  17.930   5.341 -0.0912 -0.2723 -0.1112
 9728W        W25912  18.495   0.694   4.412  0.0901  0.0433 -0.1160
 9729W        W25913  10.761  18.409  11.160 -0.0153 -0.2208 -0.3581
 9730W        W25914  13.890   8.533  11.335 -0.2727 -0.0259 -0.0789
 9731W        W25915   7.878  13.080   4.657 -0.1202  0.0194 -0.0423
 9732W        W25916   8.874   6.103  10.278 -0.1594  0.1542 -0.0230
 9733W        W25917   4.827   4.822   0.998 -0.3160 -0.1133  0.1230
 9734W        W25918   7.202   1.594   9.662  0.2743  0.1901 -0.1860
 9735W        W25919   5.184  12.682   3.450  0.2946  0.2749 -0.2449
 9736W        W25920  17.018   5.751  12.147 -0.2163  0.3421  0.1319
 9737W        W25921   7.768  17.951  14.178 -0.2117  0.2925 -0.0990
 9738W        W25922  17.723   9.563   3.530  0.2086  0.2008  0.0379
 9739W        W25923   2.863   3.700   3.886 -0.0404  0.1909 -0.0019
 9740W        W25924   9.872   9.544   2.076  0.1190 -0.0979  0.1826
 9741W        W25925  14.850   2.127  13.443 -0.3158  0.3867  0.0165
 9742W        W25926   6.680  12.134  13.959 -0.0950  0.0366  0.4100
 9743W        W25927   7.312   4.166   9.579 -0.0146  0.0139 -0.0389
 9744W        W25928  10.894   2.975   1.332  0.1333  0.0895 -0.0614
 9745W        W25929   0.547  15.985   2.920  0.1008  0.1492 -0.0386
 9746W        W25930  16.092   3.809  14.089 -0.2877 -0.4613  0.0367
 9747W        W25931   8.493  15.996   1.298  0.1352  0.1207  0.2288
 9748W        W25932   4.077  12.165   2.717  0.0805 -0.1628 -0.1401
 9749W        W25933  18.914   3.501  14.104  0.1280 -0.3586 -0.4006
 9750W        W25934   1.631  18.574   4.815 -0.1175  0.1661 -0.1883
 9751W        W25935  13.082   3.979   4.014 -0.0709 -0.0335  0.1771
 9752W        W25936  12.454  10.322   3.769  0.6562  0.1475  0.1828
 9753W        W25937   3.901   9.085  14.621  0.1195 -0.0568 -0.2055
 9754W        W25938   3.680   2.522   0.555  0.0388  0.0891 -0.2068
 9755W        W25939   6.857   6.558  12.411  0.0148 -0.1126 -0.3490
 9756W        W25940   6.213  13.683   0.106  0.0027  0.2271  0.2808
 9757W        W25941  13.691   0.969   1.760  0.1142 -0.2497 -0.3122
 9758W        W25942   6.807  11.526  14.571  0.0156  0.1630  0.2933
 9759W        W25943  11.092   6.022  13.568  0.4103 -0.2187  0.1969
 9760W        W25944   9.912  12.239   0.562 -0.3350 -0.2208  0.1381
 9761W        W25945  10.030  11.353   5.404  0.1064  0.1021  0.0920
 9762W        W25946   1.103   7.679   1.503  0.4758 -0.2507 -0.3396
 9763W        W25947   9.790  16.922  13.951 -0.1019  0.2921  0.1493
 9764W        W25948  15.481   2.648  14.957 -0.3604 -0.0868  0.0694
 9765W        W25949   5.460   3.910   3.352 -0.2298 -0.0949 -0.1169
 9766W        W25950   8.950   3.492  13.697  0.0077  0.1975  0.0727
 9767W        W25951   4.728   8.277   4.114 -0.0361  0.2356 -0.0206
 9768W        W25952  13.391   4.033  10.696  0.1709 -0.1906 -0.1120
 9769W        W25953   2.977  18.256  13.779  0.0442  0.4452  0.4963
 9770W        W25954  13.019  13.757   3.942 -0.5389  0.0847  0.3969
 9771W        W25955  13.944   2.281  13.918  0.0264  0.0561 -0.0397
 9772W        W25956  14.858  17.556   5.608 -0.0990  0.1593  0.2724
 9773W        W25957  16.753  17.481   2.789 -0.1576 -0.1496 -0.0704
 9774W        W25958  12.273   9.093   3.386 -0.1948  0.0698 -0.1425
 9775W        W25959   0.979  15.178  14.267 -0.0011  0.1310 -0.0732
 9776W        W25960  13.318  12.766   0.605 -0.0551 -0.1783  0.0876
 9777W        W25961   1.500  19.167  10.897 -0.0906  0.1255 -0.0317
 9778W        W25962   1.677  16.924   3.520 -0.0449  0.1860 -0.1328
 9779W        W25963   3.715  17.547   3.391 -0.4372  0.4869  0.2599
 9780W        W25964  18.840  13.465   1.558  0.0602  0.1915 -0.1395
 9781W        W25965  16.835   3.193   5.404 -0.2073 -0.1197  0.0289
 9782W        W25966  11.957  17.773  14.612 -0.0402  0.2128  0.3927
 9783W        W25967   9.738   3.833   4.576  0.1323 -0.2188  0.0541
 9784W        W25968   5.612  11.182   1.196  0.0221 -0.2663 -0.0047
 9785W        W25969  18.023   4.404   1.570 -0.0216 -0.0296 -0.1219
 9786W        W25970   5.209  11.823   3.488  0.1444  0.1922  0.0915
 9787W        W25971   8.051  11.756   0.621 -0.1844  0.4531 -0.0909
 9788W        W25972  17.172  18.475   3.766 -0.0366  0.3173 -0.0158
 9789W        W25973   0.098  15.106   3.434  0.1674 -0.0077  0.1894
 9790W        W25974  19.224   1.084   0.135 -0.0295  0.0689  0.0389
 9791W        W25975  18.207  18.367  10.711  0.0670 -0.1368 -0.1194
 9792W        W25976  14.604   4.946  11.407 -0.0285  0.0686 -0.3902
 9793W        W25977   5.876   7.331  11.168  0.2258  0.1725  0.0304
 9794W        W25978   4.744   8.576   9.387 -0.0492 -0.1704 -0.1989
 9795W        W25979   3.525   3.371  13.025  0.1012  0.0566  0.0093
 9796W        W25980   0.174   4.124  10.844  0.0294  0.2889 -0.3907
 9797W        W25981  10.087  18.346   2.559  0.0880  0.2006  0.4235
 9798W        W25982  15.762   3.857   2.299 -0.3279 -0.0571  0.2000
 9799W        W25983  16.621  17.767  12.278  0.1204 -0.2858  0.0565
 9800W        W25984  17.312  11.100  13.820  0.3044 -0.1722  0.3500
 9801W        W25985   3.792  11.775   3.211  0.1740 -0.5414 -0.0342
 9802W        W25986   7.339  18.071   5.153  0.1385  0.2588 -0.2178
 9803W        W25987  18.864  11.722  12.697  0.1056  0.0530  0.3801
 9804W        W25988   7.275  16.604  12.412  0.0818  0.2140 -0.2176
 9805W        W25989  14.548  17.056   4.483 -0.1032 -0.1487 -0.1616
 9806W        W25990  10.304  10.060   2.842  0.2097  0.0396  0.0545
 9807W        W25991   4.016  19.145   2.631  0.2333 -0.2789  0.2173
 9808W        W25992  14.573   0.510   1.770  0.1255  0.1781 -0.0429
 9809W        W25993   2.480  10.703  11.973  0.0760 -0.1495 -0.1283
 9810W        W25994   1.063  18.131   5.636  0.2129  0.0129 -0.1840
 9811W        W25995   3.683  10.861   1.533  0.0269  0.0315 -0.1284
 9812W        W25996   1.811  16.611   3.986 -0.1263  0.5775  0.0654
 9813W        W25997   4.446  13.304  14.193 -0.0880  0.0682  0.0025
 9814W        W25998  12.024  12.461   9.974 -0.0895 -0.0964 -0.1449
 9815W        W25999   7.197  17.098   1.661 -0.2521  0.1288 -0.2890
 9816W        W26000   8.523  16.881   1.715 -0.1542  0.1538  0.1167
 9817W        W26001  19.219  18.260   2.984  0.0498  0.0194  0.0684
 9818W        W26002   1.198   3.798  11.906  0.0508  0.2464 -0.2328
 9819W        W26003   4.378   0.721   2.773 -0.0793 -0.2159 -0.1264
 9820W        W26004  11.635   6.266  11.418  0.1696  0.3675  0.1622
 9821W        W26005   3.329   3.393  11.514  0.0217 -0.1327 -0.1593
 9822W        W26006  14.369   7.029   1.841  0.0560  0.0039  0.0521
 9823W        W26007  17.336   9.212  11.713 -0.1134 -0.0498 -0.0542
 9824W        W26008   9.988  18.625  13.107  0.2830  0.1432  0.1974
 9825W        W26009  14.625  14.690  14.367 -0.0491 -0.0447  0.1748
 9826W        W26010   3.349  19.121  11.311 -0.2905 -0.0752  0.0489
 9827W        W26011  16.625   2.289  13.196 -0.0397  0.0456 -0.0578
 9828W        W26012   7.614   3.758  13.487  0.0897 -0.1356  0.2615
 9829W        W26013  14.676   1.699   0.501 -0.0488  0.3897  0.1174
 9830W        W26014  18.367   8.032   1.702  0.0532 -0.2678  0.1095
 9831W        W26015   1.148  15.465  12.288  0.2864  0.1086 -0.1372
 9832W        W26016   9.194  12.831  11.685  0.0150 -0.2019  0.1126
 9833W        W26017  13.068   2.646   0.318  0.2297  0.1592  0.1975
 9834W        W26018   6.340  10.198  11.046 -0.0377  0.0329 -0.0936
 9835W        W26019  15.309   5.293   3.060  0.2044  0.1966  0.0073
 9836W        W26020  10.973   6.307   2.869  0.0775 -0.0004  0.2222
 9837W        W26021   0.501   8.173  12.725 -0.2248 -0.0092 -0.2907
 9838W        W26022  15.079   6.642  12.171  0.1649 -0.0744 -0.1958
 9839W        W26023  17.333  18.361  11.363 -0.0579  0.0539  0.1700
 9840W        W26024  15.138  12.825   0.217  0.1227 -0.0425 -0.0441
 9841W        W26025   5.726   2.492  11.203  0.1604  0.0373  0.0128
 9842W        W26026  17.660   6.444  10.323 -0.0787  0.2484  0.1444
 9843W        W26027  17.433  15.435   4.487 -0.3358 -0.0350 -0.1443
 9844W        W26028  10.457   8.768   5.968  0.3463 -0.2172 -0.0642
 9845W        W26029   6.747   1.515   4.418 -0.2945  0.0101  0.0331
 9846W        W26030  14.311   6.662   4.636 -0.1380  0.0335 -0.0325
 9847W        W26031   2.181  13.133   4.485  0.1557 -0.0070 -0.3862
 9848W        W26032  16.350   1.633   1.256 -0.4374 -0.1549  0.1517
 9849W        W26033   6.878  11.949   4.227  0.2270  0.2302 -0.0334
 9850W        W26034  14.044  16.971   3.952  0.1738 -0.0533  0.0016
 9851W        W26035   6.908   7.999  10.427 -0.1887 -0.0787 -0.2047
 9852W        W26036   3.863  18.321   2.841 -0.1417  0.1478 -0.1355
 9853W        W26037   7.946   5.219  14.465 -0.2719  0.2110 -0.0405
 9854W        W26038  11.813   2.633  11.427 -0.1568  0.1649  0.0646
 9855W        W26039  13.480   3.437  10.082 -0.0083 -0.0182 -0.4621
 9856W        W26040   8.924  16.948   5.264 -0.0315 -0.0704  0.1555
 9857W        W26041  19.051   9.328  13.660  0.2018 -0.0020  0.2020
 9858W        W26042  14.382  12.861   3.396 -0.2211  0.1660 -0.0451
 9859W        W26043   8.387  13.023   2.367 -0.1030  0.1904  0.2304
 9860W        W26044  10.676   2.482  13.873 -0.1062  0.2433 -0.1017
 9861W        W26045   8.813  18.028  14.123 -0.1352  0.2100 -0.2679
 9862W        W26046  11.992   1.298   2.858  0.1593 -0.0707  0.2566
 9863W        W26047   0.518   3.863  11.142 -0.3198  0.1054 -0.1879
 9864W        W26048  16.434  12.514   9.467 -0.1908  0.1054  0.1258
 9865W        W26049  12.337   6.417  14.412 -0.1641 -0.0087  0.1023
 9866W        W26050  17.168  11.689   1.906  0.0132 -0.1289  0.1367
 9867W        W26051  11.953  14.356   3.499  0.1926 -0.2619 -0.0535
 9868W        W26052   8.062  17.824  13.845 -0.0200  0.1202  0.0999
 9869W        W26053  14.573  16.679  12.677 -0.0137  0.0247  0.2062
 9870W        W26054  11.926  13.429   5.066 -0.1578  0.2933  0.1790
 9871W        W26055   7.847   2.168  11.935  0.2784 -0.1802  0.1490
 9872W        W26056   5.580   7.647   1.431 -0.2814 -0.2584  0.1228
 9873W        W26057   5.945  12.320  14.227 -0.1124  0.3075  0.1117
 9874W        W26058  17.170   4.764   4.609  0.2500 -0.2161  0.3333
 9875W        W26059  17.531   6.192   4.056  0.0191 -0.0528 -0.2448
 9876W        W26060   8.233  13.832  13.545  0.2739 -0.2340  0.0911
 9877W        W26061  13.255  15.602   0.920 -0.0745  0.0267  0.2603
 9878W        W26062  15.649   5.923   5.217  0.1767 -0.3481 -0.0424
 9879W        W26063   0.436  10.401   2.847 -0.0782 -0.1051  0.1024
 9880W        W26064  16.910   8.420  11.464 -0.1211  0.0415 -0.2295
 9881W        W26065   2.750  17.495   1.161  0.1613 -0.1143  0.2953
 9882W        W26066  16.334   8.838  13.638  0.1238 -0.0019  0.0892
 9883W        W26067   4.977  15.081  13.973 -0.4716 -0.2574  0.1314
 9884W        W26068  15.176  16.034  13.315  0.1110 -0.2116 -0.1432
 9885W        W26069   4.624  17.703   3.521  0.1913 -0.1703  0.2215
 9886W        W26070  12.752  16.385  14.408 -0.1931 -0.1178 -0.0287
 9887W        W26071  13.220  10.139   3.805 -0.0407  0.1493  0.0138
 9888W        W26072  12.674   5.641  13.780  0.0193  0.4236  0.1199
 9889W        W26073   0.193   6.556  11.622 -0.0104  0.1874  0.1888
 9890W        W26074   9.701  14.759   2.700 -0.0865  0.1342 -0.3933
 9891W        W26075   6.753  18.947   2.554  0.1253  0.2044  0.0656
 9892W        W26076   1.384   2.073  12.682  0.1443 -0.1631 -0.0889
 9893W        W26077  12.401   3.080   4.805  0.0915  0.1112 -0.1802
 9894W        W26078   2.153  10.296   0.678 -0.3743 -0.1980 -0.1114
 9895W        W26079   1.389   2.124   3.727 -0.1161 -0.0165 -0.3206
 9896W        W26080  12.492   6.159  12.072  0.2086  0.0594  0.4757
 9897W        W26081  15.699  18.922   1.343  0.1542  0.0937 -0.1945
 9898W        W26082  10.026   5.685  10.980 -0.3345 -0.0266 -0.2936
 9899W        W26083  15.627   1.815   4.609  0.3108 -0.3958  0.1458
 9900W        W26084  15.746   7.948   2.872  0.0350 -0.1355 -0.1653
 9901W        W26085   3.255   2.335   4.543  0.2101  0.0685 -0.1586
 9902W        W26086  14.238  10.008  12.962 -0.1971  0.3071 -0.0276
 9903W        W26087  13.372  14.570   1.398  0.0534  0.4521  0.0737
 9904W        W26088   8.061  16.913   3.108  0.2755  0.0478  0.1364
 9905W        W26089  15.868   7.042  11.691  0.3850  0.1794  0.0788
 9906W        W26090  19.014   1.833   4.701  0.3630  0.3840  0.1754
 9907W        W26091  18.529   7.906   2.898  0.0005  0.0761  0.0485
 9908W        W26092  17.808  19.083  10.849 -0.0873 -0.0948  0.0461
 9909W        W26093   5.019   5.400   4.196  0.1297 -0.0523  0.0466
 9910W        W26094  18.744  18.028   4.584 -0.2956  0.1670 -0.1532
 9911W        W26095  17.146   5.563  13.435 -0.4186 -0.0914  0.0629
 9912W        W26096   6.838  11.510   4.668 -0.0053  0.1385  0.2040
 9913W        W26097   7.825   2.098  12.431  0.0890  0.0241 -0.1055
 9914W        W26098  14.728   3.557  11.937  0.5232 -0.1149  0.1103
 9915W        W26099   9.261  13.752  14.747 -0.1545 -0.2011 -0.1381
 9916W        W26100  13.629   1.852  12.698 -0.1462  0.3064  0.2157
 9917W        W26101  13.092   7.934  13.510 -0.2721 -0.3211  0.0319
 9918W        W26102  18.661   7.487   3.272 -0.3573 -0.0683  0.1961
 9919W        W26103   0.409  10.055  10.340  0.1463 -0.1547  0.0973
 9920W        W26104   8.553   3.958   5.082 -0.0488  0.4374  0.1981
 9921W        W26105  18.764   4.062   4.268  0.3457 -0.0709  0.2121
 9922W        W26106  12.123  17.370   1.588 -0.1112 -0.1556 -0.0083
 9923W        W26107   1.497  13.337   3.429 -0.1483  0.0546  0.2534
 9924W        W26108   6.379  11.551   1.220  0.0961  0.2808 -0.0304
 9925W        W26109   8.681  17.000  13.990  0.0729  0.0466  0.1509
 9926W        W26110  11.273   5.152   5.257  0.0411  0.2006 -0.1371
 9927W        W26111  12.821  14.611   3.153 -0.1989  0.1311 -0.0517
 9928W        W26112  13.863  13.779   3.356 -0.3844  0.1286  0.7102
 9929W        W26113   5.223  17.654  10.483 -0.3015 -0.1309 -0.2644
 9930W        W26114  12.319  12.433   4.890 -0.2411 -0.1459 -0.1410
 9931W        W26115  11.426   4.661  13.146 -0.3424  0.0741  0.0095
 9932W        W26116   1.474  11.754   2.713  0.3558  0.1365  0.1087
 9933W        W26117   3.568  13.947   1.012  0.0336 -0.0509 -0.3004
 9934W        W26118   3.684   0.605   0.806 -0.3192  0.1970 -0.3180
 9935W        W26119   6.056   1.296   2.726  0.0564  0.1896 -0.3055
 9936W        W26120   9.251   6.448  10.818  0.1552  0.2203 -0.1188
 9937W        W26121  12.029  14.775   3.775 -0.2486 -0.1812 -0.2211
 9938W        W26122  19.085   0.818  12.464  0.5621 -0.0511 -0.3422
 9939W        W26123  13.263   8.641  14.101  0.1329 -0.2401 -0.0606
 9940W        W26124  14.044   8.377   2.945  0.3117  0.2674  0.0885
 9941W        W26125   8.936  18.425  11.742  0.0293 -0.0957  0.0580
 9942W        W26126  13.614  13.186  11.435 -0.1598 -0.2959  0.2122
 9943W        W26127  10.132   3.026   3.038  0.0770  0.0174  0.0634
 9944W        W26128  17.171   9.325  14.317  0.3223  0.0336  0.2094
 9945W        W26129   5.349  10.683   3.548 -0.0738  0.0453  0.1655
 9946W        W26130  16.468  14.604   0.588  0.0207  0.0391  0.1423
 9947W        W26131  19.115   1.361   2.949 -0.2590 -0.2555 -0.4169
 9948W        W26132  17.777   7.741  13.155  0.0223 -0.0817 -0.2460
 9949W        W26133  13.893  16.664   2.834  0.1433  0.3500  0.2317
 9950W        W26134  18.071  18.785  13.034 -0.1033 -0.0407 -0.0521
 9951W        W26135   3.393  10.531  10.147 -0.1824  0.1035 -0.0390
 9952W        W26136  18.717   9.555   0.329 -0.2257  0.2193  0.3163
 9953W        W26137   6.445   1.856  14.091  0.1145 -0.1282 -0.1948
 9954W        W26138  12.729  13.880   4.908  0.2014 -0.1578 -0.1501
 9955W        W26139   3.447  12.213   0.691 -0.0161 -0.1322  0.0005
 9956W        W26140   0.391  11.195   4.277 -0.1112 -0.0226  0.0931
 9957W        W26141  11.344  11.880   5.873 -0.1864  0.0882 -0.0829
 9958W        W26142   0.298   1.788  13.888  0.3154 -0.3408 -0.0636
 9959W        W26143  17.806  18.813   4.441 -0.2220  0.1067  0.0024
 9960W        W26144   1.011   7.289   3.178 -0.2513  0.0873  0.0472
 9961W        W26145  18.073  10.741  14.199  0.0558  0.1392 -0.0851
 9962W        W26146   5.905   5.505   2.984 -0.0857  0.3624 -0.1851
 9963W        W26147  15.336   5.756  10.787  0.2590  0.1903 -0.1988
 9964W        W26148  11.475  11.344   4.940  0.0440  0.0981 -0.0583
 9965W        W26149   9.341  14.616   3.768 -0.3250  0.3328 -0.4420
 9966W        W26150   5.302  16.559  12.137 -0.3437 -0.1777  0.1177
 9967W        W26151   9.538   5.085  13.405  0.2064  0.2458  0.1191
 9968W        W26152   5.002   8.728   3.944 -0.0157 -0.2255  0.0335
 9969W        W26153  10.414   7.811   2.087  0.1714  0.0243 -0.1825
 9970W        W26154   5.423  14.646  13.249  0.0862 -0.3139 -0.3320
 9971W        W26155   0.911  12.773  12.759  0.2418  0.0034  0.1658
 9972W        W26156   6.302   5.865  12.661 -0.3407  0.1589 -0.0171
 9973W        W26157   3.231  14.359   5.571  0.4021 -0.0330 -0.1357
 9974W        W26158  14.239  10.377   3.706 -0.0702 -0.1768 -0.0275
 9975W        W26159  14.968  12.537   1.955 -0.5042 -0.0231 -0.2259
 9976W        W26160  15.295   1.458  14.259 -0.1397  0.2549 -0.2211
 9977W        W26161  16.629  15.088   0.615  0.0675  0.0539  0.0888
 9978W        W26162  16.527  16.006  12.205 -0.3508 -0.0057  0.2969
 9979W        W26163   6.819  12.790   2.203 -0.1614 -0.1831 -0.0336
 9980W        W26164   8.798  10.916   1.380 -0.1032  0.1714  0.2480
 9981W        W26165  18.784  12.220   4.354 -0.2644  0.0159 -0.1046
 9982W        W26166  16.766   3.754   9.396 -0.0726  0.1350 -0.2125
 9983W        W26167  10.111   2.699   0.352 -0.3135 -0.3262 -0.1832
 9984W        W26168   5.828   9.141   0.966 -0.1419  0.3960 -0.1669
 9985W        W26169  16.694   5.908  10.095  0.3477 -0.0257 -0.1830
 9986W        W26170   9.705   1.911   5.397 -0.0435 -0.0128 -0.2281
 9987W        W26171  11.110  14.355   0.435 -0.3077 -0.1438  0.0837
 9988W        W26172   0.525  13.057  10.465 -0.0918 -0.1907  0.3026
 9989W        W26173   0.680   0.133  13.340  0.0597 -0.3152  0.4960
 9990W        W26174  18.239   9.928  14.573  0.2845  0.3106 -0.0679
 9991W        W26175  12.398   3.348  12.406  0.2445 -0.0972 -0.0789
 9992W        W26176  18.851   3.179  12.491 -0.0633 -0.1801  0.1665
 9993W        W26177  11.537  13.065  11.621 -0.1770  0.2964  0.0593
 9994W        W26178  13.308  16.005   3.295 -0.1872  0.0418 -0.1187
 9995W        W26179   0.751  16.891   3.583 -0.0091  0.2084 -0.1533
 9996W        W26180  14.919   0.375  10.327  0.5255 -0.0785 -0.2418
 9997W        W26181  18.611  11.429   1.329  0.0054  0.0243  0.3482
 9998W        W26182   0.721  14.293   2.704  0.0765  0.3767  0.0541
 9999W        W26183  17.094   2.540  13.180  0.0260  0.3201  0.2988
10000W        W26184   2.401   1.058  13.227  0.0504 -0.0829  0.2380
10001W        W26185   2.497   5.836  14.494  0.0600 -0.0824  0.1083
10002W        W26186   8.532  14.224  12.680  0.1469  0.2865 -0.0396
10003W        W26187  16.387  11.446  14.979 -0.3693  0.0948  0.2123
10004W        W26188   2.916  16.174  14.124 -0.0158 -0.1025 -0.1163
10005W        W26189  19.295  17.697   2.349  0.2301 -0.3210 -0.2976
10006W        W26190   7.566  13.086  14.586 -0.0485 -0.0268 -0.0548
10007W        W26191  11.352   1.066   0.160 -0.2500  0.2961 -0.0858
10008W        W26192  10.031   3.339   2.013 -0.2369 -0.0235  0.1367
10009W        W26193  14.402   2.678   0.618  0.2285  0.0204 -0.0236
10010W        W26194   4.041  15.168   5.230 -0.1898 -0.0829 -0.0211
10011W        W26195  10.730   0.996   0.795 -0.1857 -0.1417  0.2650
10012W        W26196   1.045  17.297   0.607  0.0066  0.2012 -0.3584
10013W        W26197   8.346  13.950   4.109 -0.1799  0.1347 -0.1211
10014W        W26198   6.989  13.440  14.679  0.1385 -0.2870  0.2514
10015W        W26199   4.903   9.516  10.611  0.6136 -0.1658 -0.4426
10016W        W26200   7.900   7.853  11.192  0.0171 -0.2211 -0.3325
10017W        W26201  14.794   1.754   4.757 -0.2615  0.4195  0.4436
10018W        W26202   9.461  12.305  12.208  0.0569  0.0817  0.0182
10019W        W26203  14.188   8.644   1.244  0.2555  0.0851  0.1788
10020W        W26204   5.908  11.737   1.280  0.0731  0.3835  0.2124
10021W        W26205  17.974  10.738   0.037 -0.0372  0.0332 -0.1329
10022W        W26206  15.949  10.192   1.222 -0.0827  0.0724 -0.0752
10023W        W26207  16.217   2.421  13.534 -0.3945 -0.2053  0.1121
10024W        W26208   6.997   3.114  12.970  0.0144 -0.2955 -0.4604
10025W        W26209   2.420   1.928  13.312 -0.0923  0.1094 -0.0849
10026W        W26210  18.890  15.570  13.597 -0.2166 -0.2853  0.0235
10027W        W26211   2.906  18.996  14.561 -0.0819  0.1433 -0.0482
10028W        W26212   9.974  16.227   3.752  0.2805  0.0168  0.2559
10029W        W26213   9.953   3.502   3.829 -0.0081 -0.1307 -0.0310
10030W        W26214   3.674  11.260  10.751 -0.1780  0.1520  0.0603
10031W        W26215  10.555  16.314   5.487  0.2041 -0.0499 -0.0802
10032W        W26216   7.320  14.271  11.428  0.0340  0.4911  0.0279
10033W        W26217   5.266   8.103   3.416 -0.1808  0.0659 -0.2726
10034W        W26218  11.490   3.330  12.016  0.1629 -0.1714 -0.1160
10035W        W26219   0.276  18.440   1.983  0.0834 -0.0771  0.0258
10036W        W26220  10.715  13.053   4.372 -0.2731  0.1160  0.1286
10037W        W26221  12.786   0.039  11.356  0.0287 -0.1001  0.1223
10038W        W26222   2.023  16.705   4.649 -0.2329  0.1029  0.0808
10039W        W26223   1.424   2.928   4.103 -0.3125 -0.0677  0.0490
10040W        W26224   7.740  12.045   1.056  0.2991 -0.1709  0.3796
10041W        W26225   6.899   0.998   2.805  0.0132  0.2363 -0.2151
10042W        W26226   5.907  10.045  11.303 -0.3472 -0.0233  0.1625
10043W        W26227   2.627   1.795  12.518 -0.1732  0.0747 -0.2689
10044W        W26228   6.773  15.702  14.115 -0.3341 -0.1777  0.1420
10045W        W26229   0.030  15.624  13.745  0.1594 -0.0548 -0.0351
10046W        W26230   7.472   0.192   1.443  0.0283  0.2574  0.0593
10047W        W26231  18.195  11.217  14.268  0.1243  0.0627 -0.3893
10048W        W26232  11.754   0.955  11.809 -0.0494  0.1166  0.1317
10049W        W26233  14.185   9.731  13.488 -0.1505  0.4465 -0.0236
10050W        W26234  16.995  18.780  11.169  0.2102 -0.0463  0.3301
10051W        W26235   1.379   2.355   1.559  0.3849 -0.2234  0.1273
10052W        W26236   4.347   2.816  14.501 -0.2245 -0.0095 -0.0868
10053W        W26237   7.977   5.362  12.740 -0.1429  0.2827 -0.3197
10054W        W26238   9.325  13.965   4.535 -0.0108  0.0510 -0.0933
10055W        W26239  18.268  11.675   2.621  0.1355 -0.1957 -0.0519
10056W        W26240   8.067  10.707   4.089 -0.0121 -0.0526 -0.0434
10057W        W26241  12.160   0.861  12.195 -0.2188  0.2744 -0.1915
10058W        W26242   3.153   5.675  13.003 -0.0478  0.3442  0.2232
10059W        W26243  15.500   0.256   9.781  0.0519 -0.0223  0.0321
10060W        W26244   1.944  14.598   2.026  0.0724  0.3488  0.0509
10061W        W26245   8.456   6.694  13.249  0.0606  0.0570  0.0358
10062W        W26246   4.767   6.292   1.728 -0.2423  0.2445 -0.3528
10063W        W26247   7.394   4.984  14.850  0.1804  0.1856 -0.0892
10064W        W26248   0.018   3.626  12.534  0.1366  0.2668  0.3538
10065W        W26249  14.533  18.339  12.107 -0.3739  0.0864 -0.2631
10066W        W26250   2.060   2.317   0.833  0.1728  0.1278 -0.0271
10067W        W26251  18.206  16.992  13.238 -0.5217  0.1918  0.2109
10068W        W26252   3.696  16.010  13.426  0.0354  0.1277  0.0100
10069W        W26253   8.014   4.715   4.521  0.1151 -0.1867 -0.1109
10070W        W26254  15.330   7.832  14.196 -0.2334 -0.2563  0.0818
10071W        W26255   7.282  17.370   3.444 -0.1739  0.0658  0.0533
10072W        W26256   3.630  15.695  10.605  0.0396 -0.0968 -0.3075
10073W        W26257   9.927   6.863   0.989 -0.0499 -0.0015  0.2667
10074W        W26258   6.818   8.633   3.423 -0.1851 -0.0343  0.1796
10075W        W26259  16.101  13.357   1.387 -0.0346  0.1572  0.0144
10076W        W26260   8.769  19.128  12.366  0.0549 -0.2945 -0.3821
10077W        W26261   1.568   8.186   5.076 -0.2518  0.1562 -0.1103
10078W        W26262  18.912   4.506   2.429 -0.0426 -0.2136 -0.0536
10079W        W26263   2.598  12.581   0.497 -0.0244 -0.0574  0.2444
10080W        W26264   9.706   2.586  14.973 -0.0240 -0.3403  0.1681
10081W        W26265   1.935   0.326  10.228  0.0620 -0.3661  0.1234
10082W        W26266   8.413  16.172  13.865 -0.0116 -0.0946 -0.1151
10083W        W26267   0.302  12.594  10.256 -0.0016  0.0387 -0.0221
10084W        W26268  12.926  17.788  14.218  0.0105  0.2196 -0.0469
10085W        W26269   4.183  17.468  12.107 -0.1152 -0.0460 -0.0125
10086W        W26270   0.082  14.576  12.769  0.1403  0.1682 -0.1298
10087W        W26271  16.008   4.610   1.931 -0.2028 -0.3342  0.1458
10088W        W26272   0.040   2.152  14.086  0.0024  0.0345 -0.0298
10089W        W26273  10.481   9.648   1.310 -0.1540 -0.2906 -0.0488
10090W        W26274  13.629  13.988   5.847 -0.0885 -0.0979 -0.3150
10091W        W26275   6.571   5.837  13.840 -0.0505  0.0831 -0.0147
10092W        W26276  13.630   1.669  14.750  0.1245 -0.1698  0.3130
10093W        W26277  11.981   3.769   3.060  0.1055 -0.4386 -0.1264
10094W        W26278  13.254  12.218   0.164  0.0653  0.1150 -0.0471
10095W        W26279   7.586   9.566  13.869 -0.3085  0.0103  0.1472
10096W        W26280   3.246  17.466  12.019  0.2802 -0.0762  0.0394
10097W        W26281  19.145   1.500  11.377 -0.0401 -0.0953  0.1489
10098W        W26282   5.024  10.190  12.211  0.4976 -0.0082 -0.0368
10099W        W26283  11.181   8.160  13.673 -0.0377  0.2408  0.1180
10100W        W26284  18.169   7.857   2.539  0.1447  0.1003  0.1173
10101W        W26285  12.519  18.849  13.858 -0.1118  0.0893 -0.0749
10102W        W26286  15.966  12.675  11.897  0.0969  0.0687  0.1527
10103W        W26287   1.295  14.190  10.989  0.4502 -0.1332 -0.0118
10104W        W26288  11.779  14.230  12.110  0.0865  0.2451 -0.4724
10105W        W26289   2.301   5.045   2.362 -0.3026  0.1249 -0.0721
10106W        W26290  19.171   6.510   0.571 -0.0417 -0.0407 -0.2419
10107W        W26291   9.648   3.994   2.432  0.0697  0.2446 -0.1612
10108W        W26292   7.463  10.530   3.277 -0.0723  0.0694  0.0036
10109W        W26293  17.590   1.291  12.942 -0.1459  0.3114  0.0611
10110W        W26294  17.824   4.215  12.705 -0.0937  0.1477 -0.3101
10111W        W26295  11.119  15.705   5.042 -0.3402 -0.0875  0.1594
10112W        W26296   3.288   5.316  13.350 -0.0652  0.3200  0.1460
10113W        W26297  18.904  18.448   2.549  0.1826 -0.0047 -0.0820
10114W        W26298  12.531  12.388   1.714 -0.1535  0.0144 -0.3199
10115W        W26299  11.850   8.085  14.421  0.1499  0.0453 -0.2584
10116W        W26300  11.149  11.781  10.029 -0.1651 -0.3259 -0.0181
10117W        W26301  19.152  18.238   1.097  0.4897  0.1395  0.0766
10118W        W26302   0.204   1.331   4.550 -0.0590 -0.0767 -0.1761
10119W        W26303  16.407  14.756  14.691  0.1738 -0.2100  0.0736
10120W        W26304   2.116  15.017   2.301 -0.2571 -0.1811  0.1329
10121W        W26305   5.714   8.744   3.035 -0.2132 -0.0798  0.0806
10122W        W26306  17.473   4.948   2.462 -0.0876  0.1955 -0.2212
10123W        W26307  19.023   1.617  11.918 -0.1300  0.1350  0.3877
10124W        W26308   9.742   1.289  13.472 -0.0557 -0.1478 -0.1574
10125W        W26309  15.377  19.199  12.205  0.1051 -0.2399 -0.4658
10126W        W26310   9.367   0.991  13.613 -0.1894  0.1746 -0.0377
10127W        W26311   2.868  14.860   2.945 -0.1536 -0.2007  0.1423
10128W        W26312   9.338  12.297  11.272 -0.0790  0.0626 -0.1047
10129W        W26313  15.867  19.242   2.618 -0.5188  0.0298 -0.1509
10130W        W26314   0.472  18.601   2.733  0.0261  0.3548  0.1226
10131W        W26315  12.627  14.696   0.276 -0.0171 -0.0116 -0.1195
10132W        W26316  12.405  17.953   4.748 -0.1540 -0.1825 -0.1698
10133W        W26317  18.772   8.889   1.866 -0.0904 -0.1727 -0.2116
10134W        W26318   2.163   7.173  13.087  0.1050 -0.0385 -0.0744
10135W        W26319   5.447  16.515   3.690 -0.1077  0.2001  0.2388
10136W        W26320   9.801   0.855   4.426 -0.1250  0.0637 -0.1207
10137W        W26321  16.527   1.530  13.260  0.1675 -0.1674 -0.3123
10138W        W26322   6.527   5.128  10.529  0.0420 -0.1710 -0.2574
10139W        W26323   2.252   0.176  13.512  0.0658 -0.2074 -0.3128
10140W        W26324   5.306   1.151  14.135  0.2531  0.0157 -0.3439
10141W        W26325  19.076   7.148  12.609 -0.2715 -0.1719 -0.1023
10142W        W26326  17.531   2.826  13.697 -0.3690  0.0529  0.0574
10143W        W26327  17.217   7.442   1.969  0.0501 -0.1008  0.0940
10144W        W26328  17.441   9.540  11.261  0.2866  0.0319  0.0576
10145W        W26329  11.449  18.275  10.730  0.2396  0.2734  0.0129
10146W        W26330  13.498  15.782  10.870  0.1162  0.0026 -0.2573
10147W        W26331  11.395   9.065   1.912 -0.5268 -0.3361 -0.4234
10148W        W26332  11.045   4.507  12.375  0.1072 -0.1495  0.1243
10149W        W26333  17.568  12.789   3.977  0.0228 -0.3207  0.0537
10150W        W26334  17.623   4.208   4.341  0.2756  0.1236  0.0028
10151W        W26335  15.229  13.411  13.383 -0.0752  0.0169  0.1975
10152W        W26336   5.421  18.156  10.981 -0.0735  0.4704  0.2506
10153W        W26337  16.529  12.203   4.832  0.2236  0.0257  0.1325
10154W        W26338   8.034  15.931  14.913 -0.1366  0.1758 -0.0340
10155W        W26339   4.858  18.095   5.333 -0.1404  0.1010 -0.1699
10156W        W26340  13.887   9.693  11.437  0.1069  0.1588 -0.2562
10157W        W26341  10.194  18.023  10.592  0.0427  0.1784  0.0164
10158W        W26342  10.992   4.595  12.852 -0.1041 -0.1367  0.1327
10159W        W26343  15.359   0.976  13.018  0.1017 -0.0933  0.1762
10160W        W26344  10.725   6.696   4.368  0.0464  0.0446  0.0794
10161W        W26345   7.205   3.229   1.412  0.1347  0.0967 -0.3796
10162W        W26346   7.720  18.441  13.326 -0.0972 -0.1100  0.0950
10163W        W26347  16.795   1.834  13.787 -0.1394  0.2680  0.1742
10164W        W26348  12.205   9.995   3.171  0.1553 -0.0382  0.0332
10165W        W26349  12.461  13.146   0.712 -0.2161  0.1277  0.2511
10166W        W26350  15.796  18.916  14.260 -0.2989  0.0044 -0.0258
10167W        W26351  13.415   4.543   3.713 -0.0102  0.0644  0.1778
10168W        W26352   8.671   2.067   5.751 -0.0023  0.1024  0.0598
10169W        W26353   0.470   3.784  10.499  0.0266  0.5305  0.2737
10170W        W26354  16.103   2.946  13.564  0.3068 -0.3338  0.3000
10171W        W26355   8.750  10.462   4.469 -0.0790 -0.2279  0.3123
10172W        W26356  12.315   0.209  11.451 -0.3352 -0.3369 -0.0869
10173W        W26357   1.216   4.345   1.128  0.1708  0.0257  0.2648
10174W        W26358  19.343  17.703   2.912 -0.1644  0.2959 -0.0529
10175W        W26359  11.657  14.003  11.271 -0.2227  0.1563 -0.5040
10176W        W26360  16.952   6.164   4.104 -0.3532  0.0851  0.2126
10177W        W26361   1.485  11.647  12.722  0.0243 -0.0762  0.1391
10178W        W26362  11.638  19.377  11.999 -0.0092 -0.0775 -0.0050
10179W        W26363  13.162  17.088   1.126 -0.2906  0.1353  0.2318
10180W        W26364  12.716  16.913   1.252 -0.2927  0.1414 -0.0339
10181W        W26365   7.137   4.022   0.903  0.1360 -0.2184 -0.0837
10182W        W26366   1.070   5.323   3.129 -0.0765 -0.2520  0.0565
10183W        W26367   3.029   5.658   1.100 -0.1305 -0.3063 -0.2856
10184W        W26368  12.878  15.547  14.263 -0.0454  0.1047 -0.1234
10185W        W26369   0.371  12.693   0.040 -0.1975 -0.0415 -0.2276
10186W        W26370  13.225  12.124   2.950 -0.1198 -0.0458 -0.0309
10187W        W26371  13.612   2.137  11.126  0.1847 -0.0246  0.1331
10188W        W26372   4.401   1.143  11.578  0.1560 -0.2815 -0.1841
10189W        W26373   2.359   2.978   2.015  0.3652  0.0139 -0.1462
10190W        W26374   6.988   2.978   5.147 -0.1251  0.0901 -0.0366
10191W        W26375   5.194   3.281  14.039  0.0056  0.1667  0.0328
10192W        W26376  19.225  12.562   1.816 -0.0810  0.0536 -0.2922
10193W        W26377  14.139  15.797   5.081 -0.0019  0.0340  0.0503
10194W        W26378  15.034  15.969  11.094 -0.2802 -0.2666 -0.0160
10195W        W26379   6.846  17.087   0.671 -0.0945  0.0146 -0.0166
10196W        W26380  13.704   5.607   0.235  0.0033 -0.5276 -0.0383
10197W        W26381  16.481  16.574   3.154 -0.0837  0.0249  0.0623
10198W        W26382   5.504  15.147  12.985  0.1907 -0.1719 -0.1257
10199W        W26383   6.053   4.687   0.406  0.0968  0.1479  0.2608
10200W        W26384  15.477  10.551   0.679 -0.0572 -0.1931 -0.2392
10201W        W26385  17.454  18.736  10.125  0.0889 -0.1985  0.1068
10202W        W26386  18.211  11.313  12.154  0.3454 -0.2471 -0.4692
10203W        W26387  15.742   8.855  11.405  0.3965  0.3145  0.0950
10204W        W26388  17.320  13.810   3.626  0.0559  0.1256  0.0537
10205W        W26389   2.759   7.402   3.772  0.1062 -0.3925  0.1703
10206W        W26390   1.295  18.138  14.254 -0.1800  0.3609  0.0983
10207W        W26391  12.018   6.206   4.708  0.2784 -0.3291  0.0149
10208W        W26392  11.410   0.376  11.755 -0.1031 -0.2569  0.0611
10209W        W26393  16.847  19.157  14.734  0.0486  0.1783 -0.0436
10210W        W26394   9.196   1.663   3.248 -0.1680 -0.0320 -0.0494
10211W        W26395   7.803  16.636  10.480 -0.3939 -0.1470 -0.0008
10212W        W26396   1.780  16.265   2.340 -0.3274  0.1294  0.1957
10213W        W26397   1.964  13.237  10.744  0.1719 -0.0245  0.1077
10214W        W26398  14.068   5.177   0.456 -0.1408  0.1329 -0.0041
10215W        W26399  18.169   7.896  14.760  0.1471 -0.1612  0.0875
10216W        W26400  15.553   9.581   0.583  0.3418 -0.3383  0.0126
10217W        W26401   2.945   1.624   4.785  0.2147  0.2672 -0.0540
10218W        W26402   8.953   6.601  13.252 -0.3842 -0.1456 -0.0704
10219W        W26403   9.072   1.110   4.929 -0.2792  0.0679  0.0249
10220W        W26404  14.932   5.186  11.832 -0.4521 -0.2383 -0.0288
10221W        W26405  10.270   2.024  14.026 -0.0443  0.1844  0.2411
10222W        W26406   3.173   4.776  10.578 -0.0160 -0.0887  0.3118
10223W        W26407   9.084  15.791   3.720  0.0853 -0.3699  0.0974
10224W        W26408  12.023   9.738  11.054 -0.0436 -0.2305 -0.0835
10225W        W26409   7.587   0.672   4.766  0.4167 -0.1459 -0.1334
10226W        W26410  13.205   4.404  14.896 -0.3800 -0.2001 -0.3882
10227W        W26411   1.892  15.628   2.997  0.1260  0.0175  0.0740
10228W        W26412   6.182   7.803   3.313 -0.0599 -0.2346  0.0449
10229W        W26413  14.569  12.065   2.017  0.1628 -0.2187 -0.2210
10230W        W26414   4.767   9.416   5.203  0.3646  0.2217 -0.4570
10231W        W26415   2.554   7.271  12.224 -0.1303 -0.0924 -0.0030
10232W        W26416   5.347  18.686   4.302 -0.1300  0.0482  0.2079
10233W        W26417   2.276   7.471   1.972  0.1148 -0.2249  0.1268
10234W        W26418   5.355  13.816   1.852 -0.1489 -0.2139 -0.2589
10235W        W26419   6.476   0.039  10.440  0.1071  0.2614 -0.3568
10236W        W26420   0.673   4.005   1.965  0.1405  0.3043 -0.0635
10237W        W26421  18.690  12.810  13.839 -0.2016 -0.1816  0.3360
10238W        W26422  14.894   2.349   4.133  0.0906  0.4006  0.2217
10239W        W26423   1.659   3.817   1.077  0.2494 -0.0601  0.0771
10240W        W26424   8.455   8.880   2.925 -0.3002 -0.1999 -0.1130
10241W        W26425   8.192  18.430   3.662  0.0465 -0.2461  0.0208
10242W        W26426   4.138  17.206   1.243 -0.1532  0.3983 -0.1057
10243W        W26427  16.249  16.491  13.163 -0.0980  0.1382 -0.0314
10244W        W26428   5.962  17.944  10.650  0.0973 -0.0910  0.0578
10245W        W26429   7.337  14.851   3.914  0.0226  0.1976  0.1213
10246W        W26430  14.738   0.410   5.623  0.1654 -0.0470 -0.2497
10247W        W26431  16.504   6.903   3.742 -0.2919 -0.0892 -0.1242
10248W        W26432  16.328  18.604   0.730  0.2347  0.2961 -0.2362
10249W        W26433  15.462  13.135  13.734 -0.4902  0.1393 -0.4253
10250W        W26434   0.161   7.800   2.878 -0.3283  0.3614 -0.2857
10251W        W26435   1.414   0.368  14.763 -0.1462  0.2038 -0.1764
10252W        W26436  15.857  10.785   9.364 -0.0950  0.1162 -0.2341
10253W        W26437   8.767   3.617   0.504  0.2414 -0.1689  0.2179
10254W        W26438  14.697  14.351  11.103 -0.0272 -0.2602  0.1961
10255W        W26439  17.598   1.874   9.281 -0.1051 -0.1972  0.1074
10256W        W26440   3.766  12.344   1.229 -0.0633 -0.0891 -0.3898
10257W        W26441  10.957  10.608  13.390  0.0507 -0.1126  0.1682
10258W        W26442   0.710   3.803   3.882  0.0192 -0.0149  0.1197
10259W        W26443   8.228   8.726   2.109 -0.1682  0.2129 -0.1203
10260W        W26444  11.895  14.772  11.274  0.1395 -0.2222 -0.0707
10261W        W26445   4.985  10.952  12.758 -0.0814 -0.0023  0.1488
10262W        W26446  12.852   9.390  14.575  0.1545 -0.2453  0.0597
10263W        W26447  10.759  16.312  10.329 -0.1843  0.4252  0.1294
10264W        W26448  12.191   7.940   2.495 -0.0131  0.0139 -0.1370
10265W        W26449   4.401   1.710   2.633 -0.2325  0.2204  0.1745
10266W        W26450   2.311   9.405  10.212 -0.4766  0.0561  0.2320
10267W        W26451   8.835  16.517  10.716 -0.2275 -0.0466 -0.1117
10268W        W26452  15.913  17.445  13.167 -0.1467 -0.4641 -0.0781
10269W        W26453   1.747  10.465   0.944  0.1546  0.1939  0.0302
10270W        W26454  16.888  11.342   4.877 -0.0546  0.1875  0.0066
10271W        W26455  18.547   3.520   1.646 -0.1589 -0.0825  0.0541
10272W        W26456   4.963  11.809  11.102  0.0911  0.0414 -0.0283
10273W        W26457   9.407  19.017  11.197  0.2657  0.1094 -0.1563
10274W        W26458  14.047   0.725   2.640 -0.3242  0.0224  0.0146
10275W        W26459   1.305  19.237   6.077  0.0397  0.3234  0.0624
10276W        W26460   1.538  15.970  11.465 -0.0216  0.2631 -0.2243
10277W        W26461  18.682  12.146   1.340  0.0894 -0.0965 -0.0562
10278W        W26462   7.546   7.106  13.147 -0.4782 -0.1039 -0.1647
10279W        W26463   1.387  10.880   0.515 -0.1461  0.4794 -0.0534
10280W        W26464   5.450   5.193  11.735  0.0159  0.1543 -0.3085
10281W        W26465  15.466  12.101   5.751  0.0981 -0.0158  0.1516
10282W        W26466   6.706  18.299  10.685 -0.2417  0.0079  0.0144
10283W        W26467  18.643   3.586  14.976  0.0755 -0.2384  0.2082
10284W        W26468   7.191   3.846   3.677  0.0860  0.2246  0.1832
10285W        W26469   7.174  14.370   4.175  0.0002 -0.3303 -0.1762
10286W        W26470  18.033  13.929   2.454  0.2725  0.2145 -0.0581
10287W        W26471   6.493   4.899  11.609  0.0587  0.1397 -0.1389
10288W        W26472   0.906   0.791  11.258 -0.1831  0.1459  0.1680
10289W        W26473   1.036  18.065  13.839 -0.0261  0.0122 -0.0893
10290W        W26474   9.522  12.182   0.872 -0.0107 -0.1339  0.1545
10291W        W26475  15.121   6.578   3.582 -0.0743  0.1827  0.2368
10292W        W26476  11.911   4.788  12.353 -0.0182 -0.2486 -0.0504
10293W        W26477   0.469  14.931  13.200  0.0448 -0.1158  0.0578
10294W        W26478  10.335   7.417   3.493 -0.0270 -0.0571  0.0775
10295W        W26479  13.797   5.789  10.738  0.1639  0.2782  0.0158
10296W        W26480  14.789   2.159   5.177 -0.2649 -0.1946  0.4976
10297W        W26481  14.622   4.565   4.193  0.1292 -0.1599 -0.0314
10298W        W26482   8.297   6.542  11.638  0.3478  0.0622 -0.1707
10299W        W26483  14.411  10.774   5.516  0.0069 -0.1854  0.3062
10300W        W26484   5.409   0.865   2.816 -0.0263 -0.0337 -0.2715
10301W        W26485  13.132   8.559   2.506 -0.0261  0.1396  0.0846
10302W        W26486   6.508   4.692   3.822 -0.1379  0.0469 -0.1012
10303W        W26487  12.313   1.701   4.278  0.1594  0.1184  0.1922
10304W        W26488  14.593   5.793   2.209 -0.1711 -0.3512 -0.0560
10305W        W26489   7.519   4.681  14.004 -0.1949  0.2700 -0.1213
10306W        W26490  17.454  18.489   4.211  0.1470  0.0806 -0.0239
10307W        W26491   3.874  14.561   4.654 -0.0449  0.4153 -0.0683
10308W        W26492   2.105   4.820   0.234  0.2424  0.2492 -0.0560
10309W        W26493   7.201   2.232   4.458  0.4290 -0.1892 -0.2568
10310W        W26494  17.662   6.020  11.287  0.0387 -0.1599 -0.0701
10311W        W26495   1.862   6.234   1.322 -0.1031  0.0186 -0.0045
10312W        W26496   7.310  13.146   1.614  0.0378 -0.1314 -0.1579
10313W        W26497   2.056   9.244  11.125 -0.0491  0.1196  0.1671
10314W        W26498  18.942  18.967  10.062 -0.1744 -0.1832  0.1857
10315W        W26499  11.678   9.268  10.912  0.0748 -0.1725 -0.3006
10316W        W26500   9.958  17.714  12.918  0.2535 -0.1423 -0.3928
10317W        W26501  18.394  16.187  12.514  0.2033  0.0294  0.1468
10318W        W26502  12.722   4.211  14.015 -0.1151 -0.2481 -0.0660
10319W        W26503   2.863   9.970   5.015 -0.2823 -0.2191  0.3427
10320W        W26504   3.725   7.105  14.380  0.0494 -0.2049  0.1575
10321W        W26505   0.523   5.894   0.306 -0.1094  0.2248  0.0732
10322W        W26506  17.921  18.473   1.904  0.4781 -0.2724  0.1244
10323W        W26507   1.297   7.590  13.301  0.0559 -0.1167  0.0115
10324W        W26508   7.243  16.328  11.573 -0.2691  0.3996  0.0515
10325W        W26509  14.366   7.822   3.888  0.1420  0.0656  0.1502
10326W        W26510   2.243  14.899  11.685  0.0313 -0.2236 -0.1810
10327W        W26511  16.144   8.056  12.882 -0.1481  0.4196  0.0438
10328W        W26512  11.198   0.207   3.682 -0.0838  0.2977 -0.0320
10329W        W26513   1.459   6.574   2.700  0.1334 -0.1250 -0.5411
10330W        W26514   7.015   3.370  13.414 -0.2102  0.0680 -0.3169
10331W        W26515   6.845   7.332   3.637  0.0363  0.2045  0.4988
10332W        W26516  14.184   8.767  10.372  0.0602 -0.1817  0.2368
10333W        W26517   8.352  10.857  12.639  0.1066 -0.1092  0.4698
10334W        W26518  12.159   8.651   1.218  0.0971 -0.2172  0.0426
10335W        W26519   9.635  18.315  13.647  0.3652  0.0679 -0.1892
10336W        W26520   2.278  14.087   2.112  0.0417 -0.2273  0.1052
10337W        W26521   7.578   2.988   2.274 -0.0629 -0.3308  0.1070
10338W        W26522  11.088  16.841   2.102  0.0487  0.3635 -0.4092
10339W        W26523   3.256   2.338  13.028 -0.1216  0.1234  0.1418
10340W        W26524  13.553   9.832   3.487  0.2185 -0.0084  0.0696
10341W        W26525   3.017   3.989   2.273 -0.1792 -0.2872  0.3617
10342W        W26526   2.313  13.317  12.655  0.2010 -0.0434  0.3389
10343W        W26527   5.736  13.254   2.824  0.4772  0.0007 -0.1800
10344W        W26528   6.141   5.553  13.461  0.2851  0.2573 -0.1531
10345W        W26529  12.531  11.122   1.031  0.3977 -0.2473 -0.0128
10346W        W26530   1.538  10.433  11.441  0.2057  0.3743 -0.2618
10347W        W26531  17.152  18.980   3.678 -0.1352  0.1368 -0.5757
10348W        W26532   0.918   4.962  13.630 -0.0807 -0.1518 -0.0217
10349W        W26533   9.365  15.805   1.390 -0.1184 -0.2697 -0.1600
10350W        W26534   5.004  17.075   4.944 -0.0420 -0.3279  0.2766
10351W        W26535  19.192   1.707  13.780 -0.2980 -0.0448 -0.1257
10352W        W26536   1.290   5.186   1.623 -0.0217 -0.0625  0.1171
10353W        W26537  10.022  12.406  11.706  0.1860 -0.1778  0.2140
10354W        W26538   8.795   0.903   3.250  0.1885 -0.1194  0.1345
10355W        W26539   8.749   7.366  11.203 -0.0631 -0.2316 -0.1927
10356W        W26540  18.346  11.291   4.580  0.1950  0.1347  0.1090
10357W        W26541  14.773   9.749   3.658  0.1069 -0.0866  0.1863
10358W        W26542  16.423  16.405  13.628  0.0448  0.1847 -0.0831
10359W        W26543   4.270   9.343   4.112  0.0453  0.3868  0.3644
10360W        W26544  14.083   3.154  10.423 -0.0678 -0.1143  0.1642
10361W        W26545   2.172   8.476   4.439 -0.0720  0.2188 -0.3464
10362W        W26546  17.613  14.285   3.491 -0.1305 -0.0325  0.1851
10363W        W26547   5.690   7.372   2.750 -0.2245  0.1007 -0.0830
10364W        W26548   5.491  15.562  10.425  0.1065  0.0698 -0.1182
10365W        W26549  10.964  18.735   2.355  0.1651 -0.0191 -0.2286
10366W        W26550  16.997   2.990  14.936 -0.2248 -0.1469 -0.1276
10367W        W26551   2.857   4.600  10.218  0.0949 -0.2387  0.0828
10368W        W26552  16.053  14.714   3.100 -0.0615  0.1987 -0.0553
10369W        W26553   6.832  15.715   3.700  0.1899  0.1091  0.3900
10370W        W26554   0.152  18.025   1.600  0.2745  0.1176  0.0542
10371W        W26555   6.005  14.258  11.556 -0.2086 -0.4055 -0.2354
10372W        W26556   9.403   8.859  13.085 -0.1458  0.0070 -0.0426
10373W        W26557   6.581   2.762   2.784  0.1236  0.2186  0.4425
10374W        W26558   8.768  19.258  14.805  0.1236 -0.0471  0.0339
10375W        W26559   0.035   0.366   4.795 -0.1089  0.0040 -0.1449
10376W        W26560   1.836  14.560  13.990 -0.2654  0.1954 -0.1292
10377W        W26561  15.005  18.120   2.638 -0.3863 -0.1209  0.0588
10378W        W26562   5.076   7.882  12.545 -0.2476 -0.0775  0.1633
10379W        W26563   3.049  10.298  12.146  0.5525 -0.1791 -0.2746
10380W        W26564   3.185   6.347  12.582 -0.2500  0.3988  0.1215
10381W        W26565  11.035  13.082  10.803  0.1967 -0.0963 -0.2262
10382W        W26566  10.612  14.526  10.873 -0.0890 -0.1114 -0.1222
10383W        W26567  12.699   2.629   2.474 -0.0018 -0.3447 -0.1785
10384W        W26568   1.045  16.236   4.421  0.0216  0.0345  0.1789
10385W        W26569  15.978  12.104   4.645 -0.0435  0.3273  0.0728
10386W        W26570  17.780  13.847   1.698  0.1666 -0.1876  0.1494
10387W        W26571   4.338   4.222   4.708  0.0693 -0.0635  0.0271
10388W        W26572   3.406  14.325  13.393  0.2924 -0.0689  0.2715
10389W        W26573   7.492   3.819  12.581  0.1241  0.0199 -0.2784
10390W        W26574  13.671  16.572   3.982  0.1462  0.2122  0.0548
10391W        W26575   2.999   9.982  14.488 -0.1224 -0.1795 -0.3307
10392W        W26576  16.855  15.425  14.607 -0.1437 -0.1677 -0.2617
10393W        W26577   0.528  10.133  11.283  0.3364  0.1398  0.0140
10394W        W26578   9.774   0.293  12.810 -0.1769  0.1537 -0.0746
10395W        W26579  15.003   3.477  13.799 -0.3934  0.2486 -0.0023
10396W        W26580   3.535   8.416   4.962 -0.0458 -0.3228 -0.3231
10397W        W26581  17.321   7.531   3.569  0.0467  0.1227 -0.3206
10398W        W26582   1.934  13.461  11.718 -0.2640  0.0560 -0.1267
10399W        W26583   9.968  10.775   5.368 -0.2926  0.2897 -0.1382
10400W        W26584   4.118   8.127   3.282 -0.2000 -0.1419 -0.0659
10401W        W26585  16.548   0.689  12.165  0.0560 -0.2662  0.5481
10402W        W26586  16.178   8.897   0.378 -0.0198  0.1575  0.2459
10403W        W26587  12.669  11.802   3.550  0.1620  0.3014  0.2255
10404W        W26588   9.973   1.147  12.547 -0.2259 -0.0264 -0.3704
10405W        W26589   4.547   0.031   2.544 -0.2315  0.0480 -0.0757
10406W        W26590  10.739  13.121  12.256  0.0205 -0.1920  0.1091
10407W        W26591   3.627  15.345  11.943  0.0835  0.1171  0.1700
10408W        W26592   5.249  10.143   0.176  0.2285  0.0115 -0.1624
10409W        W26593  16.198   3.769   9.259 -0.2920 -0.0325  0.1121
10410W        W26594  14.266  16.006  12.481  0.1930 -0.2639 -0.0396
10411W        W26595   0.855   7.125   0.434  0.1939  0.2526 -0.0509
10412W        W26596  17.051   2.187  10.978  0.0699  0.1950 -0.2271
10413W        W26597  10.258  15.688   2.240  0.2040  0.0354  0.1863
10414W        W26598  15.469  14.726   4.467 -0.5139 -0.1023  0.0107
10415W        W26599  19.135  19.105   4.200  0.0097  0.2836  0.1768
10416W        W26600  13.765  12.263   3.681  0.2516  0.2828 -0.0168
10417W        W26601   3.344  17.551   5.754  0.0232  0.2386 -0.0797
10418W        W26602   5.521   5.967   4.468 -0.0741 -0.0336 -0.1893
10419W        W26603  12.023   7.833  14.062  0.0447  0.1713  0.0478
10420W        W26604   7.406   3.789   3.163 -0.1662  0.0375  0.1493
10421W        W26605   1.521   7.753   3.221 -0.0355 -0.1097 -0.4463
10422W        W26606   3.060   4.463   2.502 -0.3617  0.2224  0.1836
10423W        W26607   7.171  15.872   1.567 -0.3128 -0.2250 -0.1641
10424W        W26608   0.073  11.510  14.836 -0.0827  0.3320  0.0883
10425W        W26609   4.837   2.195   1.648  0.2179 -0.0762  0.1384
10426W        W26610   2.024  18.048  14.573 -0.2782 -0.1401 -0.4903
10427W        W26611  11.233   2.886   0.154  0.1116 -0.1823  0.3819
10428W        W26612  10.325  10.886  13.646 -0.0403  0.2474 -0.0017
10429W        W26613  13.912  18.902   0.977 -0.1119  0.2073 -0.2254
10430W        W26614   1.106   6.410   1.210 -0.2970  0.1854 -0.0884
10431W        W26615   8.037  11.708   4.791  0.0074 -0.1239 -0.1604
10432W        W26616  17.001   5.281   4.659 -0.0089 -0.2547 -0.0467
10433W        W26617   8.152   8.207  10.445  0.0123  0.0274 -0.1498
10434W        W26618  18.415  10.003   3.819  0.2181 -0.2497 -0.0450
10435W        W26619  14.462   4.123   4.814  0.1108  0.1456 -0.0631
10436W        W26620  17.481  15.157   3.936  0.1351 -0.0752  0.0455
10437W        W26621   8.868   5.761  12.607 -0.1919  0.0661  0.1835
10438W        W26622   0.567   0.397  11.393 -0.0146 -0.3222 -0.0333
10439W        W26623   7.978  10.981   4.872 -0.1699 -0.2810 -0.1710
10440W        W26624  16.466   3.356  10.708 -0.0263  0.0545  0.4308
10441W        W26625   3.589  11.390   2.253 -0.2498  0.3738  0.1066
10442W        W26626  11.218  15.157  14.243 -0.0107  0.1802  0.0867
10443W        W26627  10.637   4.820  11.569 -0.1172 -0.2209 -0.1083
10444W        W26628   6.055   1.419  10.386  0.0373  0.0884  0.1101
10445W        W26629   8.961   8.089   3.593  0.0012 -0.2228 -0.1174
10446W        W26630   6.902  17.774   5.434  0.2906  0.2650 -0.1171
10447W        W26631  17.852   9.732  13.888 -0.0957  0.2320 -0.0503
10448W        W26632  14.481  17.105  14.503  0.4867 -0.0883 -0.0762
10449W        W26633  13.849   5.822  12.640 -0.1269  0.0402 -0.0515
10450W        W26634   8.193   2.507  12.673 -0.1799  0.1840  0.1534
10451W        W26635  17.118  10.150   0.364  0.2085 -0.0216  0.0180
10452W        W26636  11.657   8.740  11.717  0.1476 -0.1240 -0.0758
10453W        W26637  11.755   6.116   1.418  0.1472  0.0125  0.1702
10454W        W26638  12.350  14.707   3.334  0.0026 -0.0389 -0.1150
10455W        W26639   8.715   3.973  12.096  0.2067 -0.0017  0.0373
10456W        W26640   9.377   4.284   2.166  0.1848 -0.1358 -0.1070
10457W        W26641  15.585  10.048  14.428 -0.1959  0.3905  0.0057
10458W        W26642   7.269  14.568  12.986  0.2840 -0.2788  0.0497
10459W        W26643   5.351  12.010  11.800 -0.2093 -0.0200  0.0023
10460W        W26644   9.791  15.788   5.052 -0.3629 -0.2198 -0.0033
10461W        W26645   1.620  15.128   5.595 -0.0564  0.2082 -0.0201
10462W        W26646  16.330  11.782  12.122  0.0431  0.0908  0.2136
10463W        W26647  12.892  14.399  13.575  0.2039  0.0524  0.0874
10464W        W26648  16.876   9.739  14.217  0.2204  0.1041 -0.0688
10465W        W26649   3.431  14.844   4.671  0.2216 -0.1072  0.1161
10466W        W26650   9.536   7.528  10.929 -0.2044  0.0826  0.2792
10467W        W26651   0.747   2.494   5.801 -0.1693  0.2422  0.0572
10468W        W26652   4.814   6.061  10.519 -0.0904  0.2001 -0.2978
10469W        W26653   3.590   5.442   0.285  0.1995  0.1788 -0.1063
10470W        W26654   2.369   8.886   4.723 -0.0935 -0.0830  0.0438
10471W        W26655  13.032   6.820   3.215  0.1185 -0.0829 -0.4020
10472W        W26656   6.649  11.920   1.907 -0.0818 -0.0195 -0.2102
10473W        W26657   7.592   7.752   3.281 -0.1554 -0.1785 -0.0658
10474W        W26658   2.344   2.183   1.672 -0.0120 -0.0554  0.0882
10475W        W26659   4.269   0.127   5.610 -0.1222 -0.0613 -0.3720
10476W        W26660   3.416   6.715  12.874 -0.3165 -0.2234  0.3162
10477W        W26661  12.428  14.306   3.677  0.0019 -0.1025 -0.0874
10478W        W26662  10.377  10.602   4.119 -0.0655 -0.2604  0.1303
10479W        W26663  18.550   6.260   1.884  0.1273  0.1421  0.1048
10480W        W26664   4.596  16.477  12.198 -0.1076  0.1458  0.1501
10481W        W26665  17.732   8.558   5.479 -0.3448 -0.0712  0.2180
10482W        W26666  12.001   6.065   3.639 -0.2213 -0.2125  0.1264
10483W        W26667  15.219   9.818  13.141  0.0424 -0.0561  0.2602
10484W        W26668  16.911   4.857  12.753  0.1091 -0.0543  0.0843
10485W        W26669   6.991   9.606   0.677  0.0954  0.1529 -0.3744
10486W        W26670   9.279   7.141  12.396 -0.0281  0.3134  0.3479
10487W        W26671  15.516  10.110   3.346  0.0639 -0.1211 -0.0018
10488W        W26672   6.400   0.231   1.001  0.0321 -0.1241 -0.0279
10489W        W26673  18.354   3.113  10.762  0.2462  0.2206 -0.0571
10490W        W26674  10.732   8.874   1.220  0.0363 -0.2076 -0.0043
10491W        W26675   8.597  17.488  12.974 -0.1070 -0.1322 -0.1815
10492W        W26676   5.183  10.408   2.318  0.1017  0.0563  0.0192
10493W        W26677  16.503  14.321   1.038  0.2473 -0.0083 -0.2195
10494W        W26678  12.344   6.157   1.326 -0.0094  0.0692 -0.3434
10495W        W26679   8.051   8.540  12.356  0.0869  0.0022 -0.1409
10496W        W26680   9.233   5.421  13.123 -0.3363 -0.0894 -0.0600
10497W        W26681   7.349   0.877  12.453 -0.5828 -0.0462 -0.0305
10498W        W26682  14.991   9.399  13.243 -0.1603 -0.1721  0.1726
10499W        W26683   1.769   6.845  10.533  0.0049  0.2044 -0.1668
10500W        W26684   8.858   1.478   2.158  0.0119  0.3550  0.1340
10501W        W26685  13.657  13.605   1.022  0.1218  0.1159  0.0954
10502W        W26686  18.574   3.444  12.884  0.1451  0.3496 -0.1261
10503W        W26687   8.643  18.244  11.373  0.1884  0.0672  0.0772
10504W        W26688   4.211  17.003   2.387  0.1637  0.0611  0.2391
10505W        W26689   5.767   1.664   2.551  0.0205  0.0066  0.0521
10506W        W26690  16.332  17.773   0.916  0.2250 -0.0706 -0.0114
10507W        W26691  16.583  13.338   4.896  0.2087  0.0315 -0.0194
10508W        W26692   3.958  14.767   0.166  0.1628  0.1245 -0.1020
10509W        W26693   4.398  13.998  12.056 -0.0091  0.0448 -0.2836
10510W        W26694  14.185  15.085   2.868  0.1267 -0.1219  0.4237
10511W        W26695   2.739  14.188   1.896  0.0239 -0.0084  0.0333
10512W        W26696   1.061   9.829  12.645  0.2454 -0.0699 -0.1135
10513W        W26697   7.231  11.543  12.090  0.1123  0.1849 -0.0028
10514W        W26698  10.396  15.035   1.342  0.2946  0.3838  0.2545
10515W        W26699  14.228   0.111   4.895  0.2318 -0.1390 -0.0280
10516W        W26700  14.222  10.482   1.396  0.3733  0.1219  0.2699
10517W        W26701  18.153   4.025   2.349 -0.1986  0.1005 -0.1114
10518W        W26702   9.191  14.764   5.154 -0.1422 -0.2942  0.2147
10519W        W26703   7.528   4.993  10.238 -0.1973  0.2221 -0.1767
10520W        W26704   1.028   0.070   3.071 -0.2065 -0.2855  0.1647
10521W        W26705   0.768   1.678   5.955  0.0368  0.2383 -0.1387
10522W        W26706   9.262  16.997  13.971  0.3314 -0.3267 -0.0456
10523W        W26707  12.991  17.982  12.788 -0.0786 -0.1970  0.0597
10524W        W26708  14.816   3.036   4.176  0.2505 -0.0394  0.4175
10525W        W26709  10.253   5.074  14.407  0.1458 -0.1993  0.1488
10526W        W26710  12.952   8.488  14.443 -0.0138  0.3153 -0.1595
10527W        W26711   7.997  16.906  11.212  0.1391 -0.5017  0.1706
10528W        W26712  18.378  18.331  14.458 -0.1643 -0.3518  0.2617
10529W        W26713   9.175  19.063   1.834 -0.1473  0.0585  0.2286
10530W        W26714  12.700   2.487   0.737 -0.0119  0.0293  0.1036
10531W        W26715   6.823   2.635   3.682 -0.2959 -0.0309  0.0464
10532W        W26716  16.908   8.219  12.519  0.2501  0.0068  0.2843
10533W        W26717   1.167  17.519   3.968  0.5516  0.2569 -0.2814
10534W        W26718   7.546   8.185   1.243  0.3937 -0.0067 -0.2336
10535W        W26719   8.834  12.379  10.647  0.1792  0.1570  0.2528
10536W        W26720   4.017   4.334   9.935 -0.0822 -0.2390 -0.0940
10537W        W26721   9.579  10.791   0.759 -0.2176 -0.0174 -0.1310
10538W        W26722  12.334  11.051  12.718 -0.0362 -0.2197 -0.1361
10539W        W26723   0.375   4.260  11.327  0.1712  0.3239 -0.3117
10540W        W26724  14.846   3.495  14.587  0.0397 -0.2057 -0.0876
10541W        W26725   3.442   0.843  12.090 -0.0811  0.0953 -0.2930
10542W        W26726  15.894   3.789   1.386 -0.0183 -0.0614  0.0964
10543W        W26727   7.111  18.652   1.809  0.0832  0.2823 -0.2395
10544W        W26728   8.909  10.607   3.674 -0.3489 -0.1368 -0.4301
10545W        W26729  12.441  17.765  12.966 -0.1410 -0.1048  0.3444
10546W        W26730   9.333  15.371  14.037 -0.1795  0.0610 -0.1421
10547W        W26731   7.109   0.906   0.436 -0.2456 -0.1443  0.2452
10548W        W26732  11.946  11.653  13.067  0.0761 -0.0157 -0.1276
10549W        W26733   3.403  11.520   3.656  0.0411 -0.1147  0.0410
10550W        W26734  14.471   4.198   2.673  0.0797  0.1660  0.0102
10551W        W26735  14.230   4.161   0.316  0.0430  0.1057 -0.0449
10552W        W26736  10.246  17.772  13.305 -0.1185  0.5363 -0.0594
10553W        W26737  18.025  15.725  11.013 -0.0383 -0.1394  0.2305
10554W        W26738   5.865  14.850   3.318  0.0451  0.2215 -0.3380
10555W        W26739   4.249   8.615   0.133 -0.0380  0.0236 -0.0233
10556W        W26740  17.735  10.775  12.922 -0.1526 -0.2887  0.0396
10557W        W26741  15.925  12.245  11.085 -0.1789 -0.1445 -0.0939
10558W        W26742   6.515   7.437  13.732  0.3617 -0.1143 -0.0116
10559W        W26743   0.299   6.707  13.850  0.1956 -0.1827 -0.0100
10560W        W26744   1.482  14.632  12.207 -0.3055  0.1146  0.1539
10561W        W26745   1.000   5.575   1.451 -0.0771 -0.2256 -0.0891
10562W        W26746   8.122  14.609  14.773 -0.1891 -0.1412 -0.1228
10563W        W26747   6.170  19.058  10.685  0.1731  0.0580 -0.1088
10564W        W26748  16.265  14.074  13.107 -0.3819 -0.0858  0.2379
10565W        W26749   0.563   5.066  11.308 -0.2428  0.0983  0.2055
10566W        W26750   4.485   6.802  11.214  0.1588  0.2275  0.1075
10567W        W26751   4.752  18.084   3.247  0.1654  0.2725 -0.0101
10568W        W26752   7.769   3.314  14.114  0.1482 -0.2040  0.1502
10569W        W26753   8.207   2.366   0.535 -0.4527 -0.0127 -0.3340
10570W        W26754   5.917  12.475  12.960 -0.3467 -0.2067  0.3944
10571W        W26755  15.477   4.219  12.858 -0.0106 -0.2158 -0.1339
10572W        W26756  19.131   6.880  14.687 -0.1414 -0.2967  0.1350
10573W        W26757  18.746  12.984  10.469 -0.0090 -0.1085 -0.0684
10574W        W26758  13.481  15.517   2.343 -0.0071 -0.1523 -0.0918
10575W        W26759   7.595  13.758  10.784  0.1981 -0.0124  0.0544
10576W        W26760  12.893  14.396   1.394 -0.0227  0.0455 -0.1514
10577W        W26761   3.752   1.789  11.354 -0.3729  0.4216  0.0856
10578W        W26762   2.008   1.328   2.608 -0.5033 -0.3899 -0.1669
10579W        W26763  15.412   6.503   1.294 -0.0387  0.3264 -0.1444
10580W        W26764   3.317  13.715   2.953  0.0737  0.0645  0.4037
10581W        W26765   1.421   5.431   4.063  0.1437 -0.0066 -0.1136
10582W        W26766   7.904   8.734  14.451  0.4146  0.4599 -0.2692
10583W        W26767   9.187   5.175   0.597 -0.0290 -0.1981  0.2460
10584W        W26768   5.640   7.526  14.845 -0.2491 -0.0357  0.2699
10585W        W26769   9.024   3.736   1.503 -0.3556  0.0371  0.2226
10586W        W26770  17.340  10.198   4.846 -0.0894 -0.2065 -0.1390
10587W        W26771   8.880  14.814   4.076 -0.0867  0.0726 -0.2619
10588W        W26772  18.427   3.588   2.123 -0.0954 -0.1306  0.4507
10589W        W26773  18.418  10.494  10.104  0.0411  0.1745 -0.1651
10590W        W26774  17.469   5.318   1.270  0.0739  0.2804  0.0683
10591W        W26775  14.637  18.761  12.562  0.2625  0.2240  0.1323
10592W        W26776   1.099   2.848  13.390  0.0921  0.3031 -0.1098
10593W        W26777   9.654   5.545  12.189 -0.0107 -0.0596 -0.0068
10594W        W26778  12.660  11.388  12.433  0.1833 -0.1325  0.0503
10595W        W26779  16.769   5.428  14.304  0.1585 -0.0826 -0.0877
10596W        W26780  12.323  17.910  11.642 -0.0256  0.1989  0.0406
10597W        W26781   6.127   7.198  10.331  0.0156  0.1174 -0.1739
10598W        W26782   2.550   8.139   4.572 -0.5544  0.2378 -0.2897
10599W        W26783   8.149   2.862   3.211  0.0331  0.1212  0.2289
10600W        W26784   7.710   9.771   4.287 -0.1924  0.0291 -0.4385
10601W        W26785  10.816  13.823   5.769  0.2516  0.0826 -0.2492
10602W        W26786  18.310  16.070   0.525 -0.1318  0.2318  0.0303
10603W        W26787  18.295  13.180  11.402 -0.1820  0.2926  0.4013
10604W        W26788   7.392  15.461  12.428 -0.1487 -0.1333  0.2682
10605W        W26789  18.929   5.373  13.090 -0.2037 -0.0569 -0.3410
10606W        W26790  11.918  16.771  14.701  0.0943  0.0014  0.4409
10607W        W26791  13.652   8.995   2.268 -0.3639  0.0961  0.1049
10608W        W26792   7.489   9.800  10.771  0.0131  0.1944  0.1295
10609W        W26793   4.286  13.198  10.757 -0.1868  0.2152  0.4676
10610W        W26794   4.547   2.252   1.052  0.0557 -0.0369  0.0000
10611W        W26795   8.586  17.173  11.706  0.0353  0.0296 -0.1474
10612W        W26796   3.652   0.738   3.012 -0.3893  0.0626 -0.1095
10613W        W26797   3.413   0.181   1.454 -0.0918  0.0440  0.0261
10614W        W26798   7.715   8.460  11.374  0.0111 -0.2239 -0.2705
10615W        W26799   0.283  16.613  10.297  0.1261  0.2242  0.1019
10616W        W26800   6.873  14.572   9.555  0.0319 -0.0284  0.0218
10617W        W26801   4.558  14.924  14.384 -0.2583 -0.0735 -0.4051
10618W        W26802   3.596   5.199   1.415 -0.4601  0.1131  0.1408
10619W        W26803   5.884  12.950  13.105 -0.2079 -0.0149  0.1917
10620W        W26804   1.744   4.501  10.880  0.1598 -0.0706 -0.1185
10621W        W26805  19.377  15.866   0.580  0.1559 -0.1959  0.0694
10622W        W26806  15.037   6.636   3.062  0.0004 -0.0850 -0.0129
10623W        W26807  12.558   3.230   0.481 -0.3396  0.0696  0.0913
10624W        W26808  15.747   5.501  14.233  0.0603  0.0109 -0.0974
10625W        W26809   1.817   6.175  12.038 -0.0666  0.1850 -0.0425
10626W        W26810  12.078  12.089   1.798 -0.1242  0.0366  0.0115
10627W        W26811  10.624   5.031   4.293 -0.4154  0.1608 -0.0344
10628W        W26812  10.383  10.862   0.887 -0.1949 -0.1542 -0.0043
10629W        W26813   6.697   8.663   2.639 -0.0872 -0.0495  0.0872
10630W        W26814   7.995   3.645  14.962 -0.2928  0.0973 -0.1185
10631W        W26815   5.495   7.833   2.474  0.0272  0.3664  0.2519
10632W        W26816   5.721   8.379  10.932  0.2020  0.0923  0.1037
10633W        W26817  17.735   5.806   1.499 -0.1730 -0.2060 -0.1324
10634W        W26818   4.224   9.561  14.536 -0.1233  0.0638  0.3425
10635W        W26819  16.412  15.746   4.503 -0.2046 -0.0902  0.1131
10636W        W26820  17.683   3.301  12.851  0.0964  0.1146  0.1554
10637W        W26821   1.934  14.669   4.692  0.0538  0.0137  0.1176
10638W        W26822  16.018   2.625  13.954  0.2946  0.4210  0.0100
10639W        W26823   4.154   5.415   9.946 -0.2655  0.0291  0.1595
10640W        W26824  13.633  16.409   4.568 -0.3637 -0.2299 -0.0975
10641W        W26825   3.831  18.279  14.196 -0.1193  0.2426  0.0262
10642W        W26826   7.966   0.397   3.636  0.1012 -0.0566 -0.0241
10643W        W26827   0.290   9.199   3.220 -0.3408 -0.0782  0.0492
10644W        W26828   4.423   8.934  10.962 -0.0820  0.2244  0.1363
10645W        W26829  11.851  15.482   3.850  0.0349  0.0958 -0.0959
10646W        W26830   5.223  19.254   2.693  0.3095 -0.0862  0.0757
10647W        W26831   7.341  17.191  12.502 -0.3549  0.0269 -0.0470
10648W        W26832   7.961  11.958  10.804 -0.1820  0.1311 -0.0170
10649W        W26833  11.772  14.275  10.879  0.0493  0.0981  0.0110
10650W        W26834  10.825  15.996   0.603 -0.0243  0.1036 -0.0869
10651W        W26835   5.518   9.234   1.997  0.0567  0.0026 -0.0441
10652W        W26836  13.587  10.330  11.180  0.2911 -0.0093  0.1032
10653W        W26837   4.377  19.348   1.578  0.1781 -0.0483  0.2618
10654W        W26838  15.420   1.371   4.267  0.4333  0.2796 -0.0784
10655W        W26839  14.900  12.139   4.872 -0.4510 -0.0627  0.0088
10656W        W26840   3.019  18.372   1.113 -0.1890 -0.1666  0.3230
10657W        W26841  15.068   4.494  13.113 -0.0497  0.1028  0.2542
10658W        W26842   7.150   9.946   3.926 -0.0718 -0.1745 -0.1224
10659W        W26843  18.211   3.064  14.369 -0.0508  0.0591  0.2751
10660W        W26844  11.567   8.847   5.700  0.1207 -0.1579 -0.2750
10661W        W26845   2.006   7.568  12.397 -0.2250 -0.0225 -0.1932
10662W        W26846  14.336   6.197  14.503 -0.0798  0.1638  0.0540
10663W        W26847   4.441  16.287  10.287  0.0639 -0.3078 -0.3508
10664W        W26848   6.045  16.706   0.276  0.0176 -0.1041  0.2877
10665W        W26849   3.850   7.325   2.335  0.1734 -0.0684 -0.0878
10666W        W26850   6.331   9.667   4.067 -0.1141 -0.1779  0.2263
10667W        W26851  18.045  18.637   9.481  0.1470  0.0361  0.1475
10668W        W26852  16.080  12.988   3.567 -0.0595  0.1320 -0.0642
10669W        W26853   4.879   7.448  13.562  0.3350 -0.0286 -0.0774
10670W        W26854  13.409   2.307  12.940  0.0449 -0.1910  0.3087
10671W        W26855   6.780   6.226   0.004  0.2642  0.2606  0.2156
10672W        W26856  19.353   3.652  10.913  0.1061  0.0434  0.1874
10673W        W26857  18.369  13.242   2.728 -0.0515 -0.1088 -0.3785
10674W        W26858  10.642   5.983   1.677 -0.0547  0.0486  0.0834
10675W        W26859  16.866   7.025  14.396 -0.0489  0.2628 -0.1852
10676W        W26860  15.495   1.155  11.705 -0.0278  0.1035  0.2815
10677W        W26861  12.890   3.787  11.357 -0.0673 -0.0132 -0.0622
10678W        W26862   7.898  14.014   3.695 -0.0020 -0.0599  0.2410
10679W        W26863  18.965   4.775   0.685 -0.2019 -0.1345 -0.0948
10680W        W26864   9.343   8.473   1.074  0.1127 -0.0613  0.1812
10681W        W26865  15.054  13.562  10.517 -0.1263  0.1052 -0.0121
10682W        W26866   7.291   5.871  10.472 -0.1153  0.1897 -0.0428
10683W        W26867   3.536   5.616  14.460  0.1784  0.3618  0.2235
10684W        W26868   8.378   0.015  11.679  0.2062  0.1273 -0.3662
10685W        W26869  18.625   8.929  13.763 -0.1707  0.0040  0.1594
10686W        W26870  10.108  14.557  10.921  0.4155  0.2153 -0.0954
10687W        W26871  11.000   0.062   1.068  0.1413  0.0257  0.2743
10688W        W26872  12.377  12.764  14.595 -0.1898 -0.0265 -0.2472
10689W        W26873   9.360   4.821  12.808 -0.1358 -0.3165 -0.0601
10690W        W26874  13.963   4.425   4.401 -0.2774 -0.0836  0.0035
10691W        W26875   9.076   3.599  14.145  0.1402 -0.0204  0.0782
10692W        W26876   4.978  14.112   1.937  0.5234  0.2868  0.3506
10693W        W26877  16.645  11.023   5.216 -0.0162  0.3441 -0.0631
10694W        W26878  14.140   7.688  10.540 -0.0259  0.1398 -0.1311
10695W        W26879  10.649   6.715   2.421 -0.1365  0.2203 -0.0828
10696W        W26880  18.886  15.310   5.053  0.1599 -0.0237  0.0003
10697W        W26881   8.190   3.220  13.227 -0.2992 -0.1946 -0.1227
10698W        W26882   5.100  15.832  10.159  0.3838  0.0331 -0.2807
10699W        W26883   9.110  19.225   1.384  0.4677 -0.2689  0.2522
10700W        W26884  14.424  13.712   3.462 -0.2995 -0.1561 -0.3281
10701W        W26885  16.970  19.344  12.139  0.2050  0.2523  0.0243
10702W        W26886  11.179   1.514  12.161  0.1896 -0.0788  0.1678
10703W        W26887  17.523  17.407  11.430 -0.1449  0.3718 -0.1439
10704W        W26888  16.806  19.382  13.395 -0.1959 -0.1437  0.0499
10705W        W26889  10.493   6.877  10.826 -0.0372  0.2822  0.1865
10706W        W26890  17.057   5.674  13.973 -0.2781 -0.1529  0.4061
10707W        W26891   7.875  18.173   2.052 -0.1051 -0.1549 -0.0933
10708W        W26892  16.018   3.272  11.217  0.3209 -0.1688 -0.0782
10709W        W26893  13.076   6.799  14.557 -0.0477  0.0716 -0.1582
10710W        W26894   5.497   4.333   2.773  0.2495 -0.1643 -0.5172
10711W        W26895  15.047   8.203  14.032 -0.0005  0.0243  0.2798
10712W        W26896  10.573  17.106  10.344 -0.1949  0.2999  0.1162
10713W        W26897  14.798   8.695  11.902  0.0820  0.0923  0.0007
10714W        W26898   3.300  14.013   0.529 -0.2601 -0.0983  0.0097
10715W        W26899   3.014  18.026  13.105  0.2609  0.3538  0.0480
10716W        W26900   0.574  10.032  12.479  0.2311  0.0018  0.1256
10717W        W26901  15.014   7.859  11.240  0.1843  0.1524 -0.3096
10718W        W26902  17.516  13.511  12.619  0.0140 -0.0771  0.5024
10719W        W26903   4.299   6.489  12.574  0.1596 -0.2086 -0.0361
10720W        W26904   1.842  17.347  14.335  0.1120  0.1552 -0.1395
10721W        W26905   2.674   6.460   1.713  0.0111  0.0212 -0.1009
10722W        W26906  17.919  10.019  12.303 -0.0568  0.3631 -0.1204
10723W        W26907  12.748   8.944  13.678  0.4001  0.2813 -0.0501
10724W        W26908  18.906  17.013  10.694 -0.1736  0.0218 -0.1285
10725W        W26909  15.102   1.977  14.760 -0.3611 -0.2000  0.2422
10726W        W26910  18.585   2.084   0.204 -0.0359  0.1135 -0.1470
10727W        W26911   1.873  13.042  12.288  0.5698  0.5296  0.1087
10728W        W26912  17.310  18.552  13.837 -0.1624 -0.0360 -0.2248
10729W        W26913  17.747  14.736   3.269 -0.3301 -0.0262 -0.2439
10730W        W26914  12.091  14.902  14.208 -0.2210  0.0095  0.0070
10731W        W26915   8.525  10.056   1.863  0.0846 -0.0118  0.1898
10732W        W26916   4.864   4.595  10.174 -0.0442  0.0913 -0.0467
10733W        W26917   4.433  10.997  11.200 -0.1908  0.0122  0.0446
10734W        W26918   5.827  11.736   4.241 -0.3798 -0.0823  0.1288
10735W        W26919   9.289   6.175  11.234  0.1730  0.0224 -0.0951
10736W        W26920   1.795   8.203  12.994  0.1744  0.2901  0.0899
10737W        W26921   1.654  16.836   2.983  0.1770  0.3134  0.1027
10738W        W26922  14.543  12.498   3.053  0.1484  0.0455  0.4131
10739W        W26923  10.771  11.515  11.364  0.0691  0.0221 -0.3756
10740W        W26924   9.363   1.520  10.667 -0.1173 -0.0042  0.4887
10741W        W26925  16.457   8.853  12.205  0.0179 -0.1279  0.1377
10742W        W26926   3.919   7.204   2.866  0.3578  0.1839  0.1319
10743W        W26927  13.242  11.458  13.291  0.2245  0.3243 -0.3763
10744W        W26928   7.302   4.607  10.611 -0.0294  0.0205 -0.0942
10745W        W26929  12.112  11.141   0.655  0.0292 -0.3684 -0.1725
10746W        W26930   0.406   0.725  10.500  0.0322 -0.0959  0.1562
10747W        W26931  13.832   4.094  11.295 -0.1649  0.1294  0.0772
10748W        W26932  12.164   0.662   0.520 -0.1487 -0.0864  0.1538
10749W        W26933  10.258  18.453   5.268  0.0270 -0.1089 -0.2093
10750W        W26934   2.805   3.228  13.287 -0.7103 -0.0527  0.1434
10751W        W26935   8.440  13.907   4.665  0.0490  0.0055 -0.2340
10752W        W26936  15.813  16.041  14.768 -0.0836  0.3223 -0.2604
10753W        W26937   7.912   7.722   9.579 -0.1026 -0.0193 -0.0265
10754W        W26938   2.222  12.753  14.527  0.0478  0.1247  0.1859
10755W        W26939   1.107  16.342  10.651  0.2062  0.5612  0.3134
10756W        W26940  13.572  19.280   4.119  0.1490  0.1356 -0.1051
10757W        W26941  17.862   8.699   3.193  0.2136 -0.0424  0.1847
10758W        W26942  18.318  10.476   5.000  0.1026  0.2471  0.2257
10759W        W26943  17.383  18.804  10.613  0.3096 -0.0196 -0.3086
10760W        W26944   2.266  15.719  13.793  0.1693  0.2494  0.1556
10761W        W26945  16.066   9.877   3.773 -0.0568 -0.0183  0.4525
10762W        W26946  16.439  17.649   3.204 -0.2372  0.2229  0.1362
10763W        W26947   8.461   7.982  12.604  0.2521  0.1166 -0.3558
10764W        W26948  17.010   1.190  14.506 -0.0032 -0.1395 -0.1805
10765W        W26949   0.028  18.466  14.798 -0.3614  0.0523  0.3712
10766W        W26950  14.777   9.654   0.386  0.3004  0.2536 -0.0604
10767W        W26951  14.064  13.022  11.149  0.0576  0.0137 -0.1438
10768W        W26952   6.800   0.087   0.632  0.1915 -0.1266  0.0870
10769W        W26953  13.013   0.814  14.544  0.0487  0.0179 -0.3015
10770W        W26954  19.096  18.407  12.181 -0.1416  0.1382 -0.1051
10771W        W26955  18.908  18.984   0.900  0.2525 -0.0271 -0.1303
10772W        W26956  10.876  14.692   2.134  0.2914  0.3447 -0.0596
10773W        W26957   9.497   7.204   3.501 -0.0381 -0.2013 -0.2986
10774W        W26958  14.817  11.167   9.332 -0.0263 -0.1333 -0.1266
10775W        W26959   9.988   9.536  13.423 -0.2853 -0.0655  0.3567
10776W        W26960   6.209  11.414  12.619 -0.0599  0.2783  0.0150
10777W        W26961  13.824   8.634   1.608  0.0286  0.2926  0.1091
10778W        W26962   4.140   6.698  11.560  0.1961 -0.0110 -0.0793
10779W        W26963  16.220  12.749  12.318  0.1283 -0.1460  0.1338
10780W        W26964   4.140   6.271   0.528 -0.1035  0.2872 -0.0889
10781W        W26965   4.339   7.007  12.998  0.0464 -0.0588  0.0365
10782W        W26966  17.173  15.178   1.885  0.0092  0.0942 -0.0047
10783W        W26967  13.330   4.930  11.605  0.1865  0.3720 -0.1006
10784W        W26968   4.179  18.384   0.515  0.1262 -0.1167  0.0937
10785W        W26969   2.221  16.822   1.296 -0.1748  0.2108  0.0699
10786W        W26970  13.547  11.189   2.602  0.0866 -0.1331  0.1963
10787W        W26971   1.356   9.390   2.390 -0.0849 -0.4318 -0.1316
10788W        W26972  15.856   3.745   9.616 -0.1890  0.0750 -0.1260
10789W        W26973  12.448  11.765  13.853  0.0065  0.1588  0.0025
10790W        W26974  10.005   0.319   2.097  0.3503 -0.0665 -0.0078
10791W        W26975   1.200  15.050   4.715 -0.0840  0.3321  0.0282
10792W        W26976   0.758  14.903  14.654  0.1846  0.1940 -0.0355
10793W        W26977   2.429   2.595   0.701 -0.0922 -0.2548  0.2726
10794W        W26978  10.004  12.107   4.895 -0.0796 -0.5591 -0.4421
10795W        W26979   4.428  16.859   3.707  0.2499  0.0261 -0.2677
10796W        W26980  19.278   8.816   1.825 -0.4243  0.0061 -0.5288
10797W        W26981  17.814  11.299   4.440  0.1259 -0.1734 -0.1493
10798W        W26982  17.914  12.055   4.021  0.1841  0.0356  0.0924
10799W        W26983  10.788  14.263   5.027  0.2073  0.0618  0.0578
10800W        W26984  10.996  10.418   1.141 -0.0573  0.0578 -0.0054
10801W        W26985  14.586   6.934   2.802  0.1382 -0.0374  0.2583
10802W        W26986  16.817  15.210  12.280 -0.0833  0.2587 -0.1442
10803W        W26987   7.714  14.006  13.516  0.0760  0.1454  0.3252
10804W        W26988   8.897  12.234   1.931  0.0284  0.1396 -0.1316
10805W        W26989  12.508   9.680  11.391  0.1376  0.0361 -0.0920
10806W        W26990   8.424   2.082   2.429  0.0202 -0.0525 -0.0985
10807W        W26991   5.136   4.343   9.755 -0.1911 -0.2110  0.0935
10808W        W26992   6.125  13.188  14.836  0.1458  0.2134 -0.2688
10809W        W26993  12.646  16.151   0.838 -0.2277  0.0218 -0.3154
10810W        W26994  18.590   6.623  10.690 -0.0687  0.0471 -0.3648
10811W        W26995   8.428  18.513  12.682  0.0284  0.1651 -0.0112
10812W        W26996   8.020   2.737  13.082  0.0620  0.3238  0.3385
10813W        W26997   6.839  16.388   4.207 -0.2271 -0.3270 -0.3235
10814W        W26998  14.041   3.165  11.576  0.1772 -0.3481  0.0507
10815W        W26999  15.191  10.687   5.021 -0.3034  0.0682 -0.0862
10816W        W27000  12.086  10.437   1.417 -0.3364  0.2522  0.1891
10817W        W27001   6.374   5.693  10.558  0.1338  0.0121  0.0536
10818W        W27002   0.543   5.161   3.588 -0.2110  0.0925 -0.0392
10819W        W27003   9.147   5.075  10.568 -0.0650  0.1310 -0.1857
10820W        W27004   9.229  16.515   2.083 -0.0275  0.0622 -0.2454
10821W        W27005   1.898   1.305   0.998 -0.0934 -0.3139 -0.1179
10822W        W27006  18.496  17.881  11.502  0.0648 -0.3316 -0.1833
10823W        W27007   1.258  16.247   5.026 -0.0737 -0.2926  0.0298
10824W        W27008  12.949  15.501  12.436  0.2775  0.3487  0.0624
10825W        W27009   7.037  11.552  12.668 -0.2447 -0.2283  0.0915
10826W        W27010   8.426  15.883  13.420 -0.0117 -0.1631 -0.3210
10827W        W27011  13.967   6.182   2.814 -0.1590 -0.0067  0.2595
10828W        W27012  15.111   4.307  10.423  0.0776  0.1062 -0.1121
10829W        W27013   5.895   3.702  10.524 -0.2987 -0.1570 -0.0985
10830W        W27014   4.958   2.856  10.944  0.1181  0.2129 -0.4681
10831W        W27015   4.866  13.180  10.565  0.1148 -0.0318 -0.0014
10832W        W27016   7.558  16.638  13.809 -0.0327  0.5227  0.2490
10833W        W27017   9.321   5.265  12.003 -0.1529 -0.1312  0.2498
10834W        W27018   3.313  15.832   1.970 -0.0027 -0.2047  0.4695
10835W        W27019   7.564  16.607  11.072 -0.0487  0.2309 -0.1615
10836W        W27020   1.532   2.209  13.882 -0.0847 -0.2022 -0.3476
10837W        W27021  18.936   3.781   0.893 -0.0715 -0.0889  0.0111
10838W        W27022  13.150  19.334  14.179 -0.1906  0.1709  0.0506
10839W        W27023  11.687  11.940  14.303  0.0768  0.2061 -0.5696
10840W        W27024  11.083   3.112   4.294 -0.2134 -0.1051  0.1492
10841W        W27025  18.429  17.289   0.724 -0.2867 -0.2594 -0.1710
10842W        W27026   1.026   2.670   4.894 -0.0016 -0.1856 -0.1812
10843W        W27027  13.042  15.927  14.583  0.0860  0.2067  0.0392
10844W        W27028   8.531  14.243   5.108  0.3551 -0.1513 -0.2280
10845W        W27029   4.108  15.682   5.464 -0.2098 -0.2169 -0.0596
10846W        W27030   5.486  12.442   4.060 -0.1246 -0.1230  0.3288
10847W        W27031  16.846   8.368   1.408  0.4329 -0.1101 -0.2802
10848W        W27032   9.510   0.118  13.201 -0.1231  0.0870 -0.4282
10849W        W27033  18.973   7.268  13.632  0.1420  0.0263 -0.1030
10850W        W27034   7.965   9.226  11.262 -0.1474 -0.1056 -0.0962
10851W        W27035  11.115   5.559  12.738  0.1599  0.1175 -0.0465
10852W        W27036   1.684  18.069   3.431  0.1698 -0.0704 -0.1575
10853W        W27037  15.690   2.181   2.939  0.0973 -0.2029  0.0042
10854W        W27038  11.638   9.768  10.704  0.1445  0.1346 -0.0182
10855W        W27039  11.497  18.032   2.795 -0.0288  0.1433 -0.5199
10856W        W27040   9.821  19.209   2.079  0.0110  0.0153  0.1079
10857W        W27041  12.035  16.179   4.716  0.0332 -0.1163 -0.0820
10858W        W27042  19.018  18.574   5.328 -0.3890 -0.0480  0.1111
10859W        W27043  11.233  19.284  12.307  0.3896 -0.3160  0.0117
10860W        W27044  16.516   7.699  10.254  0.1773 -0.2586 -0.1250
10861W        W27045  12.766   6.497   2.982  0.2080 -0.0533 -0.3416
10862W        W27046   2.460  10.891   1.951 -0.0350  0.2907  0.1749
10863W        W27047  10.988  14.273   0.970  0.0146 -0.1436 -0.0374
10864W        W27048  18.030   3.645  12.049 -0.1486  0.2614  0.0042
10865W        W27049   0.052  11.259   2.877 -0.1581  0.0071 -0.1829
10866W        W27050  13.455  11.048  11.900  0.0370  0.3667 -0.0192
10867W        W27051   2.830  17.765   3.336  0.1754 -0.1441 -0.1407
10868W        W27052   3.141  12.022   1.872  0.1490 -0.1014  0.0926
10869W        W27053   8.026  14.719  13.848  0.1186  0.5631  0.2854
10870W        W27054  14.696  15.094   4.194  0.0574 -0.0600 -0.0475
10871W        W27055   0.164   4.918   3.356  0.0466  0.2025 -0.3432
10872W        W27056   7.777   7.475  11.648 -0.0255 -0.3274  0.1258
10873W        W27057  17.836   2.967   5.585  0.0572  0.2056  0.0467
10874W        W27058   9.996  12.234   2.857  0.0774  0.4259  0.1386
10875W        W27059   9.765   2.553   2.287 -0.2774  0.1259  0.0396
10876W        W27060   7.692   7.346  14.172  0.1724  0.2868  0.0490
10877W        W27061   9.986   3.607  12.932 -0.3010  0.1023 -0.0220
10878W        W27062  12.584   8.834  10.211 -0.1846 -0.3194 -0.1306
10879W        W27063   4.283  18.999  10.467  0.2531  0.1407 -0.0057
10880W        W27064  11.756  13.954   1.790 -0.1441  0.0056  0.2060
10881W        W27065  10.728  18.212   2.067 -0.1456 -0.0763 -0.1700
10882W        W27066  11.585   9.719   9.262  0.0367 -0.2477  0.0581
10883W        W27067  16.486  17.165   2.548 -0.1096  0.3391  0.0832
10884W        W27068   0.871  14.274   0.521 -0.2020  0.2344  0.1275
10885W        W27069   4.275   1.931  12.370 -0.0078 -0.3549  0.0549
10886W        W27070   9.381   0.832   9.915  0.2140  0.1497 -0.0046
10887W        W27071  13.657   7.331  13.260 -0.1522 -0.1709 -0.1094
10888W        W27072   0.141   8.229  10.542 -0.1031  0.0146  0.2114
10889W        W27073   4.230  17.948  12.012 -0.1361 -0.1664 -0.3130
10890W        W27074   4.430  16.369  14.099 -0.1399 -0.1202  0.0813
10891W        W27075  18.674  10.716   5.351 -0.0231 -0.0519  0.0559
10892W        W27076   5.250  10.591   4.053 -0.0649 -0.2696 -0.0320
10893W        W27077   3.252  16.372   5.272 -0.1652  0.2906 -0.0384
10894W        W27078  11.765  15.128  13.118 -0.3079 -0.1814 -0.3492
10895W        W27079  15.422  16.651   4.870  0.1954 -0.2671 -0.0994
10896W        W27080  15.041   5.103  10.642 -0.1595  0.0159  0.0757
10897W        W27081   2.347  11.905   0.858 -0.0420  0.1014 -0.3879
10898W        W27082  17.797  13.137  11.232  0.0383 -0.0765 -0.0224
10899W        W27083  12.765   4.502  13.588  0.0639  0.1876 -0.3455
10900W        W27084   6.739  19.219   1.109  0.1839 -0.0742 -0.0682
10901W        W27085  16.431  16.478  10.881  0.1910 -0.3665 -0.1291
10902W        W27086  19.240   6.513  11.186  0.2822  0.5053 -0.2411
10903W        W27087  17.734  11.433   3.429 -0.0467 -0.0145 -0.1563
10904W        W27088  12.533  18.346  12.801 -0.2716 -0.3962 -0.2548
10905W        W27089  18.111   1.559   5.642 -0.1362 -0.1904 -0.0027
10906W        W27090  11.751  12.322   4.937 -0.0428 -0.0291  0.1836
10907W        W27091   2.118  16.638  12.308  0.0979 -0.1646 -0.2295
10908W        W27092  11.719   8.914  14.596  0.3026  0.0846 -0.0698
10909W        W27093  16.391   4.449  14.527 -0.1796  0.1611  0.0472
10910W        W27094  18.494  14.249   2.212  0.1575 -0.2180 -0.0423
10911W        W27095   8.815   8.268  13.812 -0.0553  0.3146 -0.1174
10912W        W27096   9.734  16.955   2.767 -0.0090  0.1358  0.0870
10913W        W27097   2.190  14.733  11.181  0.0749  0.1816  0.2311
10914W        W27098   7.016   2.495   2.539 -0.0276 -0.0064 -0.1023
10915W        W27099  12.826   8.002  12.398 -0.1425 -0.1266 -0.0193
10916W        W27100  14.060   6.839  14.773  0.2860  0.0471  0.0868
10917W        W27101   6.813  17.406  12.713 -0.1295 -0.2982 -0.0145
10918W        W27102  14.014   9.308  13.530 -0.3369 -0.0843  0.5082
10919W        W27103  16.049   2.515   4.897  0.1930  0.0583 -0.3371
10920W        W27104  14.872   8.345  11.503 -0.2735  0.1212  0.0970
10921W        W27105   2.199  12.810  12.562 -0.4607  0.1976  0.0342
10922W        W27106   5.541   7.832  10.998 -0.1133 -0.0697 -0.1764
10923W        W27107  14.128   8.631  10.915 -0.1537 -0.1663 -0.0402
10924W        W27108  13.986  16.426   2.341 -0.4474 -0.0143 -0.3020
10925W        W27109  10.749   5.347  10.109 -0.0110 -0.0429  0.0254
10926W        W27110  13.940   3.681   2.313  0.0726  0.1551  0.1624
10927W        W27111  13.057   7.675  14.212 -0.0760  0.1384  0.1460
10928W        W27112   5.216   8.097   2.855  0.2913  0.0684  0.0466
10929W        W27113   6.461  10.142   5.066  0.2618 -0.0596  0.1172
10930W        W27114  15.717  15.053   1.057  0.4330  0.1015 -0.2539
10931W        W27115   3.634   7.453   0.343  0.0132  0.0313 -0.4320
10932W        W27116  16.407   5.733  11.044  0.1607 -0.0509 -0.1130
10933W        W27117  17.777  17.915   1.092  0.0275  0.0074  0.1472
10934W        W27118  10.047   2.230   1.094  0.0956 -0.1519 -0.2945
10935W        W27119  11.561   6.886   1.872 -0.1420 -0.1426 -0.0516
10936W        W27120   2.615   9.284   2.692 -0.1796 -0.0093 -0.0788
10937W        W27121   5.788   0.251  11.470 -0.1206 -0.0342 -0.0876
10938W        W27122   1.159   2.808   1.943 -0.3064 -0.2676  0.2889
10939W        W27123   4.334  14.812   0.517  0.0695 -0.1584  0.1139
10940W        W27124   6.284  18.557  10.225 -0.4284 -0.2427 -0.1271
10941W        W27125  13.895  15.247  12.840 -0.0606 -0.1732 -0.2937
10942W        W27126   6.719   2.663  11.957  0.3420  0.1639 -0.1193
10943W        W27127   9.146   6.512   1.440  0.0279  0.3062 -0.0353
10944W        W27128  16.646  13.843   2.770 -0.0286  0.1639 -0.0190
10945W        W27129  18.643   3.731   3.943 -0.0149  0.3752  0.0142
10946W        W27130  11.026   6.057  11.721  0.1349  0.1024 -0.1656
10947W        W27131   2.950   7.417   3.283 -0.0744  0.1001  0.7913
10948W        W27132   5.947  12.342  12.375 -0.3112  0.3339 -0.2153
10949W        W27133  14.154  17.460   3.766  0.0585  0.1091  0.1319
10950W        W27134   0.303   4.296   1.154 -0.1874  0.1390  0.1318
10951W        W27135   8.570   3.485   3.811  0.1950  0.0254 -0.1401
10952W        W27136   8.061   0.902  14.749 -0.3071  0.0635 -0.0216
10953W        W27137   5.232  17.248   2.439  0.0456  0.0002  0.1617
10954W        W27138   5.210  10.426  13.505 -0.0982  0.4077 -0.0396
10955W        W27139   3.770   5.044  13.173  0.2444 -0.2955 -0.4458
10956W        W27140   4.815  10.339  11.759 -0.2028 -0.0609 -0.2333
10957W        W27141  11.187  12.282  11.001 -0.0296 -0.1863  0.0615
10958W        W27142  16.457   9.182  13.257 -0.2768 -0.5731  0.0310
10959W        W27143  13.830  11.990   0.021  0.0635 -0.1717  0.1127
10960W        W27144  11.549   9.694  14.935 -0.0767 -0.1056 -0.2118
10961W        W27145  10.175   2.015   1.527 -0.1278  0.3991 -0.2553
10962W        W27146  16.293   0.753   1.624  0.0818  0.2389 -0.1782
10963W        W27147  12.031  17.161   4.940 -0.0324  0.1541 -0.1040
10964W        W27148  16.420   4.136   3.191  0.0377  0.0665 -0.2736
10965W        W27149   0.296  16.559  11.165  0.0522 -0.1250 -0.2178
10966W        W27150  14.519  17.436  11.233 -0.2005 -0.3441 -0.1354
10967W        W27151  12.233  15.300   0.815 -0.0275 -0.1619  0.1394
10968W        W27152  11.125   9.800  10.762  0.1863 -0.2210 -0.1927
10969W        W27153  11.691   1.575  12.234  0.0961  0.0827 -0.2499
10970W        W27154  16.721   7.348  10.507  0.3135  0.1749 -0.1587
10971W        W27155   6.769   3.454  10.022  0.1282 -0.0075 -0.1583
10972W        W27156  13.434  13.116   1.098 -0.0393 -0.2075  0.0354
10973W        W27157  13.363   0.706  11.362 -0.1468 -0.0273  0.0512
10974W        W27158  17.187  17.789  14.553 -0.0875 -0.0766 -0.2903
10975W        W27159   8.006  11.408  12.416  0.1725 -0.4074 -0.1015
10976W        W27160   3.506  13.058   2.129  0.1418  0.2379  0.0930
10977W        W27161  13.260  14.022  13.718  0.1689  0.0416 -0.4621
10978W        W27162   3.381  11.421   0.043  0.4943 -0.1434 -0.2356
10979W        W27163   3.420   7.587   4.532  0.0242  0.2461 -0.0441
10980W        W27164   7.922  14.378   3.290 -0.0097  0.0136 -0.0418
10981W        W27165  15.962   6.213   4.989 -0.2363  0.0893 -0.0783
10982W        W27166  16.546   5.342   9.112 -0.0650  0.0773 -0.0376
10983W        W27167  19.298  12.943   3.560  0.2550  0.1624 -0.1786
10984W        W27168   9.790   1.037  10.136 -0.0563 -0.0997 -0.0786
10985W        W27169  16.328   3.724  12.379 -0.0600 -0.0773  0.3093
10986W        W27170   4.745  11.019   2.315 -0.1375  0.0580 -0.0248
10987W        W27171  14.019   5.756   4.149  0.0167  0.0917 -0.1294
10988W        W27172   7.040  13.742  12.198  0.2112 -0.0710  0.3687
10989W        W27173  11.194   5.578  10.275  0.1965 -0.1138 -0.1132
10990W        W27174   4.395  10.038  11.602  0.2556 -0.0657  0.1403
10991W        W27175   8.080  12.869  13.937 -0.2429 -0.1598 -0.3378
10992W        W27176   7.036   7.875   3.973  0.0907  0.1134 -0.1468
10993W        W27177  14.797   1.760   2.851  0.3787  0.1017 -0.1462
10994W        W27178   3.399  18.369   4.329 -0.0828 -0.2511 -0.0263
10995W        W27179   4.437  10.680  11.593  0.1173  0.0922  0.0944
10996W        W27180  11.749  14.578   4.850  0.2298 -0.1566  0.2172
10997W        W27181   6.621   9.411  12.200  0.2449  0.3142 -0.1121
10998W        W27182   0.337  11.942  11.381 -0.1664 -0.3358  0.1708
10999W        W27183  10.261  13.463  12.424 -0.1239 -0.0307  0.1022
11000W        W27184  17.185   2.611   4.140  0.0488  0.0044 -0.1969
11001W        W27185  16.371   1.571   3.631 -0.1625 -0.2699 -0.1374
11002W        W27186  13.367  12.766  11.450 -0.1910  0.3010  0.2258
11003W        W27187   0.198   7.965  13.764  0.0899 -0.2462 -0.2475
11004W        W27188  19.050  11.036   2.495  0.0604  0.0800  0.0534
11005W        W27189   2.521   5.020  12.793 -0.1107  0.0215  0.1594
11006W        W27190   1.244  18.942   2.976  0.1268  0.0295  0.0333
11007W        W27191  12.475   8.764  11.153 -0.1071 -0.1850 -0.3819
11008W        W27192   9.343   6.058   2.718 -0.2670  0.2005 -0.0028
11009W        W27193   5.370  11.550   4.132 -0.3232  0.0262 -0.4841
11010W        W27194   0.666   1.931   5.513  0.1274 -0.3141  0.3108
11011W        W27195   0.641  19.264   1.118 -0.0834  0.0457 -0.5055
11012W        W27196   5.374  15.445   9.941  0.0081  0.0009 -0.0348
11013W        W27197  16.450   7.026  13.405  0.3118 -0.1824  0.0062
11014W        W27198   7.618   8.809   3.287  0.1056  0.1786 -0.0122
11015W        W27199   7.393  18.962  12.580  0.0897  0.1278 -0.1470
11016W        W27200   9.572   2.065   0.743  0.1768  0.5041 -0.0620
11017W        W27201  10.443   3.849   1.148  0.2303  0.3421  0.3492
11018W        W27202   0.242  13.551   2.159  0.0313  0.5807 -0.1331
11019W        W27203  17.820  18.607  10.491  0.1898 -0.2377  0.2011
11020W        W27204  12.534  14.462   2.353 -0.1253  0.2540 -0.0561
11021W        W27205   5.359  15.320  11.876 -0.0046  0.2741  0.1490
11022W        W27206   8.275  19.092   4.328  0.1184  0.1075 -0.0550
11023W        W27207   3.033  17.872  11.124 -0.1396 -0.1433 -0.4026
11024W        W27208  18.866  16.337  12.992  0.1052  0.1624  0.3077
11025W        W27209   6.059   4.851  11.805 -0.1419 -0.0646 -0.1476
11026W        W27210   9.567   4.044  14.402 -0.0193 -0.2471  0.0918
11027W        W27211   1.580  10.369   3.229  0.1066  0.2205  0.3001
11028W        W27212   3.144  12.254   3.769 -0.2474  0.0288  0.0984
11029W        W27213   6.048  10.999   4.963  0.0654  0.3610  0.0200
11030W        W27214  12.621   3.024  10.304  0.0363 -0.3109  0.1388
11031W        W27215   2.606   5.991   1.765  0.2767 -0.1199 -0.1144
11032W        W27216   4.627   9.915  14.385  0.0212 -0.1964 -0.2682
11033W        W27217   9.225   1.787   2.749  0.2608 -0.2126 -0.0270
11034W        W27218   8.396  11.905  11.156 -0.0130 -0.2212 -0.1521
11035W        W27219   2.456  17.634  12.971 -0.0344  0.2940  0.0509
11036W        W27220   7.470  11.422  11.145  0.0127 -0.2525 -0.1794
11037W        W27221   0.478  15.008  12.214 -0.1201  0.1838  0.1986
11038W        W27222  17.844   1.033  11.019  0.2332 -0.0603 -0.1296
11039W        W27223   2.060   2.744  12.753 -0.1591 -0.1285  0.2113
11040W        W27224   7.717  19.164   0.155 -0.2273 -0.0233  0.3815
11041W        W27225  11.999  12.311   3.340  0.1415  0.0131 -0.0845
11042W        W27226  11.450  13.148  13.280  0.1512  0.1215  0.0089
11043W        W27227   9.326  15.743  14.349 -0.0890  0.0989  0.1285
11044W        W27228   4.890   5.546   4.963  0.1431  0.2094  0.1715
11045W        W27229   2.067   4.503   4.565  0.1470  0.2769 -0.1804
11046W        W27230  12.817   8.455  12.004  0.0805  0.0139  0.2144
11047W        W27231  10.575   0.362  11.540 -0.3806  0.0349 -0.1905
11048W        W27232  13.323  17.959   1.876 -0.3804  0.0868  0.2762
11049W        W27233  12.404  11.918  13.024 -0.1817  0.1411 -0.0762
11050W        W27234   7.086   8.356   4.089  0.1762  0.2029  0.0237
11051W        W27235  17.599   1.988   0.234 -0.1421  0.1184  0.1175
11052W        W27236   4.736  15.337  14.696  0.0720 -0.0466  0.1046
11053W        W27237   8.933   4.787   2.349  0.0045 -0.3585  0.1543
11054W        W27238  15.348  15.583  13.004  0.0528 -0.2215 -0.0980
11055W        W27239   2.442   8.817   3.572 -0.0474  0.0809  0.1185
11056W        W27240  11.607  11.658   3.717  0.0962 -0.0093 -0.0160
11057W        W27241   0.893  10.000  12.137 -0.1468  0.1302 -0.2240
11058W        W27242   6.638  15.503   4.856  0.1244 -0.1241  0.0527
11059W        W27243  11.957  19.232  13.145 -0.0572  0.3051 -0.1814
11060W        W27244   8.757   4.182  14.479 -0.1166 -0.0834 -0.1414
11061W        W27245  18.325  12.090   0.999  0.1298 -0.0742  0.1835
11062W        W27246   9.750   5.568  13.605 -0.0990  0.0863 -0.2046
11063W        W27247   7.986   1.619   4.614  0.5284 -0.0931  0.1532
11064W        W27248  16.006   6.989  10.718 -0.0560  0.0762 -0.1234
11065W        W27249  19.181  13.815   1.720 -0.1246 -0.0025 -0.4287
11066W        W27250   7.775   8.414   2.232 -0.1355  0.0949  0.1359
11067W        W27251   1.696  18.659  12.636 -0.1104  0.0548  0.1218
11068W        W27252   5.676   5.138   1.595 -0.2289  0.1463  0.2721
11069W        W27253   9.922   7.654   9.628  0.1383  0.3099  0.2887
11070W        W27254  16.753  18.146   1.311 -0.1260 -0.0461  0.2400
11071W        W27255   4.967  11.699   3.030 -0.1136 -0.2577 -0.0969
11072W        W27256   6.364  13.416  13.269 -0.3161 -0.1408  0.0954
11073W        W27257  12.348   8.546   4.553 -0.2602  0.2840  0.1198
11074W        W27258  13.296   6.626  13.725  0.1186 -0.1085  0.2373
11075W        W27259  10.040   5.620  14.216 -0.2726 -0.2178  0.1613
11076W        W27260  15.865   3.674  12.159  0.0478 -0.1122 -0.1912
11077W        W27261  18.878  14.665  14.368 -0.2028  0.0254  0.2440
11078W        W27262  11.613  14.839  10.771  0.0712 -0.5542  0.2281
11079W        W27263  18.948  12.920   9.952  0.1100 -0.0353 -0.3755
11080W        W27264   6.407   6.605  13.337  0.2816  0.0095  0.2223
11081W        W27265   5.062  18.197   1.126 -0.2429  0.0245  0.0182
11082W        W27266   8.655  17.056  13.465  0.0803 -0.2382 -0.3232
11083W        W27267   9.972   3.878  14.644  0.2947 -0.0971  0.1635
11084W        W27268   0.451   8.899   4.574 -0.2031 -0.0634 -0.0401
11085W        W27269  17.944  12.584   4.611 -0.0711  0.0374  0.0409
11086W        W27270   1.386   0.049   2.170 -0.2809  0.1394  0.1789
11087W        W27271  11.245  15.178  12.376 -0.1571  0.0710  0.0059
11088W        W27272  15.051   0.288   2.890  0.1090 -0.1109  0.1856
11089W        W27273  17.882   2.825  10.754  0.0401  0.1756 -0.1585
11090W        W27274  14.795  13.254   3.012  0.0849  0.2210 -0.0445
11091W        W27275   1.889  15.903  12.926  0.0884  0.2067  0.0191
11092W        W27276  16.949  18.733   4.105 -0.2033  0.0821  0.4538
11093W        W27277   0.107  12.043  12.025  0.0369  0.0228  0.0035
11094W        W27278   0.910   6.865   1.162  0.0052 -0.0180 -0.3204
11095W        W27279   0.981  14.959   0.674  0.0056  0.0672  0.1176
11096W        W27280  16.209   6.247   3.948  0.2682  0.1362 -0.0529
11097W        W27281   9.226   2.203  11.831  0.1308  0.0832 -0.0073
11098W        W27282   4.633  18.200  11.717  0.0297 -0.1620  0.1554
11099W        W27283  17.022  16.302   2.444  0.1285  0.2297 -0.1087
11100W        W27284   9.101   7.533   3.550 -0.1406 -0.0027  0.1324
11101W        W27285   7.768  15.193  11.157 -0.1917  0.1206 -0.1455
11102W        W27286   3.456   8.634   2.939 -0.3184  0.0333 -0.3899
11103W        W27287   7.280   5.411  10.136  0.1353  0.1462  0.2700
11104W        W27288   7.217   6.403   0.020 -0.2572  0.1283  0.1273
11105W        W27289  10.587  13.666  13.513 -0.1555  0.0172  0.2288
11106W        W27290  10.565   9.156  14.257  0.1001  0.0931  0.0470
11107W        W27291   6.472   5.364  11.363 -0.0145 -0.0195  0.0703
11108W        W27292  16.604   9.100   4.496 -0.0878  0.2722  0.3498
11109W        W27293  18.582  18.726  13.460 -0.2019 -0.0131  0.0731
11110W        W27294   8.664   8.331  12.222  0.1920 -0.5100 -0.0244
11111W        W27295  10.734  12.859   2.488  0.1001  0.2139  0.0847
11112W        W27296   8.928  16.495  14.620  0.1802 -0.1096 -0.1328
11113W        W27297  15.231   5.550   2.596  0.0744 -0.0348  0.1913
11114W        W27298   1.105  11.532   2.918 -0.2133 -0.0610 -0.1570
11115W        W27299  16.792  18.467  11.570  0.2831  0.2010 -0.1754
11116W        W27300   5.985   9.681  13.099  0.2712 -0.3761  0.1835
11117W        W27301   9.782   6.548  11.175  0.1932  0.2741  0.0460
11118W        W27302   4.374  14.730   1.279  0.1341  0.0770  0.3718
11119W        W27303   6.270  16.716  14.798  0.3912  0.1874 -0.0344
11120W        W27304  10.562   0.645  13.818 -0.0705 -0.0338 -0.2573
11121W        W27305  10.028  11.829   3.420  0.1491  0.1012  0.3255
11122W        W27306  13.856   1.822   2.367  0.2968 -0.0738 -0.1330
11123W        W27307   1.087  12.880   4.746 -0.1513  0.0934  0.1722
11124W        W27308  14.078   0.993   3.530  0.2733 -0.0096 -0.3464
11125W        W27309   4.146  15.512  13.126  0.1611  0.0150 -0.1950
11126W        W27310  15.361  17.648   3.275  0.3163 -0.2351 -0.0142
11127W        W27311  10.735  13.506   4.527  0.2281 -0.0455  0.3676
11128W        W27312  12.315   7.733   1.560  0.1360  0.1266 -0.1193
11129W        W27313  15.296   9.421   4.241 -0.2243 -0.0725  0.1727
11130W        W27314   3.178   9.708   0.357  0.2186 -0.1708 -0.0477
11131W        W27315  15.929  19.160   2.126 -0.1940 -0.1325 -0.0491
11132W        W27316   5.938  13.875  14.147  0.0090 -0.2356  0.2177
11133W        W27317   7.637  16.421  13.186 -0.1118  0.3347 -0.0495
11134W        W27318  14.314  10.292  14.406  0.0444  0.3976  0.3535
11135W        W27319   5.875  15.546   4.460 -0.2246 -0.2411 -0.0181
11136W        W27320  13.194  17.888   5.218  0.0102 -0.0347 -0.1476
11137W        W27321   4.207  17.368   3.483 -0.0142 -0.1783 -0.2868
11138W        W27322   0.469   8.407   0.639  0.0945  0.2826 -0.1346
11139W        W27323   5.578   9.484  12.815 -0.1766 -0.1063  0.0027
11140W        W27324  14.740   0.453  13.487 -0.2138 -0.1643 -0.0841
11141W        W27325   5.413   5.415  14.330  0.3215 -0.1443  0.2575
11142W        W27326  11.342   4.735   0.033 -0.1198  0.0557  0.0151
11143W        W27327   3.980   3.099  10.837 -0.0536 -0.0304  0.3217
11144W        W27328   7.215   3.364  11.230 -0.1857  0.1071  0.1147
11145W        W27329   6.548  10.096  14.588  0.2714 -0.0768 -0.1971
11146W        W27330  18.837  13.006   0.997 -0.0590 -0.4914 -0.1764
11147W        W27331   5.096   7.995  14.379  0.2017 -0.2038 -0.0369
11148W        W27332   0.110  12.141   2.702 -0.2275 -0.0005  0.1227
11149W        W27333  13.994   9.569   1.760  0.0279  0.0789 -0.1341
11150W        W27334   9.318   8.920   0.005 -0.0284 -0.2309  0.2261
11151W        W27335   0.374   6.798   2.247 -0.1465  0.1731  0.0923
11152W        W27336   3.068  16.881   3.917  0.3147  0.1092 -0.1397
11153W        W27337  19.294   9.989   3.491  0.0811 -0.3778 -0.4684
11154W        W27338   6.174  12.974   3.922  0.2555 -0.1123  0.2644
11155W        W27339   7.630  12.128  12.336 -0.0002  0.0778 -0.0057
11156W        W27340  11.197   9.332   4.128  0.1698  0.0736  0.0968
11157W        W27341   5.282   4.419   1.496 -0.0365 -0.0860  0.0379
11158W        W27342   2.758  14.428  13.632  0.2357  0.1130 -0.0301
11159W        W27343   8.611   9.535  11.502  0.1873 -0.1424  0.0868
11160W        W27344  10.588  13.242  14.681 -0.3155 -0.2367  0.0515
11161W        W27345   2.328   3.507  11.682 -0.2362 -0.0120  0.0312
11162W        W27346  12.540   5.279   2.479 -0.1003 -0.0002  0.5645
11163W        W27347  15.464   9.170   0.885  0.0016 -0.0493  0.1622
11164W        W27348   1.194   9.467  14.293  0.4873 -0.0508 -0.0194
11165W        W27349  18.258   8.433   0.118  0.0038 -0.0592 -0.1558
11166W        W27350   3.581   9.672   2.704 -0.1727  0.2489 -0.0624
11167W        W27351   7.549   7.749  10.866  0.1610  0.2006 -0.0000
11168W        W27352  18.714  11.963  12.201  0.3865  0.0497  0.2052
11169W        W27353   1.403   9.685  12.309 -0.0492  0.0198 -0.0085
11170W        W27354  18.832  19.321  12.940  0.2863 -0.1870  0.1577
11171W        W27355   5.700   2.359  12.646  0.3347  0.2455  0.0463
11172W        W27356   3.246  14.841  13.238  0.3722  0.2836 -0.0909
11173W        W27357   2.244  12.380   4.145  0.0176  0.1426  0.0860
11174W        W27358  12.761   5.424  12.699  0.0462  0.3763  0.4581
11175W        W27359  10.506   4.345   3.228  0.2528 -0.0424  0.0891
11176W        W27360   7.478   0.082   3.981 -0.0637  0.4161  0.0616
11177W        W27361   6.154   6.612  13.862  0.0236  0.2421  0.1223
11178W        W27362   3.341  15.510   0.843 -0.0996  0.2134  0.0280
11179W        W27363   8.301   0.614   0.130  0.0036 -0.1435 -0.0914
11180W        W27364   1.877   6.018  13.382  0.1178 -0.3072 -0.2193
11181W        W27365  12.650   3.940   2.029 -0.0898  0.3384  0.1853
11182W        W27366   3.777   6.029   0.852  0.0573  0.0105 -0.2243
11183W        W27367  17.243   6.095   4.524 -0.1849 -0.0556 -0.0801
11184W        W27368  10.994  16.694  11.187 -0.0254  0.0722 -0.0370
11185W        W27369  16.704  13.099   1.405  0.1321  0.1669  0.0036
11186W        W27370   6.417  10.767   2.053  0.1325 -0.1226  0.2227
11187W        W27371   8.756   0.924   1.089 -0.0690  0.1660  0.2690
11188W        W27372  19.256  14.812   1.493 -0.0563  0.1554 -0.3617
11189W        W27373   2.425   3.569  11.094 -0.2166  0.3496 -0.1878
11190W        W27374  16.914   8.208   0.074 -0.3110  0.0570 -0.3183
11191W        W27375  14.904   6.648   1.412  0.0043 -0.1630 -0.1000
11192W        W27376   9.854  17.707  12.404  0.1171 -0.5297  0.1031
11193W        W27377  12.586   9.615  13.130 -0.1764  0.5269  0.3681
11194W        W27378  18.619   7.506  11.829  0.3633  0.1537 -0.5189
11195W        W27379   5.069   5.839  14.410 -0.1251 -0.0762 -0.0542
11196W        W27380   6.679  18.578   3.771  0.0770  0.1112  0.4351
11197W        W27381   4.680  13.830  13.153  0.2444  0.1386 -0.1330
11198W        W27382   8.323  15.411   4.723  0.0614  0.1948  0.1774
11199W        W27383  10.659   3.534  12.866 -0.0375  0.0637  0.1226
11200W        W27384   3.454   3.284  14.535  0.1917 -0.1908  0.1414
11201W        W27385   6.322   7.759  13.091  0.0798  0.2665 -0.1767
11202W        W27386   2.337   9.165   0.071  0.0083 -0.1422  0.1055
11203W        W27387   9.627  16.360   3.427 -0.2094 -0.0020  0.1662
11204W        W27388  12.053   1.605   2.045  0.1928  0.0145 -0.1470
11205W        W27389  16.444  18.555   1.691 -0.3384  0.0517 -0.1603
11206W        W27390  17.746   3.236  13.378  0.2547 -0.0983  0.1908
11207W        W27391   9.604  11.228   5.140  0.0728 -0.3130  0.4292
11208W        W27392   6.536   3.145   1.312  0.1710 -0.2352 -0.3601
11209W        W27393   6.701   8.731  13.653 -0.2174 -0.1595  0.2112
11210W        W27394   3.167   4.399   1.929  0.2358 -0.1181 -0.0486
11211W        W27395  14.553   3.083  11.848 -0.3604 -0.2909 -0.2250
11212W        W27396  14.013   7.005   2.134 -0.1217  0.1020 -0.2031
11213W        W27397  19.206   1.282   5.082 -0.1335  0.0381 -0.1054
11214W        W27398   7.346  12.923  11.101 -0.0278 -0.1688  0.0726
11215W        W27399  17.991   7.859  10.691 -0.0938 -0.4713  0.4528
11216W        W27400   6.128   8.046  12.755  0.0181 -0.1527 -0.0363
11217W        W27401  16.541   6.687   2.217 -0.2543 -0.3709 -0.0294
11218W        W27402  14.772   9.154   4.224 -0.1899 -0.0784 -0.0202
11219W        W27403   8.497   6.012   0.220 -0.0521  0.3669  0.1748
11220W        W27404   4.779   6.424   3.208 -0.0057 -0.0783  0.1574
11221W        W27405  18.347   2.976   3.396  0.2857  0.0688  0.0808
11222W        W27406   0.636   2.332   0.946  0.0157  0.2703  0.0415
11223W        W27407   8.308  12.523   3.523 -0.1464  0.0791 -0.1268
11224W        W27408  17.927  14.830   2.779 -0.0338  0.0460  0.0837
11225W        W27409  15.202  12.980   4.334  0.0379  0.1950  0.1503
11226W        W27410   1.286  19.261  14.917 -0.0546 -0.0367  0.1043
11227W        W27411  11.682   2.970   2.049 -0.0890 -0.1921  0.4590
11228W        W27412  14.813   0.302   5.038 -0.0016 -0.0019  0.0577
11229W        W27413  11.844  11.347   5.433 -0.0852 -0.0222  0.1663
11230W        W27414  17.862   3.031   0.680 -0.0467 -0.3958 -0.0567
11231W        W27415   2.630  17.460   2.512 -0.1331  0.1424  0.2391
11232W        W27416  12.961   7.623   3.614 -0.0700 -0.0934 -0.2801
11233W        W27417   8.064  12.692  13.054  0.0530 -0.1001 -0.1857
11234W        W27418  13.804   0.943  11.155  0.1518 -0.3029 -0.1735
11235W        W27419   5.848   5.984   3.163  0.1065  0.1798 -0.2636
11236W        W27420  15.065   1.886   4.236  0.1706 -0.1108 -0.1196
11237W        W27421  11.622   4.915  13.534 -0.1917 -0.4046  0.0811
11238W        W27422   0.952   0.338   3.535 -0.0615 -0.2692 -0.3200
11239W        W27423   8.872  14.316  14.076  0.1441 -0.0641  0.0636
11240W        W27424   6.213  10.735  14.559  0.2127 -0.0960  0.2967
11241W        W27425  11.276  18.485  14.237 -0.1090  0.0677  0.2182
11242W        W27426  18.064  14.018   0.146  0.2629  0.2216 -0.1230
11243W        W27427  13.168   2.845  14.252  0.3721  0.0328 -0.2046
11244W        W27428   1.614  17.008   4.579 -0.0172  0.1346  0.1145
11245W        W27429  13.416   9.949  11.551  0.0940  0.0178  0.4714
11246W        W27430   6.673  12.038   1.417  0.1914  0.2060 -0.0804
11247W        W27431  12.697   9.323   1.346  0.0730  0.0754  0.3473
11248W        W27432  11.088  13.730   1.229 -0.1366  0.0423  0.0378
11249W        W27433   7.245   8.391  11.667 -0.0183 -0.0959 -0.1288
11250W        W27434  17.144   5.590   4.220  0.0591  0.1713 -0.0859
11251W        W27435  14.251   9.523  14.444  0.1436  0.2523 -0.0394
11252W        W27436   9.087   9.182  11.615 -0.0111 -0.0336 -0.0815
11253W        W27437   8.095  15.114   0.239 -0.1436  0.0277  0.2705
11254W        W27438  19.028   1.045   2.460 -0.5047 -0.0097 -0.1596
11255W        W27439   8.743   1.330   2.970 -0.1361 -0.2361  0.0377
11256W        W27440  14.995  12.685  14.373  0.3553 -0.0623  0.6166
11257W        W27441   8.903   4.637  10.822  0.0857 -0.1682 -0.0635
11258W        W27442  16.995   4.897   2.753  0.1306 -0.0860 -0.2988
11259W        W27443   3.058   3.304   9.295 -0.0335  0.3707 -0.1098
11260W        W27444  15.654   4.361   2.192  0.0347  0.1943  0.2385
11261W        W27445   6.487  18.793   0.355 -0.0130  0.0590  0.4219
11262W        W27446  16.870  11.781   3.526  0.2075  0.0246  0.1110
11263W        W27447  17.444  19.090   2.444 -0.0361  0.1893 -0.1717
11264W        W27448   1.640  14.827   3.424 -0.1974 -0.0284 -0.2432
11265W        W27449  16.337   6.830  11.568  0.0503 -0.3001  0.1962
11266W        W27450  10.735   0.259   3.258  0.2626  0.1795  0.0089
11267W        W27451  12.158  15.161   4.173  0.2088 -0.1380  0.0445
11268W        W27452   8.033   4.763   4.992  0.1228 -0.2585  0.1464
11269W        W27453  11.629  16.275  14.417  0.0906 -0.1700  0.1400
11270W        W27454  17.164  14.047   5.662  0.3981 -0.2049 -0.1077
11271W        W27455  10.398  11.459   4.625  0.2492  0.3672  0.0975
11272W        W27456   0.305   2.055   3.836  0.1661 -0.1279 -0.1554
11273W        W27457  12.844   8.562   3.252 -0.1359 -0.0036 -0.2965
11274W        W27458  12.313  15.989  14.890  0.1068  0.0881 -0.0463
11275W        W27459   4.421  16.767  12.919 -0.2433  0.1900  0.3032
11276W        W27460  14.979   0.195   1.894  0.2493  0.1378 -0.2639
11277W        W27461   0.270   4.640   4.482 -0.0255 -0.0571  0.0336
11278W        W27462   5.345  14.908   0.054  0.0124 -0.2566  0.2025
11279W        W27463  18.229   1.616  13.188  0.0709  0.0946  0.3995
11280W        W27464   4.298   9.606  12.652 -0.0552 -0.3321  0.0897
11281W        W27465   7.878  11.464  10.820  0.0414 -0.0066 -0.0793
11282W        W27466  10.928  12.241   5.092 -0.1242  0.2116  0.1301
11283W        W27467   3.783   3.536  11.126 -0.3547  0.0064 -0.0616
11284W        W27468  17.341   3.385   4.859 -0.1427  0.1659  0.3890
11285W        W27469  10.019  16.920  10.365 -0.0473  0.1143 -0.0311
11286W        W27470   8.207  17.620  11.742  0.2367 -0.2859  0.1649
11287W        W27471  18.882  10.120   0.254 -0.3102  0.0897 -0.1356
11288W        W27472  14.941   0.198   1.385  0.2055 -0.1860  0.3054
11289W        W27473   9.391  18.048   9.433 -0.0019  0.0144  0.1046
11290W        W27474   6.720   9.020   0.595  0.0004  0.0470 -0.4681
11291W        W27475  14.262  12.993   2.349 -0.1575  0.3266  0.0701
11292W        W27476   4.587  13.903  11.403  0.0757 -0.0482 -0.0465
11293W        W27477   6.597   7.749   1.089 -0.1962  0.0366  0.2041
11294W        W27478  18.545  13.937  14.889 -0.0259 -0.0358 -0.2540
11295W        W27479   5.765   1.223  14.341 -0.1389  0.1824  0.0061
11296W        W27480  15.339  13.036   2.856 -0.1729 -0.1329  0.0776
11297W        W27481  16.768   4.269  10.353  0.0310 -0.2558  0.4040
11298W        W27482  14.436   2.626  11.955  0.0053 -0.3833 -0.1533
11299W        W27483  12.013  18.053   2.637 -0.1661  0.2307  0.0273
11300W        W27484   5.458  10.508  10.423  0.0690 -0.3317 -0.1816
11301W        W27485  12.217   6.517   9.191  0.0684  0.0204 -0.0636
11302W        W27486  10.986   7.728   1.408  0.0182 -0.0218  0.0581
11303W        W27487   3.549  10.072   3.753 -0.0327 -0.2172  0.0438
11304W        W27488   5.073   9.348  12.259  0.1443 -0.1153  0.1386
11305W        W27489   4.808  16.077   0.524  0.0414  0.0784  0.1107
11306W        W27490   8.619   0.848  12.083 -0.0462 -0.0301 -0.0916
11307W        W27491  17.117   1.055  12.700 -0.1925  0.2185  0.1901
11308W        W27492   6.398   3.982   3.269 -0.1715 -0.1498  0.3068
11309W        W27493  12.518  11.920  10.614 -0.2044 -0.0855 -0.0976
11310W        W27494  13.027  16.523   3.115 -0.1129  0.1023 -0.0300
11311W        W27495  12.039  17.071   4.399 -0.2069 -0.0572 -0.0320
11312W        W27496  10.187   2.266   4.836 -0.1911  0.2754 -0.1151
11313W        W27497   2.402  15.866   0.888  0.1346 -0.2852 -0.3454
11314W        W27498  13.964  12.736   5.375 -0.0550 -0.5203  0.1339
11315W        W27499  11.499   3.716   3.879 -0.1250 -0.0692  0.0830
11316W        W27500  13.888  11.367  10.185 -0.0992 -0.1276  0.1263
11317W        W27501   9.292   1.700  11.164 -0.2122 -0.3749 -0.1623
11318W        W27502  10.607   7.464   1.630 -0.1718  0.0890 -0.2415
11319W        W27503  14.478   0.189   2.823 -0.0194  0.2360  0.1287
11320W        W27504  17.466  15.012   2.973  0.3476  0.1236 -0.1073
11321W        W27505   2.634  14.463  11.528 -0.1560 -0.0945 -0.1274
11322W        W27506  10.999   0.657  14.085  0.0931  0.0055  0.0217
11323W        W27507   4.030   5.688  10.722  0.0334 -0.2284 -0.1627
11324W        W27508   2.557  14.886   2.516  0.0925  0.3799 -0.0032
11325W        W27509   6.748   4.439  12.779  0.0668  0.0372 -0.0343
11326W        W27510  15.802   5.031   5.309  0.1913  0.2076  0.2052
11327W        W27511  16.317   9.326   3.124  0.0813 -0.0277  0.0177
11328W        W27512  14.002   3.459  14.128  0.1494  0.1085  0.2058
11329W        W27513   0.858   4.519   0.364 -0.0281  0.1440 -0.0089
11330W        W27514  13.517  18.985  12.997 -0.1891 -0.2523 -0.1612
11331W        W27515  13.979  15.502   3.447 -0.2716  0.0344 -0.0312
11332W        W27516  16.663  14.036  13.455  0.0764  0.0665  0.0039
11333W        W27517  19.151   9.474   0.597  0.1022 -0.1517  0.0751
11334W        W27518   7.670   6.391  10.685  0.0540 -0.4129  0.0568
11335W        W27519   2.475   4.417   3.282 -0.1320 -0.0900 -0.1931
11336W        W27520   1.716  10.018   1.269  0.0519 -0.0932  0.0159
11337W        W27521  14.599   1.289   0.123 -0.1245 -0.1525 -0.3000
11338W        W27522   6.582  10.128   2.586  0.0478 -0.2814 -0.4174
11339W        W27523   6.496  11.271  14.920  0.0500  0.1815  0.0501
11340W        W27524   1.005  17.122   4.640  0.0326  0.1231  0.2962
11341W        W27525   9.242   4.736   4.106 -0.1423 -0.3786 -0.3348
11342W        W27526  17.554  14.426  10.870 -0.2919  0.1709 -0.0451
11343W        W27527   8.862  13.501  12.878 -0.1556  0.0557 -0.0969
11344W        W27528  12.837  14.317  12.566  0.1266 -0.0502 -0.1509
11345W        W27529  10.957   1.748  14.859 -0.2434 -0.2026  0.1478
11346W        W27530  15.668  10.058  14.957 -0.1306 -0.1301  0.0486
11347W        W27531   2.679  18.196  12.302 -0.2218 -0.0336 -0.2475
11348W        W27532  16.921  17.736  13.822 -0.1882 -0.2738 -0.1054
11349W        W27533  14.896   2.675   3.791 -0.1057 -0.0817 -0.0345
11350W        W27534  12.219  18.204   5.174  0.1935  0.0356  0.0298
11351W        W27535  11.446   7.661   2.490 -0.0258  0.1368  0.0165
11352W        W27536   8.825   2.384   2.216 -0.1356 -0.0003  0.1477
11353W        W27537  10.091  13.988  14.919 -0.1577 -0.3159 -0.2342
11354W        W27538  16.493  14.115   3.702  0.1839  0.3220 -0.0173
11355W        W27539  19.072   4.173  14.771  0.1951 -0.0759 -0.2057
11356W        W27540  19.331   3.304   1.391 -0.1591  0.1996 -0.3980
11357W        W27541   8.785   4.750  10.319 -0.0170 -0.1369 -0.3104
11358W        W27542  13.590   8.440   3.725 -0.0246 -0.2322 -0.3749
11359W        W27543  11.551  17.976   3.777  0.3130 -0.3705 -0.0582
11360W        W27544   9.853   4.587   0.886  0.1979 -0.2505 -0.3853
11361W        W27545  16.254   9.517  10.752 -0.1093  0.0660  0.3079
11362W        W27546  11.569   3.126  11.370  0.0585 -0.3735  0.0540
11363W        W27547  17.720  10.136   3.115 -0.1183  0.2231 -0.4350
11364W        W27548   9.601   7.629  12.325  0.0432  0.0994 -0.2232
11365W        W27549  10.280   1.909   4.404 -0.0715  0.0515 -0.0405
11366W        W27550   2.354  15.630   1.370  0.0022 -0.0337  0.1395
11367W        W27551   5.549   3.707  12.395 -0.0552 -0.0502  0.0330
11368W        W27552   5.257   2.574  12.963  0.0869 -0.1348  0.1237
11369W        W27553  10.903  13.870  13.071 -0.3568 -0.2435 -0.1499
11370W        W27554  14.205  17.075  10.585 -0.0194 -0.0817  0.3982
11371W        W27555   1.437   8.558   3.598 -0.0830  0.0954  0.0349
11372W        W27556  13.707  14.084   2.716  0.1690 -0.4450 -0.0644
11373W        W27557  15.843   9.826   0.882  0.0719  0.1512  0.1559
11374W        W27558   3.993  15.624  12.501 -0.0128 -0.0282 -0.1955
11375W        W27559  11.824   1.252   0.033 -0.0740  0.3752 -0.0872
11376W        W27560   6.769  15.071  12.065 -0.1151 -0.0524 -0.0422
11377W        W27561   2.470   7.415   5.139  0.0341  0.3537  0.4109
11378W        W27562  17.140   9.035  10.139  0.1071  0.1782 -0.1679
11379W        W27563   7.926   9.975  13.913  0.0065  0.0125  0.0943
11380W        W27564  14.918  15.580   1.274  0.3830  0.1565 -0.0204
11381W        W27565   9.598   2.695   0.484 -0.0103  0.0128  0.2680
11382W        W27566  16.602  17.345  11.385 -0.1237  0.1920 -0.1006
11383W        W27567   1.315   4.464   2.012 -0.1192 -0.1226 -0.0667
11384W        W27568   9.664   6.002  12.372 -0.0768 -0.2528 -0.0829
11385W        W27569   1.922  13.655   2.921 -0.0351 -0.3030 -0.0156
11386W        W27570   7.404   8.455  14.542 -0.1018 -0.2019 -0.0521
11387W        W27571  13.914   2.708  11.684  0.0656 -0.1163 -0.1460
11388W        W27572   7.163  18.438   2.472  0.0172 -0.2879 -0.2007
11389W        W27573   9.225   6.041   1.306 -0.2477  0.2203 -0.0121
11390W        W27574  10.719   6.135   4.537 -0.0021  0.0331  0.1640
11391W        W27575   8.197  14.722   4.344  0.1093  0.0437 -0.1737
11392W        W27576   7.747   4.751  13.526 -0.3521 -0.0281 -0.3003
11393W        W27577  14.423  16.126   0.553  0.0628 -0.4328 -0.2889
11394W        W27578  18.852  11.251   4.731  0.3262 -0.0220  0.2837
11395W        W27579   0.308   0.356  13.003  0.1481  0.4584  0.3329
11396W        W27580   9.017   9.204   1.216 -0.0176 -0.1322 -0.1312
11397W        W27581   6.961   8.604  12.699  0.0312 -0.2400 -0.0889
11398W        W27582  12.409  16.761  14.546  0.0965  0.4699 -0.1634
11399W        W27583  19.127   4.981   2.362 -0.2170 -0.2198  0.4061
11400W        W27584   0.416  11.693  13.669  0.1352  0.1168 -0.1476
11401W        W27585   6.995   9.422   1.528  0.3061 -0.2219 -0.0894
11402W        W27586   3.760   7.552   1.833 -0.2619 -0.1607  0.1008
11403W        W27587  16.328  18.685   3.377  0.2055  0.1054  0.3341
11404W        W27588  17.678  12.383   5.005 -0.0423 -0.0581 -0.0449
11405W        W27589  18.854   0.855  10.838  0.3082  0.1574 -0.0099
11406W        W27590   8.356   3.066  12.008  0.1397  0.0640 -0.0808
11407W        W27591   1.899  11.794   2.164 -0.0389 -0.1118 -0.0570
11408W        W27592   0.734   0.187   6.141 -0.0947 -0.2312  0.2285
11409W        W27593  17.263  12.490   0.348 -0.0537 -0.2639 -0.2004
11410W        W27594   6.210  11.696   1.733  0.2486  0.1450 -0.0070
11411W        W27595   7.406   3.816  11.169  0.2765 -0.1982  0.1671
11412W        W27596   9.122   4.284  10.296  0.0554 -0.2163  0.2227
11413W        W27597   4.516  11.044  14.888 -0.4646  0.0354  0.1127
11414W        W27598   4.849  19.118   2.356  0.1444 -0.2375  0.0834
11415W        W27599   9.797   7.027  13.996 -0.0187 -0.1554 -0.0239
11416W        W27600   3.260  17.059  12.332  0.2488  0.0226  0.1904
11417W        W27601  14.137  13.351  12.289  0.3627 -0.1066  0.2167
11418W        W27602   3.754   0.878   1.252  0.0239 -0.1590 -0.1625
11419W        W27603   9.957   9.150   4.797  0.0350  0.2131  0.0466
11420W        W27604  18.526   2.010   1.367 -0.1084 -0.1171 -0.1229
11421W        W27605   3.188   0.970   0.949 -0.4071  0.3027  0.1242
11422W        W27606   6.564   9.786  11.824 -0.3491  0.3573 -0.0768
11423W        W27607  18.454   1.601   3.122 -0.1500  0.1366  0.0528
11424W        W27608   4.644   4.777   2.879 -0.1981  0.2030 -0.0505
11425W        W27609   8.413  12.608  12.526  0.0493  0.1275 -0.1400
11426W        W27610   9.145  17.111   0.903  0.3199 -0.1422 -0.2244
11427W        W27611  18.706   1.776  13.479  0.1154  0.0587 -0.0530
11428W        W27612  11.102   9.804  12.254  0.0265  0.0342  0.3512
11429W        W27613   1.728  18.677  11.880 -0.0608  0.0348 -0.1870
11430W        W27614  12.263  11.015  10.866  0.1817 -0.0611 -0.1210
11431W        W27615   3.482   3.024  11.176 -0.1628 -0.0565  0.0276
11432W        W27616  15.045   5.624   1.127 -0.0498 -0.0223 -0.0186
11433W        W27617   3.498  11.369   1.051 -0.0877  0.1042 -0.1335
11434W        W27618   0.908   9.744   4.067  0.1975  0.2419 -0.1325
11435W        W27619  13.573   8.203   1.698  0.1657  0.2481 -0.2160
11436W        W27620  15.415  12.606  14.142 -0.0630  0.0521  0.2854
11437W        W27621   0.531   4.133   3.131  0.0293 -0.0666 -0.1095
11438W        W27622   6.174   4.693   3.095 -0.0729 -0.0673 -0.1862
11439W        W27623  18.107   6.045   2.717 -0.0386  0.0238  0.1515
11440W        W27624  13.701  19.382  12.659 -0.1004  0.0616 -0.2831
11441W        W27625   5.137  11.123  12.249 -0.1320 -0.0573  0.1263
11442W        W27626  18.320  18.156  12.549 -0.0390  0.1579  0.0504
11443W        W27627  10.481   7.412   5.400 -0.3357 -0.0963 -0.1976
11444W        W27628  16.760  16.220  13.163 -0.3576 -0.1629  0.0599
11445W        W27629  14.377  14.596   2.081 -0.0292  0.0900  0.2155
11446W        W27630   8.319   7.193   4.735 -0.1459  0.0764 -0.3814
11447W        W27631  16.593  10.103   4.558  0.1311 -0.0634  0.0553
11448W        W27632   8.318  11.729   3.360 -0.1359 -0.3774 -0.0077
11449W        W27633  14.903  18.416  14.934  0.0156 -0.0995  0.3244
11450W        W27634  11.158  11.408   1.017 -0.2177 -0.2310  0.1913
11451W        W27635   8.709   2.508   4.042  0.0122 -0.2787  0.0592
11452W        W27636   1.009   9.043  11.027 -0.1863  0.0597 -0.1177
11453W        W27637   0.145   0.395   4.043  0.0059 -0.0190 -0.1549
11454W        W27638   4.855  18.589   1.321 -0.1746 -0.0099 -0.2664
11455W        W27639   5.331   5.489   9.617 -0.1145 -0.0160  0.1802
11456W        W27640  12.863  15.782   4.101  0.0229 -0.0008 -0.2524
11457W        W27641   3.998  17.186   1.904  0.0220  0.0694 -0.2074
11458W        W27642   5.649   2.783   2.221  0.0223 -0.2052  0.1537
11459W        W27643  18.672   0.319   0.063 -0.2874  0.3249  0.0448
11460W        W27644   9.335  13.990  12.090 -0.0054  0.0303 -0.1748
11461W        W27645   5.631   0.448  12.501  0.3544 -0.2191 -0.1640
11462W        W27646   6.109  12.608  11.855 -0.1604  0.0630  0.2056
11463W        W27647   5.982   5.968   4.731  0.1631  0.0265  0.3098
11464W        W27648   9.105   4.895   3.378  0.3391 -0.0040  0.1093
11465W        W27649  12.142  14.319  13.140  0.1132 -0.0965 -0.0275
11466W        W27650   2.985  18.782  12.199  0.2996 -0.0529 -0.0528
11467W        W27651  10.779   5.586  13.193  0.2380  0.0778 -0.1052
11468W        W27652  17.354  14.693   1.953 -0.1877  0.2422 -0.4398
11469W        W27653  17.799  10.452  14.617 -0.1189  0.0934  0.1583
11470W        W27654   9.619  18.697   1.891 -0.0017 -0.1699  0.2298
11471W        W27655   9.667  11.062   1.603 -0.0395  0.2696 -0.0397
11472W        W27656   9.433  14.873  10.681  0.0773  0.1165 -0.0036
11473W        W27657  15.794  12.500   2.787 -0.1660 -0.2677 -0.0763
11474W        W27658   3.864  12.862  11.475  0.0305 -0.3023  0.1009
11475W        W27659   2.076   5.824  13.742  0.2777  0.0719  0.0060
11476W        W27660   8.154  18.157  11.473 -0.2543  0.0302  0.1010
11477W        W27661  13.182  15.937   2.215 -0.0179  0.3758  0.0817
11478W        W27662   8.176   8.930   3.435  0.0091  0.0461 -0.0501
11479W        W27663   4.750   5.781   0.782 -0.1626 -0.0983  0.3817
11480W        W27664   0.535  14.902   3.468  0.1237  0.0498  0.1089
11481W        W27665  13.102   5.379  13.094  0.0757  0.3166 -0.1718
11482W        W27666  17.196  17.019   4.853 -0.0059  0.3112 -0.1095
11483W        W27667  10.880  18.146  14.231 -0.1668 -0.3665  0.1239
11484W        W27668  16.845   4.735   3.959 -0.3374 -0.0856 -0.0573
11485W        W27669   3.275  11.907   0.123  0.2561 -0.2382 -0.0832
11486W        W27670  11.028  16.238   4.881 -0.1090 -0.0176  0.0218
11487W        W27671  15.572  10.751  13.132  0.0598  0.0684  0.2780
11488W        W27672   3.356  19.235  14.632 -0.0330 -0.3090 -0.3080
11489W        W27673   2.772   2.438  13.823 -0.0944  0.1422 -0.2515
11490W        W27674   1.864  13.242   5.299 -0.0513 -0.3195 -0.0517
11491W        W27675   0.898   9.233  10.240  0.3852 -0.2244 -0.2279
11492W        W27676   4.481  13.212   0.499  0.1280  0.0585 -0.2801
11493W        W27677  16.494  11.075  11.343 -0.0305  0.0351 -0.0623
11494W        W27678  17.159   8.880   1.312  0.2218  0.0615 -0.1244
11495W        W27679  10.419  18.357  11.885  0.4464 -0.0007  0.1995
11496W        W27680  16.045  11.482   2.924  0.4088  0.0170  0.0000
11497W        W27681   7.676  15.226   2.210 -0.2781  0.1895 -0.3507
11498W        W27682   8.049   0.370   4.739  0.0543  0.1569 -0.2802
11499W        W27683   0.433  11.095   1.920  0.0354 -0.0408  0.2008
11500W        W27684  19.281  11.331   2.234  0.1460  0.1994  0.0991
11501W        W27685  11.326  12.177   4.163 -0.1053 -0.2309  0.0993
11502W        W27686   8.579   2.620   4.544  0.1302  0.0288  0.0600
11503W        W27687  18.622  16.092  12.051 -0.3661  0.0437 -0.0510
11504W        W27688  18.267  11.239  14.950 -0.3231 -0.1577  0.3892
11505W        W27689   6.357  17.485  12.070 -0.0387  0.0748 -0.1149
11506W        W27690  18.221   9.306  13.901 -0.3192 -0.2743  0.0968
11507W        W27691   5.303  19.071   2.187  0.0590  0.2193 -0.0986
11508W        W27692   4.512  12.649  12.954  0.1639 -0.0292  0.0866
11509W        W27693  18.144   0.724   1.100 -0.1691  0.1160 -0.0957
11510W        W27694   9.518   2.234   0.264  0.2624  0.0021 -0.5196
11511W        W27695  13.924   7.427   2.542 -0.2316  0.1081 -0.0508
11512W        W27696   1.937   6.858   2.934  0.0029  0.0171 -0.1467
11513W        W27697  19.169  10.697   4.437 -0.0070 -0.4284 -0.0771
11514W        W27698   3.957  10.597  11.683  0.4443  0.0435  0.0438
11515W        W27699   0.965   9.826   3.544  0.1488  0.2719 -0.1722
11516W        W27700   1.779  19.354   4.758 -0.1433  0.2291  0.1457
11517W        W27701  17.999   8.903   1.361 -0.1607  0.0052 -0.1722
11518W        W27702   8.221   2.321  10.932 -0.0485  0.2426 -0.0023
11519W        W27703   2.283   8.902  11.407  0.0947  0.0981 -0.4000
11520W        W27704   9.554   9.864   0.422  0.1259  0.1585  0.3286
11521W        W27705  18.280   8.263  14.438 -0.0046 -0.0910  0.1481
11522W        W27706   4.689   9.924  13.779 -0.0043 -0.1352 -0.4763
11523W        W27707   1.584   4.437   3.868 -0.3983 -0.0811 -0.2123
11524W        W27708  16.640  15.533  13.738 -0.0574  0.3757 -0.1567
11525W        W27709  12.633   9.783   3.024 -0.0044  0.0440  0.1428
11526W        W27710  18.109  10.625  12.544  0.4961 -0.0225  0.2832
11527W        W27711   8.767  15.267   4.945 -0.2084 -0.1343  0.3282
11528W        W27712   7.149   9.769  11.527  0.1561 -0.0267  0.1675
11529W        W27713   4.858  17.534   1.755 -0.2739 -0.0224 -0.0351
11530W        W27714  13.135  11.833  11.202  0.0097  0.2123 -0.1314
11531W        W27715  11.496  17.829  14.866 -0.0191  0.1695 -0.1096
11532W        W27716  15.747  19.322   1.651  0.0854 -0.0503 -0.0651
11533W        W27717  17.678   5.830  13.347  0.0024 -0.1853 -0.1608
11534W        W27718  14.333   0.175   1.445 -0.2381  0.4133 -0.0091
11535W        W27719  12.318   2.741  11.480  0.0255 -0.0236  0.0974
11536W        W27720   4.048  11.216   1.983 -0.1843  0.1977 -0.0772
11537W        W27721   9.920   4.695   4.047  0.0240 -0.2950  0.1188
11538W        W27722  10.023  12.564  11.217  0.2814  0.0236  0.1027
11539W        W27723   8.215  17.357   3.847 -0.0618 -0.5779 -0.0360
11540W        W27724  14.092  12.015   2.254 -0.2343 -0.1399 -0.2147
11541W        W27725  17.234   5.216  14.046  0.0087 -0.3387  0.0523
11542W        W27726  16.875  11.901   4.800 -0.0732  0.3175 -0.2602
11543W        W27727   4.030  14.808  11.545  0.1867  0.2749 -0.0806
11544W        W27728  12.985  12.780   1.786  0.0920 -0.2411  0.2135
11545W        W27729   5.120  17.981  11.881 -0.2661 -0.5953 -0.3849
11546W        W27730   3.465   6.046  11.536  0.0516  0.1239  0.0498
11547W        W27731  19.295   2.887   3.922 -0.3005 -0.0265 -0.0879
11548W        W27732   2.598   7.092  11.097 -0.0825 -0.2983  0.2577
11549W        W27733   3.757  18.958   1.286 -0.1436 -0.0162  0.1681
11550W        W27734   9.661   1.448  11.836  0.1832 -0.3426  0.1722
11551W        W27735  10.720  14.193  14.944  0.3106 -0.1226  0.0815
11552W        W27736   5.758   0.299   4.441  0.2844 -0.0834 -0.0753
11553W        W27737  14.227   9.478  11.846  0.0463  0.0272 -0.2261
11554W        W27738   8.619   8.445  11.774 -0.1146  0.0440  0.3039
11555W        W27739   1.163   2.645   1.092 -0.3689  0.4198 -0.2939
11556W        W27740  12.309  18.811   0.245  0.1003  0.0394 -0.1176
11557W        W27741   6.669   4.074   2.820  0.2890  0.0901  0.2580
11558W        W27742  17.376   0.523  11.607  0.0058 -0.0957  0.2512
11559W        W27743  11.398   8.821  12.634  0.1148  0.3254  0.1060
11560W        W27744   1.667  18.172   4.572 -0.0754  0.1131  0.2039
11561W        W27745  14.850  17.616  14.701 -0.0891 -0.0992  0.0446
11562W        W27746   3.526   9.224   4.708  0.1308  0.0879  0.1139
11563W        W27747   3.971   0.701  12.966  0.0610  0.0979 -0.1785
11564W        W27748  17.847  17.070   2.044 -0.2868  0.0060 -0.1309
11565W        W27749   9.593   0.743   5.040 -0.0434 -0.0054 -0.0315
11566W        W27750  10.858  10.838   1.803 -0.1500 -0.1410  0.0865
11567W        W27751   8.862   4.223   4.812 -0.3955  0.0389 -0.2506
11568W        W27752   3.421   6.684   4.952 -0.0504  0.3961 -0.0870
11569W        W27753   4.970  12.971  12.851  0.2106  0.1774 -0.0116
11570W        W27754   3.053   9.416   4.982  0.1772 -0.0517  0.1833
11571W        W27755  11.097   0.050  13.128 -0.2356 -0.0559  0.0057
11572W        W27756  17.297  15.817  10.599 -0.0314 -0.0334  0.1265
11573W        W27757   6.507  11.853   4.592  0.2101 -0.1320  0.5241
11574W        W27758   6.013   6.184   4.144 -0.0744 -0.1204 -0.0690
11575W        W27759  18.677   0.300   2.832  0.2173 -0.0315  0.1680
11576W        W27760   0.958   7.280   2.616  0.1125  0.0431 -0.1134
11577W        W27761  11.846  18.187  11.744 -0.3296  0.1622  0.2723
11578W        W27762   4.770  16.929   2.522 -0.0196 -0.2024  0.1043
11579W        W27763   1.547   1.524  13.142  0.1906 -0.0259 -0.0951
11580W        W27764  14.666  12.230  11.452  0.1811  0.3200 -0.0099
11581W        W27765   0.627   4.732  12.001  0.1404 -0.1591 -0.4115
11582W        W27766  13.308  17.722   2.642 -0.1594  0.2188 -0.0773
11583W        W27767   6.450  14.407   2.430 -0.3703  0.1077  0.2675
11584W        W27768   1.414   2.659   0.224  0.1191 -0.0841  0.0176
11585W        W27769   6.783  18.996  12.490  0.2068 -0.0578  0.0515
11586W        W27770   9.355  12.456  10.593  0.1396 -0.0762  0.0478
11587W        W27771   8.998   7.551   2.791 -0.0682  0.1592 -0.0786
11588W        W27772   2.456   8.133   4.061  0.2691 -0.0033 -0.0436
11589W        W27773   3.873  18.300   3.353 -0.0745  0.0756  0.0789
11590W        W27774   1.409   5.179   0.732  0.0118 -0.1123 -0.2455
11591W        W27775   1.000  15.846   4.867  0.0670 -0.0247 -0.2056
11592W        W27776  16.043  10.883  12.648  0.0008 -0.2038 -0.0555
11593W        W27777   5.576  12.558  10.984  0.2608  0.0465  0.1478
11594W        W27778   5.210  16.731   4.669  0.1109 -0.0488 -0.0599
11595W        W27779   8.499  11.652  12.280 -0.0259 -0.3808  0.2903
11596W        W27780  17.760   0.509  14.260 -0.1535  0.0758  0.0531
11597W        W27781   1.145   7.992  14.470 -0.0159  0.1087  0.1500
11598W        W27782   0.994   2.983   0.757  0.0549 -0.1102 -0.0497
11599W        W27783  16.059  16.781  14.232  0.2185 -0.1118 -0.3232
11600W        W27784   0.668   4.035   0.301 -0.0807  0.1654  0.1680
11601W        W27785  12.963   5.232   9.599  0.0666 -0.1093 -0.1086
11602W        W27786  10.556  10.809  13.137 -0.2705 -0.2379 -0.1418
11603W        W27787  13.336  12.023  13.497 -0.1220  0.0548  0.1730
11604W        W27788  16.735  18.261  12.385  0.0428  0.1218  0.3007
11605W        W27789   2.619   7.013   0.392  0.3132  0.0959  0.2516
11606W        W27790  15.378  16.452   0.413 -0.2152 -0.4024 -0.1319
11607W        W27791  15.978   1.843   4.268 -0.0220 -0.1962 -0.2157
11608W        W27792   3.354   9.223   1.798 -0.4584  0.1310 -0.1807
11609W        W27793   0.939   5.617  14.515 -0.1843  0.3123  0.0633
11610W        W27794   1.483   8.621   4.880  0.0432 -0.1388  0.3635
11611W        W27795   1.266  19.322   3.611  0.1298  0.0505  0.0910
11612W        W27796  15.749   6.705  12.934  0.0500  0.1246  0.0733
11613W        W27797   0.807  10.255   3.771  0.3604  0.1389  0.2064
11614W        W27798  12.501  15.419  11.210 -0.4381 -0.1861  0.2253
11615W        W27799   9.230   6.076   0.448  0.1318 -0.3230 -0.4246
11616W        W27800  16.682  11.978   0.628 -0.1015  0.0876 -0.2064
11617W        W27801   9.625   4.244  13.518  0.0311  0.2531 -0.1003
11618W        W27802   1.563   1.177   4.605  0.1111 -0.2207 -0.0772
11619W        W27803   0.929   0.267   2.008 -0.1533  0.0516 -0.2302
11620W        W27804  18.986   5.749   2.551  0.0959 -0.0712  0.2466
11621W        W27805   1.101   4.277  12.116  0.1081  0.0053 -0.2539
11622W        W27806  18.665  12.503   0.957 -0.0372  0.0672 -0.0464
11623W        W27807   3.973   3.059  11.311 -0.1673 -0.1433 -0.0946
11624W        W27808  18.207   6.593   1.570  0.0507  0.0540 -0.0648
11625W        W27809   5.070   8.730  11.243  0.1607 -0.4276 -0.4706
11626W        W27810   3.745   4.840  12.035 -0.0938  0.1902 -0.0102
11627W        W27811  16.649   7.819  12.234  0.1367 -0.1576  0.0302
11628W        W27812  10.508   5.520   1.891  0.0202 -0.1720  0.1664
11629W        W27813  16.333   4.624   3.442  0.1065  0.0402  0.2605
11630W        W27814  12.310  19.174  14.205  0.3131  0.0024  0.1223
11631W        W27815  13.886   9.549  14.845 -0.0322 -0.1101 -0.0893
11632W        W27816   7.307  14.474  14.384  0.4264 -0.3525  0.0944
11633W        W27817   7.677  11.741  13.348  0.1226  0.0232  0.1603
11634W        W27818  17.008   4.295   1.932 -0.2745 -0.1415  0.1423
11635W        W27819   6.486   0.391  13.922  0.0640  0.1039  0.0136
11636W        W27820   8.287   3.261   0.426  0.0190 -0.1766 -0.1105
11637W        W27821   0.578   1.966   4.240  0.2772  0.3982 -0.1067
11638W        W27822   0.391  19.234  13.718 -0.0308 -0.3519  0.2534
11639W        W27823  19.095   0.193   5.059 -0.3179  0.0423 -0.3306
11640W        W27824   3.081  12.187   1.390  0.3423 -0.4476 -0.0078
11641W        W27825  16.345  10.598   3.328 -0.0699  0.1833 -0.1584
11642W        W27826   5.571  14.600   2.434 -0.0580  0.0437 -0.1390
11643W        W27827   9.174   8.302   4.446  0.1254  0.2750  0.0973
11644W        W27828   7.948  13.237  11.906 -0.2931  0.1815 -0.2477
11645W        W27829   2.378   4.478   2.735 -0.1167  0.0105  0.4308
11646W        W27830  15.852  15.903   3.645 -0.0766  0.1021 -0.2789
11647W        W27831  10.481   2.211   0.457  0.0780 -0.0939  0.0512
11648W        W27832   7.972  12.593  13.551 -0.2653  0.3363  0.0620
11649W        W27833   8.871   2.173  10.398 -0.0246 -0.1533 -0.0480
11650W        W27834   6.893  10.642  11.666 -0.1936  0.1351  0.0939
11651W        W27835  15.279  13.894   2.398 -0.0304 -0.0995  0.1026
11652W        W27836   1.486   4.667  12.156  0.2020 -0.2228  0.0192
11653W        W27837  10.323   2.063  13.525  0.2551  0.0650  0.0259
11654W        W27838  17.488   0.727   1.954 -0.0624 -0.2105 -0.1623
11655W        W27839  17.530   1.569   2.806  0.0763 -0.1090  0.0744
11656W        W27840  16.465   2.033   0.826  0.0611 -0.2471  0.1381
11657W        W27841   0.195  16.222   2.086  0.0762  0.4778  0.0494
11658W        W27842   1.453   6.821   3.136 -0.4805 -0.2716  0.4120
11659W        W27843   5.102   6.515   9.799 -0.3391 -0.2409  0.3814
11660W        W27844   3.079  14.702   9.601 -0.0778  0.0305  0.1094
11661W        W27845  19.249   9.101  12.269  0.1039 -0.0654 -0.3089
11662W        W27846   7.843   2.904   4.478 -0.3342 -0.2668 -0.0715
11663W        W27847   6.673  14.909   2.376  0.1106  0.3562  0.0634
11664W        W27848  16.289  13.081  14.135 -0.0235  0.2537 -0.4796
11665W        W27849   7.840   7.765   0.904 -0.1176 -0.1593 -0.2176
11666W        W27850   8.859  13.118   3.161 -0.0710 -0.0894  0.0535
11667W        W27851  10.492  14.577   3.962  0.2676  0.0113  0.0865
11668W        W27852   5.858   7.561  13.239 -0.2188 -0.0182  0.2134
11669W        W27853  15.582  10.965   0.293 -0.0543  0.2565  0.0687
11670W        W27854   9.221   9.946  12.121 -0.3831 -0.1298 -0.4653
11671W        W27855  17.602   0.067   1.139  0.1628 -0.0995 -0.0691
11672W        W27856  11.109  13.898  14.793 -0.1902 -0.2947 -0.2544
11673W        W27857   7.533   1.851  11.071  0.0382  0.2413  0.2433
11674W        W27858   4.368   7.288   2.076  0.0012 -0.1323 -0.1830
11675W        W27859   0.261  13.688   2.752  0.1400  0.0272  0.0150
11676W        W27860  13.493   3.922  10.110  0.1551  0.1731  0.1795
11677W        W27861  17.769   2.924   0.094  0.1572 -0.0088 -0.2279
11678W        W27862   0.385   9.161  10.397  0.2177  0.0157  0.0765
11679W        W27863  12.807   8.935   1.733  0.0161  0.1378  0.0979
11680W        W27864   2.991  19.244   4.445  0.1513 -0.2190 -0.3061
11681W        W27865   7.233  14.351  12.117 -0.1374 -0.0924  0.0743
11682W        W27866   8.498  18.263   3.993 -0.2481  0.2580  0.0228
11683W        W27867   7.115   0.100   2.411 -0.1211 -0.1844  0.0680
11684W        W27868   5.795   0.192  14.821 -0.1425  0.0498 -0.1190
11685W        W27869  12.439  15.736   1.562 -0.0858 -0.3954 -0.2040
11686W        W27870   0.443   9.659  12.223  0.0569  0.1374 -0.2718
11687W        W27871   6.097   9.320  13.460  0.0665 -0.0595  0.1174
11688W        W27872   3.167  18.584   0.360  0.0823 -0.1933  0.1272
11689W        W27873  12.154   8.726  14.453 -0.3792  0.0506  0.0701
11690W        W27874   2.106   6.511  13.284 -0.1917 -0.0879 -0.2756
11691W        W27875   3.394  14.300  12.151 -0.2079  0.0536  0.1078
11692W        W27876  14.752  10.914  13.495  0.1752 -0.3032  0.3536
11693W        W27877   1.508   7.742  11.065 -0.1507  0.1963  0.0893
11694W        W27878   2.501  19.276   2.614 -0.1639  0.1511  0.1741
11695W        W27879  10.228  13.879   1.538 -0.1852  0.0255 -0.0828
11696W        W27880   8.272   4.720  13.429  0.1092  0.2727 -0.1563
11697W        W27881   1.450   3.748  11.394  0.0795  0.0307  0.1919
11698W        W27882   8.646   1.050  14.977  0.1200  0.1533  0.0749
11699W        W27883   8.394   1.210  10.776  0.0581  0.2827 -0.1914
11700W        W27884   5.865  13.437  13.189  0.0558 -0.0729 -0.0116
11701W        W27885   9.028  19.139   0.492 -0.1515 -0.2575 -0.4130
11702W        W27886   0.412   9.761  10.769  0.0358  0.3828 -0.0798
11703W        W27887  10.910  16.317  13.404  0.1854 -0.3901  0.1755
11704W        W27888  14.593   4.430  11.468 -0.0736  0.2234  0.1915
11705W        W27889   9.290  18.754   1.385 -0.1218 -0.1368 -0.1331
11706W        W27890  15.100   1.535  11.109 -0.0653  0.1051 -0.1161
11707W        W27891   2.545   9.247  11.092  0.0460 -0.3579 -0.1647
11708W        W27892   0.749   4.619  11.481  0.1304  0.2807 -0.2059
11709W        W27893   5.044  17.756   3.840  0.0910  0.2774 -0.0879
11710W        W27894  10.658  11.742   9.968  0.1447  0.0499  0.4268
11711W        W27895   1.955  14.039  12.547 -0.0779  0.2043  0.0422
11712W        W27896  14.643  15.191  12.292 -0.1140 -0.2610  0.0224
11713W        W27897   5.958  15.058  12.656 -0.2585 -0.0950 -0.1136
11714W        W27898  10.185  11.838   0.680  0.2212 -0.1356  0.2338
11715W        W27899   6.879  15.364  12.435  0.0264  0.0218 -0.0709
11716W        W27900   6.137  11.404  11.690  0.2001  0.2911  0.0158
11717W        W27901  14.852   2.270   2.872 -0.0849  0.1265  0.1684
11718W        W27902  17.085   6.483  13.154  0.0909 -0.0462 -0.0351
11719W        W27903   8.780   4.516   3.197  0.2013  0.0785 -0.1452
11720W        W27904  18.657   1.126  10.458  0.0363  0.1769  0.0621
11721W        W27905  12.149  15.357   1.605 -0.3207  0.1741 -0.1011
11722W        W27906   2.760   9.670   4.145  0.2241 -0.1507 -0.0467
11723W        W27907   6.684  15.940  11.206 -0.0864  0.1663 -0.3372
11724W        W27908   1.927   0.443   1.911 -0.0007 -0.0587  0.1435
11725W        W27909  14.244   1.442   4.287  0.4291  0.3967 -0.1143
11726W        W27910  15.017   8.620   0.706 -0.0387 -0.0748 -0.0502
11727W        W27911  18.307  16.874   0.144  0.0307  0.0285 -0.1679
11728W        W27912  12.524   4.035   2.969  0.1693 -0.1807 -0.0193
11729W        W27913  16.367  17.873   4.636  0.2079 -0.1215  0.1346
11730W        W27914  11.786   1.192   3.323  0.0525  0.3899 -0.2494
11731W        W27915   8.632  16.345   0.426  0.2754 -0.1334  0.1433
11732W        W27916  16.225   4.332   4.160  0.2884  0.0575  0.1936
11733W        W27917   5.212   7.706  11.944  0.0329 -0.2555 -0.1771
11734W        W27918   1.392  17.683   0.740  0.2596 -0.0077 -0.4492
11735W        W27919   9.347  12.520  14.741 -0.2150 -0.0841 -0.0413
11736W        W27920   8.757   1.795  13.173 -0.3085 -0.2404  0.1501
11737W        W27921   0.595   7.060   3.189 -0.3043  0.0662 -0.1827
11738W        W27922   1.560  11.084   2.564 -0.2058  0.0069 -0.2345
11739W        W27923  11.450   0.532  13.664  0.1101  0.3858  0.0587
11740W        W27924  16.453   3.011   1.247 -0.0478 -0.2192 -0.1225
11741W        W27925   7.932  10.421   1.571 -0.0913  0.1289 -0.1934
11742W        W27926   6.862   0.338   1.913  0.1692 -0.1143 -0.0502
11743W        W27927  11.921  14.331   2.943  0.1686  0.1612 -0.4005
11744W        W27928  12.746  14.538   1.900 -0.1776  0.4566 -0.0660
11745W        W27929   9.840   6.458   3.833  0.1004  0.1175 -0.1256
11746W        W27930   9.191   3.095   1.742 -0.3871 -0.2423  0.0350
11747W        W27931  14.704   8.141  13.269  0.1398  0.1074 -0.4582
11748W        W27932   5.351  15.768  14.153 -0.0509  0.0805 -0.4082
11749W        W27933  15.758  10.545   1.717  0.0919 -0.0846 -0.2608
11750W        W27934  12.767  10.173   2.299 -0.2023  0.1141 -0.0614
11751W        W27935   5.351   0.617   4.762 -0.2454 -0.0306 -0.1176
11752W        W27936   1.523  16.158   0.722 -0.0151  0.0508 -0.3329
11753W        W27937  14.728   2.842  11.030  0.2489 -0.0251 -0.1601
11754W        W27938   1.178   9.018   2.023  0.1926 -0.1807 -0.2259
11755W        W27939  17.768   9.322   1.795 -0.1244  0.3138 -0.1435
11756W        W27940  18.279  16.732  12.503  0.1096  0.0703  0.2595
11757W        W27941  11.406  14.443   9.710 -0.1771 -0.1585  0.2923
11758W        W27942  17.984  17.801  12.764  0.3765  0.2173 -0.0199
11759W        W27943   1.632   3.043   2.187  0.3051  0.3023 -0.0452
11760W        W27944  16.095   4.245   0.315  0.0672 -0.0457 -0.2362
11761W        W27945   4.716  16.594   0.674  0.2684  0.1368  0.2476
11762W        W27946   6.434  16.397  11.055 -0.3455  0.0080  0.0616
11763W        W27947  13.462   4.573   2.119 -0.2476 -0.1389  0.0968
11764W        W27948  16.935   2.158   2.986 -0.1456 -0.1433 -0.1535
11765W        W27949   3.817   3.598  14.273  0.1376 -0.2256 -0.1835
11766W        W27950   3.293   5.005   4.204  0.0887  0.1681 -0.1977
11767W        W27951   2.033  17.264   3.150 -0.2297  0.2060  0.0748
11768W        W27952  10.466   9.396  11.342 -0.0618 -0.0566 -0.2868
11769W        W27953  18.962   4.099   3.231  0.3523  0.4256  0.0539
11770W        W27954   8.339  10.840   4.534 -0.3466 -0.2241 -0.0284
11771W        W27955   6.083   7.313  13.576 -0.2438  0.0480 -0.1413
11772W        W27956  14.347  11.917   0.760  0.0554 -0.1156  0.1873
11773W        W27957  15.225   8.187   0.988  0.2567 -0.2868  0.0490
11774W        W27958  18.694  15.679  14.280  0.2025  0.0116  0.1793
11775W        W27959   7.348  17.477   4.021  0.1488 -0.1971  0.2720
11776W        W27960  17.058  18.319  10.951  0.0668 -0.1770  0.1254
11777W        W27961  13.005   1.403   4.979 -0.1331 -0.0921 -0.1461
11778W        W27962  13.371   8.452   4.705 -0.0803  0.2314  0.0346
11779W        W27963   5.603   2.280   2.081  0.0071 -0.0729  0.1778
11780W        W27964  13.305  15.197   1.986 -0.0228 -0.1080 -0.0316
11781W        W27965  11.513   1.946   3.560 -0.2773  0.0975 -0.3734
11782W        W27966   5.311   7.659   0.288 -0.3086 -0.1638  0.3267
11783W        W27967   3.276  16.307  13.250 -0.2293 -0.0403  0.0858
11784W        W27968   7.266   2.000   0.378  0.3149  0.1860  0.1119
11785W        W27969   7.336   2.996  14.175 -0.1120 -0.3110  0.0064
11786W        W27970  19.135  16.378   2.622  0.1850 -0.1462 -0.1446
11787W        W27971   5.169   6.063   1.432 -0.1634 -0.2603 -0.1302
11788W        W27972  14.654   0.280   4.011 -0.4597  0.2986  0.0570
11789W        W27973   0.761   6.144  14.060  0.0635  0.0897  0.2740
11790W        W27974  11.049   6.655   2.046 -0.0374 -0.1719  0.0224
11791W        W27975   4.313   5.290   0.711  0.1539  0.3204  0.1413
11792W        W27976  17.155  14.200  14.272 -0.0652 -0.0481 -0.3425
11793W        W27977   9.159  14.802   0.901  0.1636  0.1162 -0.1236
11794W        W27978  16.594   3.239  14.477 -0.0681 -0.0039 -0.4905
11795W        W27979  11.809   1.904  13.392  0.1433  0.3647  0.0678
11796W        W27980  13.487  11.949   4.615  0.0947 -0.0115  0.1006
11797W        W27981   0.355  11.528  12.685  0.1522 -0.1492  0.0759
11798W        W27982   9.264   3.935  12.408  0.1824  0.1424  0.1511
11799W        W27983  16.710  17.078   5.043  0.0403  0.1340 -0.2705
11800W        W27984  15.623  17.011   5.702  0.1048 -0.0087  0.1087
11801W        W27985  14.063   1.877  13.547 -0.1034  0.1222  0.3224
11802W        W27986   6.243  14.282  14.336  0.2717  0.0458  0.0980
11803W        W27987   6.741   7.864   0.617 -0.0314  0.2239 -0.0259
11804W        W27988   1.399  10.440   4.208  0.0512 -0.1535 -0.1718
11805W        W27989  18.387  10.505   1.827  0.0351  0.0770 -0.0111
11806W        W27990   5.931  15.384   2.269  0.1709 -0.0119 -0.0883
11807W        W27991   5.295  13.698  10.488  0.0598 -0.0536 -0.1722
11808W        W27992  19.187  12.727  10.368  0.0295 -0.1523 -0.1107
11809W        W27993  17.014   0.132  10.741 -0.2277  0.1109 -0.2159
11810W        W27994   0.096   0.098  11.765 -0.0604 -0.2414 -0.3486
11811W        W27995  16.597  15.075  14.310 -0.0927 -0.1539 -0.0477
11812W        W27996   4.062  13.912   3.053  0.1921  0.2277 -0.0732
11813W        W27997  15.359   7.965   1.688  0.0098  0.0556 -0.0814
11814W        W27998   6.497   1.224   1.481  0.1037 -0.1470 -0.1284
11815W        W27999   6.596  12.426   3.022 -0.0148 -0.0057 -0.3163
11816W        W28000   8.974  17.103  13.092 -0.2568  0.0259  0.1632
11817W        W28001  15.822  14.589   4.771  0.4098  0.0547 -0.3938
11818W        W28002  18.518   8.593   0.600  0.0300  0.1764 -0.0123
11819W        W28003   2.686  15.218  14.761  0.0824 -0.2057  0.2664
11820W        W28004   5.113   5.022  10.362 -0.1102  0.0821 -0.0725
11821W        W28005   7.120  13.411  13.830 -0.5434  0.4282  0.2838
11822W        W28006  11.676   7.962   4.832  0.0238  0.2674 -0.0345
11823W        W28007   1.051  11.025  14.413 -0.1253  0.0223 -0.0531
11824W        W28008  16.819   2.608   4.615 -0.0086  0.2017 -0.1408
11825W        W28009  13.347   4.360  13.745  0.1357 -0.2196 -0.0751
11826W        W28010   1.139  14.374  12.881 -0.1188 -0.1846 -0.1590
11827W        W28011  14.653  12.260   1.094 -0.0128 -0.4152 -0.2426
11828W        W28012  12.767   3.416   2.711  0.3986  0.1617 -0.1877
11829W        W28013   1.046  17.007   0.081  0.0863  0.0199  0.1515
11830W        W28014  18.960   1.730   1.546 -0.1290  0.0274 -0.0355
11831W        W28015  17.328  15.348  11.926  0.0291  0.3866  0.3676
11832W        W28016  12.175   1.208  14.345 -0.0021 -0.3967 -0.2142
11833W        W28017  13.191   4.833   9.374  0.5314  0.2698  0.0144
11834W        W28018   8.498  14.955  14.946  0.2117 -0.2600  0.1418
11835W        W28019   4.306  14.616  12.389  0.5183 -0.1611 -0.1073
11836W        W28020  16.686   0.948   0.746  0.1174 -0.1070  0.2229
11837W        W28021  15.835   7.639  12.852 -0.0518  0.0353 -0.1634
11838W        W28022  17.951  18.264   4.454 -0.1179 -0.0768 -0.1282
11839W        W28023  13.366   3.493   3.033  0.1185 -0.0239 -0.2737
11840W        W28024   7.994  11.353   0.343 -0.3363 -0.5426 -0.2150
11841W        W28025  18.004   5.137   4.099 -0.2106 -0.0317 -0.1530
11842W        W28026   6.219   8.281   1.995 -0.0883  0.0175 -0.3284
11843W        W28027  17.399   5.601   2.343  0.1120 -0.1221  0.0377
11844W        W28028   2.466   3.961  11.493 -0.1579 -0.1652 -0.0567
11845W        W28029   5.849   4.056  12.627 -0.1382 -0.0833  0.0293
11846W        W28030  13.486   9.453   3.010  0.0590 -0.0644 -0.2902
11847W        W28031  17.534   7.758  13.717  0.1519  0.0261 -0.0438
11848W        W28032  19.268  19.053  11.401 -0.0300  0.1785  0.2565
11849W        W28033  10.445  10.963  12.699  0.2503  0.1250 -0.0698
11850W        W28034  13.545   9.405   0.923 -0.2590 -0.0471  0.2259
11851W        W28035  13.215   0.465  13.275  0.0260  0.0758 -0.4826
11852W        W28036   9.177   9.908  10.456 -0.0375  0.0382 -0.0343
11853W        W28037  11.013  10.327   5.036  0.3914 -0.0062  0.3291
11854W        W28038  11.102  15.641   1.590 -0.1369  0.1493  0.1451
11855W        W28039   9.861  12.992  11.110 -0.2326  0.1256 -0.1877
11856W        W28040   6.186  16.332   3.857  0.1196  0.0229 -0.0090
11857W        W28041  14.755   5.869  14.420 -0.1297  0.2792 -0.4335
11858W        W28042  17.797   6.101  10.760  0.0141 -0.0213  0.2927
11859W        W28043  18.244  11.743  14.376 -0.1639  0.1982 -0.0222
11860W        W28044  17.380  13.313   5.382  0.3057  0.0047  0.0609
11861W        W28045   2.252  11.665  13.945  0.0841 -0.0030  0.3361
11862W        W28046   4.788  15.398  11.024 -0.1207 -0.0743 -0.1014
11863W        W28047   0.355   3.299  11.704 -0.0932 -0.1987 -0.0759
11864W        W28048  18.387  10.289   5.494 -0.0761 -0.0817 -0.2067
11865W        W28049   5.420  10.901   2.748 -0.2485  0.1431 -0.1387
11866W        W28050  11.277  17.549  12.430 -0.0562 -0.1769 -0.0359
11867W        W28051  11.834  10.052   2.888 -0.1535 -0.0366  0.1637
11868W        W28052  15.501   5.961   2.510 -0.3763 -0.2213 -0.2285
11869W        W28053   7.942  12.568   5.004  0.0864  0.1420  0.1935
11870W        W28054   3.613  18.174  11.188 -0.2837  0.1532  0.1888
11871W        W28055  16.657   3.758  12.753 -0.1532  0.4021  0.1417
11872W        W28056   6.556   3.021   3.491 -0.0861  0.3652  0.0862
11873W        W28057   0.137   3.564   0.880  0.2253  0.1680  0.0203
11874W        W28058  15.883   5.019  12.847 -0.1031 -0.4631  0.0968
11875W        W28059   7.571   8.972  14.928 -0.0641 -0.0102 -0.1440
11876W        W28060  12.766  19.181   1.552  0.0013 -0.2912  0.1689
11877W        W28061  12.526  11.666   4.449 -0.3392 -0.1499 -0.0397
11878W        W28062   0.264  17.923   5.540 -0.1264 -0.1054  0.0730
11879W        W28063  17.627  12.546  14.819  0.0297  0.3386  0.0365
11880W        W28064  14.085   3.068  14.608  0.0805  0.1222  0.0987
11881W        W28065  19.343   4.276   4.039 -0.0759  0.0764  0.1251
11882W        W28066   8.177   8.833  13.398  0.3195 -0.1042 -0.1288
11883W        W28067   7.284  14.306   2.852  0.0544 -0.1071  0.2245
11884W        W28068  15.259   2.627  11.703 -0.1695  0.0411  0.3416
11885W        W28069   7.135   3.896  13.606  0.0093  0.0449 -0.1403
11886W        W28070   0.111  11.626   4.656 -0.0885 -0.2099  0.4911
11887W        W28071   9.860   3.479   2.418  0.0809  0.2464  0.3015
11888W        W28072  17.666  17.921   2.852  0.1067  0.4060 -0.3009
11889W        W28073   0.126   7.469  10.939 -0.2965  0.2346 -0.3399
11890W        W28074   8.306   5.338  11.886  0.0050  0.0837  0.1227
11891W        W28075   8.846  10.924  11.479 -0.1041  0.0694 -0.1678
11892W        W28076  11.128   3.348   0.360  0.1882  0.0817  0.2809
11893W        W28077  15.370  12.066  10.742  0.0070 -0.3425  0.4348
11894W        W28078   3.881  14.019  12.008 -0.0762 -0.2276  0.2220
11895W        W28079  14.963   7.197  13.174  0.1835 -0.1308  0.0346
11896W        W28080   5.229   6.880   5.561  0.0874 -0.0576  0.0876
11897W        W28081   1.982   4.825   2.708 -0.0458 -0.0238  0.0728
11898W        W28082  15.193   2.941  13.906  0.2246 -0.3900  0.0908
11899W        W28083   2.754  13.035   1.628  0.0676  0.1633 -0.0952
11900W        W28084  18.520  10.891  12.452  0.0307  0.0553  0.1124
11901W        W28085  11.060   7.873  13.286 -0.1129  0.0743 -0.0100
11902W        W28086   1.909   8.776   1.405  0.3323  0.0554 -0.0402
11903W        W28087   1.047   0.563   5.551  0.0071 -0.0085 -0.0154
11904W        W28088   3.443  14.988   2.197 -0.0047  0.0145 -0.0280
11905W        W28089   8.200   9.810   4.350 -0.2085 -0.0629 -0.0148
11906W        W28090  17.455  15.087  13.522 -0.0086 -0.0102 -0.0434
11907W        W28091   9.843  16.863  11.358  0.1516 -0.1470 -0.0019
11908W        W28092  14.564   1.072  12.320  0.1696 -0.1111  0.0625
11909W        W28093  10.354   8.173   9.782  0.0039  0.3279 -0.1443
11910W        W28094  16.390   7.213  10.967  0.3799 -0.0702  0.4861
11911W        W28095  12.420  17.593  12.103  0.2662 -0.0329  0.0388
11912W        W28096   3.400  18.542   3.283 -0.2959 -0.1067  0.4035
11913W        W28097   4.403   3.603   0.662 -0.1678  0.2837 -0.0488
11914W        W28098  19.014   8.044  10.460  0.0089  0.1710 -0.1380
11915W        W28099  13.601   5.034   1.217 -0.1529  0.2179 -0.0083
11916W        W28100  14.976  15.581  14.588 -0.0668 -0.0806 -0.0852
11917W        W28101  10.151  14.986  14.026  0.1414  0.2397  0.1771
11918W        W28102   4.067  14.850   3.517  0.2742 -0.1579  0.0472
11919W        W28103  16.283  18.828  14.047  0.2222 -0.0166 -0.0398
11920W        W28104   8.961  11.708   1.875  0.0213  0.1450 -0.3427
11921W        W28105  13.525  16.649  11.646 -0.2762 -0.3225 -0.0089
11922W        W28106   2.589   0.973  11.911 -0.0512 -0.1333 -0.0416
11923W        W28107   8.858  18.080  13.489  0.0571 -0.0797 -0.1009
11924W        W28108  10.852   0.101   4.906 -0.0505 -0.4124 -0.0569
11925W        W28109  12.475  19.041  13.407 -0.1753  0.1632 -0.3143
11926W        W28110  10.683   9.978  14.562 -0.0234 -0.3157  0.0254
11927W        W28111  17.061   1.973   9.749 -0.0437  0.3353 -0.2165
11928W        W28112  16.106  16.365  12.285  0.0688 -0.0942  0.1280
11929W        W28113  13.331   0.711   3.217 -0.1325 -0.1789  0.0023
11930W        W28114   7.444  13.976  11.812 -0.0937 -0.1418  0.0184
11931W        W28115  19.314   3.323   2.249 -0.0407 -0.0918 -0.1209
11932W        W28116  17.285   4.499  12.846 -0.0221  0.0943  0.0045
11933W        W28117  18.143   5.378   1.624 -0.0076  0.3262 -0.0200
11934W        W28118   3.123  19.341   3.632 -0.0796 -0.0403  0.0333
11935W        W28119  11.337  12.602  10.653 -0.0121 -0.0327 -0.0943
11936W        W28120   4.187   0.155   3.563  0.1788  0.0428 -0.2829
11937W        W28121  16.797  13.699   3.669  0.1800 -0.0752 -0.1187
11938W        W28122  10.017   2.547  12.165 -0.1582  0.0629  0.1088
11939W        W28123   8.953   5.847  14.566  0.0521  0.0442  0.2708
11940W        W28124  10.331  16.156   0.864 -0.2138  0.2143 -0.0873
11941W        W28125   0.802   4.123  11.667  0.1777  0.3529 -0.0929
11942W        W28126   9.859   1.809   1.139  0.1558  0.0713  0.3295
11943W        W28127   0.324  15.950   1.071  0.3526  0.2060  0.0783
11944W        W28128   9.463   1.833  11.632  0.0092  0.2512 -0.1460
11945W        W28129  16.138  13.988  10.253 -0.2156  0.0676  0.0797
11946W        W28130   6.301  15.682  10.905 -0.1189  0.3870  0.0906
11947W        W28131   9.553   4.450   3.809 -0.1996 -0.0198  0.1487
11948W        W28132  18.957  11.925  10.836 -0.0978  0.2494  0.0558
11949W        W28133   5.740  18.814  14.881 -0.1057 -0.1086  0.1095
11950W        W28134   8.589  18.791  14.541 -0.1525  0.4365 -0.2003
11951W        W28135   0.090  11.519  11.108 -0.0987 -0.2313  0.1244
11952W        W28136  19.123  14.240   3.749 -0.0437 -0.0571  0.3663
11953W        W28137  12.840   9.335  12.835  0.1631  0.1758  0.1362
11954W        W28138  13.069  12.419  13.808 -0.0669  0.1267  0.0036
11955W        W28139  17.201   3.015  13.241  0.0677 -0.5202  0.2032
11956W        W28140  18.035  17.651   0.629  0.1042  0.0167 -0.3526
11957W        W28141  16.587   2.507   2.818  0.1808 -0.2238 -0.1448
11958W        W28142  12.815  10.194  14.403 -0.1509 -0.2347  0.2178
11959W        W28143  17.478   8.159  14.039 -0.1737 -0.4164 -0.1939
11960W        W28144  13.418  13.730   3.030 -0.1401 -0.4774  0.0681
11961W        W28145   8.277  17.683  13.276 -0.0051 -0.2731 -0.1428
11962W        W28146  18.440   8.567  11.713 -0.0403  0.1773  0.1343
11963W        W28147  16.431   2.602   1.656  0.0420 -0.2055  0.1774
11964W        W28148   5.314   3.371  11.029  0.0893  0.0130 -0.1762
11965W        W28149  19.114  15.909   0.076 -0.0490 -0.2434  0.0904
11966W        W28150  14.562  16.025  11.850  0.0895  0.2151  0.2097
11967W        W28151   4.953  10.636   1.998  0.1532 -0.1046  0.4863
11968W        W28152  12.793  17.973   1.926  0.2396 -0.1373 -0.2013
11969W        W28153   0.895  17.160  11.633  0.1528 -0.1084 -0.4127
11970W        W28154  16.473   9.596   3.713 -0.1829  0.4967  0.2841
11971W        W28155   1.422   0.511   2.041  0.0992  0.1273  0.3402
11972W        W28156  12.724   2.495  14.256 -0.1121  0.0545 -0.1749
11973W        W28157   1.312  13.298   4.487  0.2610 -0.1415  0.1019
11974W        W28158  16.847  18.459   3.290  0.2436 -0.2036  0.0808
11975W        W28159  17.837  16.991   0.002 -0.1729 -0.0499  0.1888
11976W        W28160  17.314  12.435   0.875  0.4566  0.2815 -0.0205
11977W        W28161   6.537   2.691   0.326 -0.1155 -0.1749 -0.0729
11978W        W28162  17.677   4.814   4.370 -0.2703 -0.0279 -0.2265
11979W        W28163   5.547  14.215  12.825 -0.1265 -0.4317 -0.0003
11980W        W28164  11.779  15.963   1.105 -0.0957  0.0602  0.3419
11981W        W28165   5.293  14.701   4.906  0.1068  0.2220  0.0081
11982W        W28166   7.728  13.087  13.459  0.2087 -0.1471  0.1961
11983W        W28167   9.399   3.456   1.957 -0.2389  0.2551  0.4019
11984W        W28168  12.849   3.034  13.044 -0.0921 -0.0053  0.2600
11985W        W28169   4.647  16.139   4.060 -0.1111 -0.1248  0.0015
11986W        W28170   8.876   6.863   1.011  0.1369 -0.1110 -0.2565
11987W        W28171   5.993   8.185  11.303 -0.2040 -0.0839 -0.2167
11988W        W28172   6.497   4.715  10.327  0.1782  0.0244  0.1253
11989W        W28173  14.733  17.016   0.536 -0.2319 -0.0904  0.3604
11990W        W28174   0.270  16.242  11.667 -0.2934  0.0413  0.0820
11991W        W28175  10.127   9.999  13.174 -0.1940  0.0314  0.1426
11992W        W28176   5.944  15.736   0.042 -0.0540  0.1826 -0.1877
11993W        W28177  12.648   8.852  14.537  0.3838  0.0400 -0.1690
11994W        W28178   6.797   4.141   2.352  0.1210 -0.1126  0.1384
11995W        W28179   0.142  10.272   3.938  0.1920  0.0645  0.1541
11996W        W28180  14.908  11.487   3.679 -0.3756 -0.0773 -0.2748
11997W        W28181  10.141   9.048  12.016  0.0282 -0.2136 -0.0548
11998W        W28182   8.074  10.718  14.708 -0.1877 -0.1706  0.2411
11999W        W28183  10.195  10.499   1.434 -0.4201 -0.2585 -0.2099
12000W        W28184   8.914  10.008  13.562 -0.1841 -0.1588  0.1636
12001W        W28185  11.571  13.591  12.585 -0.0313 -0.0515  0.2059
12002W        W28186   0.178  12.395  14.375 -0.1067 -0.0136  0.1305
12003W        W28187   4.886  18.571   4.421 -0.0588  0.1548 -0.0454
12004W        W28188  10.843  13.374   0.945 -0.0374 -0.2734 -0.2101
12005W        W28189   7.916   2.309  14.547 -0.1323  0.1818  0.0169
12006W        W28190   7.402  15.293   4.164 -0.0569 -0.0961 -0.1900
12007W        W28191  16.923   1.267  11.439 -0.0670  0.0428 -0.2149
12008W        W28192  15.899   7.378   3.245  0.1756 -0.3958 -0.1354
12009W        W28193  12.860   9.605   2.356 -0.0467  0.0766 -0.1924
12010W        W28194   8.354  13.430   5.401  0.0280 -0.3566 -0.3583
12011W        W28195   8.914   9.697   0.209  0.1737  0.0218  0.1893
12012W        W28196   7.947  15.532   3.410  0.3088 -0.1429 -0.1282
12013W        W28197  10.838  11.110   4.660 -0.0072 -0.0806  0.2016
12014W        W28198  12.180  15.525  14.027  0.2074  0.1509  0.1283
12015W        W28199  12.566   4.640   1.881 -0.0703  0.2911 -0.1017
12016W        W28200   7.761   5.324   3.990 -0.0003  0.1047 -0.0653
12017W        W28201  11.502   5.241  10.592 -0.1692 -0.0578 -0.3868
12018W        W28202  14.235  11.447   1.226 -0.2085  0.4723 -0.1631
12019W        W28203   7.645  16.698   4.048  0.0708  0.1632 -0.2257
12020W        W28204  11.792  14.218  14.299 -0.0932 -0.1851  0.0780
12021W        W28205  14.539   1.079   3.283  0.2476  0.1600 -0.0686
12022W        W28206   9.976  18.142  11.862  0.2981 -0.1211  0.1841
12023W        W28207   2.279   6.537   5.284  0.1362  0.0271 -0.0568
12024W        W28208  16.006  12.231   0.401 -0.1700  0.5628  0.0811
12025W        W28209  16.732   3.235  13.585  0.1155  0.1310  0.0357
12026W        W28210  11.997   8.628   3.186  0.1293 -0.2381 -0.6327
12027W        W28211  12.913   1.359  12.945 -0.1305  0.2625 -0.0028
12028W        W28212   5.797   5.309   4.020 -0.1996  0.1226  0.3017
12029W        W28213  15.589   7.662   0.684 -0.3768 -0.0813  0.1049
12030W        W28214   6.625   9.927   0.802  0.4344 -0.1445  0.1978
12031W        W28215  11.449   5.452   3.348  0.3015  0.1317 -0.2688
12032W        W28216  18.992  12.977   1.621  0.0468 -0.0434 -0.0415
12033W        W28217   7.776  18.542  12.565  0.1308  0.0983 -0.0879
12034W        W28218   7.974  12.504   1.773 -0.1476 -0.0447  0.1264
12035W        W28219   0.897   3.675  11.472  0.1166 -0.3635  0.0266
12036W        W28220  15.409   4.995  14.014 -0.2851  0.0953 -0.0846
12037W        W28221  19.187  15.608  10.969 -0.2416  0.4276 -0.1680
12038W        W28222  15.313   0.758  14.397 -0.2456  0.1075  0.1450
12039W        W28223   7.287   5.294   1.132  0.0414 -0.0756 -0.2095
12040W        W28224  17.355  15.681  10.076  0.1276  0.1079  0.3236
12041W        W28225   5.518   9.677   0.857 -0.1659  0.1015  0.3179
12042W        W28226  10.092   5.140   3.891  0.2079  0.3559 -0.2111
12043W        W28227  17.805  12.079   0.049  0.0450 -0.0211 -0.2009
12044W        W28228   4.420   5.030  11.674  0.2136 -0.0430  0.3239
12045W        W28229  19.257   8.897  14.951  0.3362  0.0313 -0.1760
12046W        W28230   6.185   6.261  12.142  0.3305 -0.0229 -0.0953
12047W        W28231   9.847   0.244   1.309  0.1429 -0.1007 -0.1307
12048W        W28232  18.575  10.538  10.993  0.0762  0.0344 -0.2707
12049W        W28233   7.294  17.662  12.850 -0.4353 -0.1684 -0.1333
12050W        W28234   2.639  16.342   9.590 -0.1731 -0.0918 -0.0134
12051W        W28235   8.240  14.184  13.977  0.1820  0.0181 -0.2232
12052W        W28236  14.619   6.778   1.056  0.0197  0.0296  0.1243
12053W        W28237   3.419   2.216   1.152 -0.3216  0.0771 -0.3858
12054W        W28238   6.886  14.403   3.209  0.0908  0.1044 -0.0692
12055W        W28239   9.723   6.781   4.493  0.1953  0.3257  0.2131
12056W        W28240  12.070   1.555   4.692  0.0968  0.0055 -0.1675
12057W        W28241   5.693  16.833   0.863 -0.1187 -0.0249 -0.3294
12058W        W28242  12.102   3.157   2.237  0.1732 -0.3056 -0.0806
12059W        W28243  15.181   3.110   3.763  0.4875  0.2290 -0.2023
12060W        W28244   8.659  14.078   2.684  0.0205  0.3609  0.1287
12061W        W28245  19.120  11.506  14.478  0.1277  0.1090  0.1727
12062W        W28246   0.474  17.526   0.822  0.0690 -0.2934 -0.3002
12063W        W28247   3.705  18.322  11.886 -0.2171 -0.2004  0.0842
12064W        W28248   9.404  17.161  14.821  0.0179 -0.3346  0.1248
12065W        W28249  14.981  18.867  12.925 -0.2025 -0.0798  0.0494
12066W        W28250  10.337   9.740   0.434 -0.0379 -0.4319 -0.0625
12067W        W28251   4.176  10.773  10.243  0.2702  0.1964 -0.1121
12068W        W28252   5.705  19.153   5.717  0.0704 -0.0724  0.1779
12069W        W28253   8.089   6.917   3.545 -0.3111  0.0745  0.0910
12070W        W28254  17.615  12.303  11.467 -0.1361  0.1240  0.1878
12071W        W28255  14.102  17.308  10.102 -0.0954 -0.1228  0.0806
12072W        W28256   2.699   9.454  12.614 -0.5521  0.0323 -0.1319
12073W        W28257   7.334  14.041   2.007  0.0174  0.1953  0.0401
12074W        W28258  11.738   3.486   1.144  0.1300  0.2890  0.2896
12075W        W28259  18.100  16.627   0.542  0.2007  0.3406  0.1884
12076W        W28260   2.576   0.171   3.612 -0.2386 -0.1845  0.2419
12077W        W28261  12.703   3.918   1.130  0.1721 -0.1871  0.3376
12078W        W28262  16.017  19.070  14.668 -0.1491 -0.1986  0.1319
12079W        W28263  15.301   3.505   0.909 -0.0196 -0.1443 -0.0707
12080W        W28264  10.929   7.118  12.999 -0.1327 -0.0072  0.0802
12081W        W28265  10.222   0.428   3.426 -0.2852  0.3697  0.1803
12082W        W28266   0.154  18.609   0.297 -0.0874  0.0502  0.0377
12083W        W28267  16.571  11.230  10.359  0.1518 -0.0569 -0.0968
12084W        W28268   2.690  15.358  12.663  0.2460 -0.3040 -0.2533
12085W        W28269   8.262  11.021  14.318  0.0362  0.0003  0.1998
12086W        W28270   1.148  16.278   0.240  0.1962  0.0670  0.2751
12087W        W28271   3.915  14.107   4.832  0.2504  0.1776  0.0114
12088W        W28272   6.508   1.183   1.968  0.2330 -0.4268  0.1247
12089W        W28273  18.327   0.797  12.713 -0.0620 -0.3568  0.1917
12090W        W28274  11.988   0.246   0.894  0.2059  0.3095  0.2660
12091W        W28275   5.613  11.794  13.119 -0.2204  0.2286  0.0021
12092W        W28276  13.999  19.077   3.288 -0.1235 -0.1735 -0.3417
12093W        W28277   4.678  13.265   9.696 -0.1041 -0.0171  0.1202
12094W        W28278   8.198   7.997   0.561  0.0960  0.1048  0.0476
12095W        W28279  17.570  11.899   5.155  0.0255  0.0804 -0.0116
12096W        W28280   9.718   5.260  14.394 -0.0122  0.0251  0.2569
12097W        W28281  10.772   8.052  11.613  0.1527  0.0542 -0.0316
12098W        W28282   7.399  17.195  13.801 -0.0865  0.0216  0.3677
12099W        W28283  17.595   9.106   3.236  0.0561 -0.2015  0.3762
12100W        W28284  11.748  12.636  11.548  0.0443  0.2091 -0.0001
12101W        W28285   5.256   0.565   1.763  0.0904  0.0704  0.3153
12102W        W28286  17.906   2.448  11.096 -0.0852  0.0016 -0.2837
12103W        W28287   7.672   5.404   1.940 -0.0404  0.3269 -0.0587
12104W        W28288  12.375  13.882   1.710 -0.1014 -0.0767  0.1658
12105W        W28289   8.415   6.547  14.664  0.0854  0.0855 -0.0175
12106W        W28290   0.978   7.146  11.321  0.2197  0.2321  0.0019
12107W        W28291  18.049   7.698  11.464 -0.0965  0.0900  0.1217
12108W        W28292   0.834   1.458   4.135 -0.1596  0.2424  0.0486
12109W        W28293   6.308  13.240   0.462  0.0981  0.2339 -0.1442
12110W        W28294  10.755   8.650   0.457  0.2557 -0.1045  0.0098
12111W        W28295  14.986   1.929  10.819  0.0166  0.3507 -0.1163
12112W        W28296   9.755  18.029   3.238  0.4128  0.2308  0.1144
12113W        W28297   8.520   6.738   3.401 -0.4221  0.3099 -0.0158
12114W        W28298   6.943  14.117   2.391 -0.1695 -0.2992  0.2273
12115W        W28299  10.571  14.382   2.305  0.0315  0.0107 -0.2021
12116W        W28300  13.736   5.854   2.456 -0.3086 -0.1361  0.2918
12117W        W28301   6.502  14.924  11.144 -0.2338  0.1152  0.0080
12118W        W28302   7.533  15.633  10.811  0.0852 -0.1793  0.1435
12119W        W28303  11.210  16.321   3.007 -0.2789  0.0946  0.2680
12120W        W28304  15.559   2.111   3.459  0.4010  0.2455  0.0388
12121W        W28305   5.687  10.141  12.167 -0.0246  0.0890  0.0907
12122W        W28306  10.865  11.360  11.924 -0.0447  0.2560 -0.1144
12123W        W28307   4.045  16.579   3.408 -0.2157 -0.1977 -0.0540
12124W        W28308   9.100   0.075   4.501  0.3240  0.0114 -0.3213
12125W        W28309  19.213  12.891  11.696  0.2059 -0.1350 -0.1790
12126W        W28310  18.955   3.724  14.610  0.0276 -0.1361  0.0315
12127W        W28311   7.554  19.358  12.877  0.1462  0.4074  0.0853
12128W        W28312  11.834  17.580  11.530 -0.2842  0.1323 -0.0166
12129W        W28313  19.102  10.351   3.109  0.0880 -0.0489 -0.5072
12130W        W28314  14.138   2.239   4.203 -0.3001 -0.0707 -0.3580
12131W        W28315  15.708  14.873   5.299 -0.0016 -0.0794  0.2635
12132W        W28316   4.091  10.570   3.309 -0.0538 -0.1287  0.0540
12133W        W28317  12.292  17.143  12.280  0.2465 -0.1113  0.1457
12134W        W28318   7.527  12.473   0.873 -0.2186 -0.0827  0.2647
12135W        W28319   9.063  16.058  12.018  0.0012  0.2879 -0.0367
12136W        W28320   1.950  10.162  10.826  0.1532 -0.6427  0.0412
12137W        W28321   9.281   0.777   2.763  0.0071  0.0884  0.0122
12138W        W28322   5.157  18.956   1.122  0.1654  0.0533  0.3960
12139W        W28323  12.524  18.821  11.958 -0.1321 -0.2226 -0.2170
12140W        W28324   3.596  12.153   2.894 -0.5552 -0.0260  0.1967
12141W        W28325  14.635  16.921  14.976 -0.3045  0.1516 -0.3602
12142W        W28326   4.544   4.915  14.339  0.1592  0.2739 -0.0808
12143W        W28327  19.281   4.508  14.326  0.0856  0.1602  0.4524
12144W        W28328  11.849   5.605   3.694  0.2967 -0.1031  0.0081
12145W        W28329  13.670   4.748  13.622  0.1042  0.0230 -0.2732
12146W        W28330   9.431   6.445   4.270 -0.1057 -0.1089 -0.0812
12147W        W28331  10.493  15.350  11.110  0.0223 -0.0494 -0.2036
12148W        W28332   0.459   4.518   4.947 -0.1232  0.0624 -0.0912
12149W        W28333   0.367   7.271  12.382 -0.0914 -0.1824  0.2195
12150W        W28334   9.697   7.409   0.945 -0.2055  0.3999  0.0565
12151W        W28335  13.855  19.282   1.360  0.0737 -0.1443 -0.1814
12152W        W28336  12.303  13.394   2.981 -0.4258  0.1848 -0.1202
12153W        W28337   0.858  14.122  11.291 -0.2256 -0.1414 -0.0408
12154W        W28338   3.922  15.708   1.946 -0.0287  0.2300  0.2126
12155W        W28339   2.270   9.453   4.185  0.0865 -0.0853 -0.3370
12156W        W28340   4.981  10.416   5.666  0.0061 -0.0544  0.1005
12157W        W28341  16.971   7.764   0.402 -0.1496 -0.0335 -0.3611
12158W        W28342   9.133  11.897   1.497 -0.0562  0.2175  0.2251
12159W        W28343   0.610  13.089   4.886 -0.0180 -0.0877  0.1276
12160W        W28344  18.119   8.120  13.081  0.5419  0.0217  0.1596
12161W        W28345  10.015  13.254  14.119  0.0458 -0.1929  0.0863
12162W        W28346  14.518   1.796  10.916 -0.0066 -0.0658  0.0640
12163W        W28347  16.126   1.923  12.332  0.0133 -0.2790 -0.0026
12164W        W28348  16.152  11.518   4.149 -0.1703 -0.0257 -0.2831
12165W        W28349  15.027  14.786  11.210 -0.1203  0.1053 -0.1087
12166W        W28350   0.575  13.551  11.632  0.0526  0.1978 -0.2818
12167W        W28351  16.761  12.722   4.138 -0.0786  0.0689 -0.3236
12168W        W28352  17.677   9.479   4.108 -0.2422  0.4245  0.2673
12169W        W28353  18.977  17.652  13.064 -0.3041  0.1129 -0.1296
12170W        W28354   6.204  16.941  11.244  0.1692  0.1797 -0.3274
12171W        W28355  13.296   4.253   0.764  0.1899 -0.0954 -0.0327
12172W        W28356   8.418   4.356   1.781 -0.0447  0.1893  0.1366
12173W        W28357  13.607   6.928  11.694 -0.0685 -0.0359 -0.0777
12174W        W28358   1.556  17.764  14.508  0.0153  0.0603  0.1676
12175W        W28359  14.457   0.355  13.868 -0.3060 -0.0355 -0.1688
12176W        W28360  11.852  19.162  11.023  0.2362  0.1154  0.0443
12177W        W28361   5.079  14.925  11.956  0.1372 -0.0846  0.0639
12178W        W28362  10.307   5.009   1.939  0.0501 -0.1555 -0.0098
12179W        W28363   3.724  17.517  12.260 -0.0217 -0.1504 -0.0020
12180W        W28364  11.307   7.147  12.610 -0.2754  0.1007  0.0504
12181W        W28365   3.849  10.408  10.499  0.3359 -0.1662 -0.0618
12182W        W28366   4.192  10.278   2.899 -0.1385 -0.2236  0.0050
12183W        W28367   6.770   8.426  11.948  0.1101 -0.0517 -0.0125
12184W        W28368  15.753   3.288   4.675 -0.0743 -0.0422  0.2065
12185W        W28369   8.733  19.109   3.501  0.1480 -0.1618 -0.0701
12186W        W28370  10.073   2.587  12.680  0.0148  0.1900 -0.1139
12187W        W28371   2.157  17.869  13.664 -0.1682  0.2939 -0.1600
12188W        W28372  17.010   3.536  14.923  0.0719 -0.0384  0.0949
12189W        W28373   7.930   7.076  12.703 -0.0603  0.0076  0.0557
12190W        W28374   5.078   7.515   4.140  0.1285 -0.1734  0.0057
12191W        W28375  11.329   3.177   2.923 -0.1964  0.3188  0.0080
12192W        W28376  14.187   4.701  11.582 -0.2543 -0.0108 -0.1258
12193W        W28377  12.202   4.442  14.154  0.0170 -0.0328 -0.3429
12194W        W28378   5.852  19.173   0.757 -0.1696 -0.1287 -0.6445
12195W        W28379  12.328  19.363   1.237  0.1802  0.0083 -0.0012
12196W        W28380  10.097   5.363   1.319 -0.1843 -0.0191  0.2431
12197W        W28381  15.528  10.129   1.521  0.0192 -0.2663 -0.2059
12198W        W28382  15.467   6.902   2.362  0.2577 -0.1381 -0.2723
12199W        W28383   8.382  18.494  10.590  0.1108  0.1253  0.1014
12200W        W28384   5.567   5.751  11.879  0.4094 -0.4013 -0.0311
12201W        W28385   7.252   2.255   3.930  0.3356  0.0358  0.1984
12202W        W28386   7.132   5.091   2.751  0.0483  0.0098  0.2148
12203W        W28387   7.397   9.867   1.574 -0.2382 -0.1198 -0.1721
12204W        W28388  11.613   6.229   4.479 -0.1818  0.0308 -0.0391
12205W        W28389   7.488  13.616   9.508  0.2023 -0.3231  0.2166
12206W        W28390  12.475  13.028  14.021 -0.1903  0.1177  0.1471
12207W        W28391  19.248   4.216  11.746  0.1053 -0.0762  0.0777
12208W        W28392  14.557   2.954   1.246  0.0065  0.1341  0.0463
12209W        W28393   7.730   0.521  12.252  0.0871 -0.0638  0.1779
12210W        W28394  10.409   0.084  11.155 -0.1740  0.0772  0.2707
12211W        W28395  11.749  11.251  13.899 -0.1552 -0.1785 -0.0964
12212W        W28396  10.040   8.066   2.370 -0.1153 -0.0090 -0.3238
12213W        W28397  12.241  19.207   0.681  0.1051 -0.1053 -0.1247
12214W        W28398  12.481  16.013   4.501 -0.1233 -0.1080 -0.0359
12215W        W28399   0.973  10.581   1.296  0.2068 -0.1625 -0.3237
12216W        W28400  14.215  14.807  10.956 -0.1341 -0.2512 -0.1867
12217W        W28401  10.676  10.358   1.623  0.2372 -0.3465 -0.0964
12218W        W28402   6.493   0.597   2.766 -0.1599  0.0382 -0.0665
12219W        W28403  12.173  16.240   2.871 -0.4088 -0.4314 -0.2249
12220W        W28404  13.224  10.358   3.236  0.1540  0.2936  0.2494
12221W        W28405   0.212  15.979   4.573  0.0195  0.2324 -0.0024
12222W        W28406   3.177   2.072  13.480 -0.0412  0.1187  0.1507
12223W        W28407  13.328  15.443  11.260 -0.1673 -0.0902 -0.3556
12224W        W28408  16.096   5.138   0.078 -0.0439 -0.2607 -0.1862
12225W        W28409  13.240   1.494   0.170  0.3094 -0.1295 -0.3443
12226W        W28410  13.378  13.357   3.881  0.0304 -0.0105 -0.1677
12227W        W28411  11.037  10.230  13.680 -0.4949  0.0341  0.0689
12228W        W28412  12.525  16.979   5.244  0.0131 -0.0871 -0.1890
12229W        W28413  14.916  14.000  12.879  0.1774 -0.0259  0.0090
12230W        W28414  13.631   1.247   3.371  0.1435  0.2859  0.1676
12231W        W28415   0.451   9.730   2.780  0.0300 -0.4263 -0.0829
12232W        W28416   8.070   4.933  12.512  0.0646 -0.0262  0.0345
12233W        W28417  10.980  11.867   5.519 -0.0749 -0.3363  0.0669
12234W        W28418  15.739  10.207   2.124  0.0996  0.0294 -0.2577
12235W        W28419  16.098  15.384   4.274  0.3898  0.0969 -0.3298
12236W        W28420   6.270   0.207  12.254 -0.2245 -0.1980 -0.1449
12237W        W28421   6.276  11.032  11.280  0.0432 -0.1705  0.2985
12238W        W28422   0.284  12.890   2.775 -0.0168  0.2134 -0.0980
12239W        W28423  19.045   0.344  13.178 -0.1981  0.0538 -0.1366
12240W        W28424   0.227  15.083  14.943 -0.3708 -0.2728 -0.0502
12241W        W28425   6.180  13.418   0.948  0.3875 -0.1100 -0.1053
12242W        W28426   9.574  15.032   0.746  0.2916 -0.2341 -0.2656
12243W        W28427   9.852  12.763   3.078 -0.3395 -0.1709  0.2977
12244W        W28428  15.681   4.801   0.088  0.2313 -0.3028  0.0260
12245W        W28429  11.624   0.575   2.179 -0.0566 -0.2522  0.1928
12246W        W28430  11.428  16.317   4.022 -0.2215 -0.2318  0.1015
12247W        W28431  11.642   8.401  12.690  0.1488  0.3553  0.1195
12248W        W28432   6.622   7.571  12.181 -0.2542  0.0357 -0.1207
12249W        W28433  11.581  17.107   2.755  0.0390  0.0791 -0.2401
12250W        W28434   9.525  14.269  14.869 -0.1704 -0.0296  0.0492
12251W        W28435  13.444   4.671   0.413  0.2261 -0.3571  0.1904
12252W        W28436   3.119  12.297   4.264 -0.0920  0.2019 -0.3212
12253W        W28437   8.378   3.995   0.912  0.3820  0.2113 -0.2609
12254W        W28438   2.864   3.046   2.170 -0.2981 -0.0155 -0.0955
12255W        W28439  16.945  19.296   2.425  0.2127  0.6219  0.3850
12256W        W28440   8.861   9.963  14.358  0.0618  0.3408 -0.1642
12257W        W28441   7.001  17.717   3.749  0.3520  0.1820 -0.4451
12258W        W28442  12.503  19.234  12.970 -0.2179  0.0166  0.0264
12259W        W28443   9.397   1.195  14.506  0.1680  0.2156  0.0064
12260W        W28444   6.807   7.693  13.085  0.2075 -0.1078  0.2539
12261W        W28445   9.819  14.848   3.946  0.1557  0.0437 -0.1201
12262W        W28446  14.844  14.374   3.636 -0.1935  0.0141  0.0793
12263W        W28447   5.742   4.549   1.876  0.1256 -0.1357  0.3127
12264W        W28448   5.742   8.789   1.358  0.3131 -0.1455 -0.0163
12265W        W28449   0.600   4.485   3.462  0.0166  0.2222 -0.1116
12266W        W28450   0.391   3.815  11.659 -0.3025 -0.1133  0.2228
12267W        W28451   9.322  16.568   2.609 -0.3625  0.2374 -0.6493
12268W        W28452   9.168  15.905   4.227  0.0071  0.1135 -0.0015
12269W        W28453  11.795   6.535   3.562 -0.1360  0.2801  0.2066
12270W        W28454   8.249  17.226  13.814  0.1100 -0.4943  0.2900
12271W        W28455  17.271  12.432  10.828 -0.2987  0.3474  0.2555
12272W        W28456  16.133   3.644  12.996  0.0495  0.0826 -0.0122
12273W        W28457   3.626  15.293   1.210 -0.0396 -0.1041 -0.1365
12274W        W28458  17.058  17.015  10.498 -0.0040  0.3823 -0.0154
12275W        W28459   0.561   5.873  13.703 -0.0466  0.1680 -0.4566
12276W        W28460  19.187   4.038  11.182  0.0351  0.1139  0.0540
12277W        W28461  18.190  14.911  11.489 -0.0180 -0.1050  0.1578
12278W        W28462   6.407   5.333  13.845  0.2290 -0.0966 -0.0801
12279W        W28463  18.679  14.933   3.118 -0.3295 -0.0935  0.3056
12280W        W28464  10.833   1.247  14.809  0.2807  0.0768 -0.0150
12281W        W28465   0.783  11.420  11.893 -0.3204 -0.6867  0.2740
12282W        W28466   2.434   6.722  12.972 -0.2081  0.0448  0.1256
12283W        W28467  14.340  18.730  10.903  0.2180  0.1572 -0.0374
12284W        W28468   7.086  10.542  11.143  0.2079 -0.2307 -0.1528
12285W        W28469  17.438   8.834  10.788 -0.4113 -0.0735  0.2839
12286W        W28470  13.246  12.794   4.529  0.3557  0.1916 -0.3509
12287W        W28471  15.129  13.885   1.427  0.1391 -0.4823 -0.0203
12288W        W28472  19.074   4.531  12.106 -0.2125 -0.0563  0.2627
12289W        W28473   3.152  16.507   0.479 -0.1179 -0.0219 -0.1558
12290W        W28474  15.313  13.277   3.295 -0.1368  0.2850 -0.1206
12291W        W28475   6.601  18.599  14.016  0.1769 -0.2355 -0.0167
12292W        W28476   7.122  12.130   1.653 -0.5097 -0.0682  0.0590
12293W        W28477  16.558  11.884  10.896  0.1614  0.0633  0.0794
12294W        W28478   9.580  17.763  11.982 -0.0930  0.3352  0.0705
12295W        W28479  11.742  14.617  13.137 -0.1863 -0.3740 -0.3234
12296W        W28480   0.137  12.821  14.101 -0.2092 -0.3909 -0.0976
12297W        W28481  10.192   9.662  10.657  0.2592 -0.2049  0.3767
12298W        W28482   2.431  13.193   3.385  0.1405  0.0113 -0.0758
12299W        W28483  14.171   1.269  12.494 -0.0946 -0.0352 -0.1875
12300W        W28484  11.150  17.113  14.209  0.1068  0.0703  0.0952
12301W        W28485  16.776   5.369   0.510 -0.3046 -0.1993 -0.0151
12302W        W28486   5.570  14.027   5.342 -0.1279 -0.0306  0.2245
12303W        W28487   0.132  18.299   2.507  0.0986  0.2498 -0.2004
12304W        W28488   4.081  15.740  10.963 -0.3071 -0.1309  0.1628
12305W        W28489   1.677  11.365   0.419 -0.4216  0.2088  0.1255
12306W        W28490   8.858   7.208   4.675 -0.0932 -0.2701 -0.0582
12307W        W28491  11.184   6.005   4.248 -0.1064  0.2793  0.2654
12308W        W28492  10.366   4.803  10.460  0.1484  0.1919  0.1335
12309W        W28493   9.427   7.278  10.467  0.0975 -0.0994 -0.0095
12310W        W28494   5.231   6.321   1.916 -0.0061  0.2180  0.0790
12311W        W28495  15.124   8.778  10.680 -0.0245  0.2620  0.0914
12312W        W28496   3.338  18.093  13.470  0.2204  0.0554 -0.2653
12313W        W28497  11.693  14.010   3.251 -0.0956 -0.2742  0.1985
12314W        W28498  14.376  15.892  13.836 -0.2022  0.3723  0.3845
12315W        W28499  10.160  12.984   4.207  0.2099 -0.2187 -0.1959
12316W        W28500   1.622   4.594   3.415  0.2646  0.1970  0.2130
12317W        W28501  10.692   6.963   5.262 -0.0611  0.0433  0.1359
12318W        W28502  18.616   3.068   4.378  0.1413  0.4847 -0.2849
12319W        W28503   4.120   5.481  11.370  0.0311 -0.3226 -0.2532
12320W        W28504   3.451   8.210  11.076  0.0753  0.0699 -0.1213
12321W        W28505   8.769   3.236   0.854  0.0286 -0.0309 -0.0617
12322W        W28506  10.681  14.294   1.837 -0.2265 -0.0001 -0.4327
12323W        W28507  16.698   8.279   4.601 -0.3226 -0.2469  0.1747
12324W        W28508   9.679   7.814   1.325 -0.5876 -0.0518  0.0916
12325W        W28509   5.679  19.241  11.218 -0.1892  0.0918  0.1541
12326W        W28510   1.721  18.826   5.711 -0.2448 -0.3304  0.1800
12327W        W28511   5.126   3.129   3.853 -0.4255 -0.2173 -0.1294
12328W        W28512   5.804  15.814   3.315 -0.3037 -0.0930 -0.0586
12329W        W28513   1.642  10.947  12.323 -0.2031 -0.1562  0.1800
12330W        W28514  18.266  19.240   1.821  0.0925 -0.1351  0.0585
12331W        W28515   4.023  14.387  14.797  0.2664 -0.1970 -0.0635
12332W        W28516  12.943   6.203  10.000  0.0930  0.0982 -0.3300
12333W        W28517   4.597  17.267  13.021 -0.2970 -0.1000  0.3292
12334W        W28518  15.647  14.135  10.957  0.0234  0.0036 -0.1408
12335W        W28519  10.792   3.837  14.508 -0.2157 -0.1421  0.0878
12336W        W28520   8.501  16.600   3.738  0.4599 -0.1743 -0.0890
12337W        W28521  19.186  10.090   2.260 -0.4965 -0.5592 -0.3088
12338W        W28522  10.626  18.358  14.741 -0.1345  0.0121  0.0610
12339W        W28523   6.666   1.760   0.243  0.3110  0.1319 -0.2032
12340W        W28524  15.289   5.425   4.252 -0.3322  0.1523  0.1893
12341W        W28525  14.778  11.697   2.340  0.0614 -0.0165  0.0318
12342W        W28526  19.307   2.494   1.781 -0.1037 -0.1240  0.0852
12343W        W28527   1.378   9.924   3.283 -0.0194  0.1503 -0.0038
12344W        W28528   2.728   3.250   4.176  0.0416  0.0979 -0.0080
12345W        W28529  12.015   4.823  10.791  0.1563  0.2535  0.2597
12346W        W28530  17.806  11.661   0.807  0.2412  0.4697  0.0649
12347W        W28531  10.567  10.714   3.255  0.1691 -0.1379 -0.0126
12348W        W28532   5.967   3.177  13.252  0.3632 -0.1736  0.4183
12349W        W28533   5.295  10.325   9.582  0.0492 -0.0605 -0.1290
12350W        W28534   5.409   5.701   2.837 -0.0837  0.2702  0.0806
12351W        W28535   8.257  12.173   2.514  0.3561 -0.2879 -0.0774
12352W        W28536  15.440   2.467  10.370  0.1582 -0.1805 -0.0511
12353W        W28537  15.204   4.493   4.166 -0.0881  0.6070 -0.1799
12354W        W28538   6.113  19.115  12.240 -0.0704 -0.5356  0.0269
12355W        W28539  14.427   3.412   1.382  0.2086 -0.2192  0.2202
12356W        W28540  18.144   4.599  12.297 -0.2189 -0.0774 -0.0606
12357W        W28541  10.182  10.686  11.835 -0.0957  0.0834 -0.1533
12358W        W28542  18.305  12.133   4.389  0.2464 -0.0486 -0.1129
12359W        W28543  10.264  14.241   5.025 -0.0545 -0.1587  0.1144
12360W        W28544  12.886  10.753   0.894  0.1502 -0.0728  0.2743
12361W        W28545   5.402   1.101   9.338 -0.0201 -0.1634  0.2938
12362W        W28546   4.370  17.207   0.773 -0.0750  0.3054 -0.0198
12363W        W28547   9.919  19.047  12.248 -0.0405  0.2416  0.2398
12364W        W28548  14.587  15.522  11.725  0.1342  0.1114 -0.0749
12365W        W28549   7.706  10.514   0.517  0.0433  0.1743  0.1656
12366W        W28550   1.844  11.048   4.551 -0.1338 -0.1565 -0.0891
12367W        W28551   4.660  10.292   2.384 -0.2210  0.3673 -0.0068
12368W        W28552   1.499   9.914   5.181  0.1832  0.0955 -0.0966
12369W        W28553  13.690  11.795   1.950 -0.2497  0.2159 -0.3272
12370W        W28554  16.817   8.029  10.453 -0.0741  0.3699 -0.2085
12371W        W28555  13.082  15.458   4.519  0.0573 -0.2208  0.1523
12372W        W28556  18.892   9.087   4.342 -0.1905  0.2469 -0.3094
12373W        W28557  15.835  16.570  10.945  0.0736 -0.0188 -0.1345
12374W        W28558   8.706   0.471  13.513  0.0496 -0.0335  0.1034
12375W        W28559  13.659   4.988   5.562  0.0627 -0.2600  0.1667
12376W        W28560   1.562  12.518   3.414 -0.1820 -0.0724 -0.1797
12377W        W28561   0.748  13.468   5.314 -0.1656  0.2158  0.2668
12378W        W28562  18.822   8.737   4.763  0.1886 -0.0549  0.2911
12379W        W28563  11.155   4.042   2.090  0.3560 -0.2775  0.0733
12380W        W28564  16.032   9.252   2.612  0.3255 -0.1973 -0.3408
12381W        W28565   2.689  18.315   3.117 -0.0273 -0.4355  0.2957
12382W        W28566   0.384  12.021   3.770  0.2199  0.1432  0.2755
12383W        W28567  13.982  18.392   4.226 -0.1796 -0.0062  0.0869
12384W        W28568  14.472   0.339   0.478  0.3149 -0.2048  0.1462
12385W        W28569  14.890   9.493  14.036  0.1529  0.0330 -0.0027
12386W        W28570   8.637   3.286  11.024 -0.0300  0.1305 -0.0690
12387W        W28571  12.063   4.988   0.578 -0.1081 -0.0433 -0.2517
12388W        W28572   9.638  12.077   1.378  0.0009 -0.1086 -0.4706
12389W        W28573  17.996  17.883  12.187  0.0228 -0.3230  0.0831
12390W        W28574   2.422  17.249  11.666  0.0679 -0.2830  0.0975
12391W        W28575  14.558   0.601  12.150  0.0994  0.2229 -0.1739
12392W        W28576  14.552   9.938  12.569 -0.0222 -0.0082 -0.0324
12393W        W28577  16.737   3.390   0.440  0.4881 -0.3664  0.4347
12394W        W28578  12.048  11.612   0.283 -0.1733  0.2736 -0.0718
12395W        W28579  17.416  12.642  13.029 -0.1043 -0.3921  0.3378
12396W        W28580   5.201   5.697  13.922  0.0345 -0.3839 -0.0659
12397W        W28581   0.855   6.605   2.114  0.1289  0.4393  0.1443
12398W        W28582  17.660  13.377   0.384  0.1180 -0.0172 -0.2653
12399W        W28583  17.964   9.969  11.766  0.2167 -0.0426 -0.2117
12400W        W28584   2.966  15.738  12.501  0.1179  0.2041 -0.0879
12401W        W28585  17.768  13.961  12.561 -0.0673 -0.1310 -0.4506
12402W        W28586   9.746  19.384   0.298 -0.3703 -0.1095 -0.1579
12403W        W28587  13.592   7.535  12.762 -0.1405  0.0682  0.0804
12404W        W28588  11.935  12.886  12.300 -0.0907 -0.3555  0.2196
12405W        W28589  11.697   7.216  12.287  0.0410  0.1107  0.2123
12406W        W28590   2.822  14.083   1.325  0.0456  0.1195  0.0033
12407W        W28591  14.591   2.529  13.319 -0.1293 -0.2124 -0.0897
12408W        W28592  14.833  10.433  12.654  0.0115  0.3698 -0.0997
12409W        W28593   7.424  18.300   0.367 -0.1355  0.1457  0.2414
12410W        W28594   3.256  10.322   2.345 -0.3058  0.1070 -0.1743
12411W        W28595   3.704  13.563  14.372 -0.3130  0.1993 -0.0400
12412W        W28596  10.341  14.008   2.003 -0.0065 -0.1605 -0.1076
12413W        W28597  18.635   4.460  12.369 -0.0243 -0.2603 -0.2906
12414W        W28598  12.498   3.916  10.222 -0.3101  0.0956 -0.0550
12415W        W28599   8.956  11.095   5.195  0.0880  0.0647 -0.3082
12416W        W28600  12.102  12.261   5.289 -0.0962 -0.1534 -0.0323
12417W        W28601   9.371  13.057   4.112  0.2522  0.1251 -0.2540
12418W        W28602   6.533   7.298   5.208  0.0879  0.4814 -0.2203
12419W        W28603   8.830   5.611   4.049 -0.1252 -0.0893 -0.1638
12420W        W28604   3.060   6.813  13.675  0.1846 -0.1112 -0.1238
12421W        W28605  14.372  12.134  13.627  0.1815 -0.1773  0.4006
12422W        W28606  12.146  12.821   4.540 -0.3242 -0.1412  0.0258
12423W        W28607  19.245  16.428   0.280  0.1766 -0.1987  0.4848
12424W        W28608   4.546   9.812   2.623 -0.1029 -0.0971  0.1932
12425W        W28609  11.156  18.180  10.299  0.0924  0.1477  0.2779
12426W        W28610   5.782  12.749  13.934  0.0538 -0.0626 -0.4506
12427W        W28611  19.112  12.800  13.107  0.2574  0.2642 -0.0637
12428W        W28612   1.011  12.583   2.651  0.0063  0.3114 -0.0931
12429W        W28613  17.366   2.175   5.387 -0.3704 -0.0885 -0.0712
12430W        W28614   5.612  11.029  13.253 -0.3418 -0.1267 -0.2480
12431W        W28615  18.319  17.959   4.360 -0.2940 -0.0295  0.3535
12432W        W28616  16.696  12.869   2.687  0.1559 -0.3503  0.4085
12433W        W28617   9.728   1.459  11.320 -0.1095  0.1323 -0.1419
12434W        W28618   1.851  13.972  11.480  0.3006 -0.0118 -0.1090
12435W        W28619  13.393   7.332  11.863 -0.2281 -0.1891 -0.0667
12436W        W28620   6.869  17.436   2.114 -0.2239  0.1833 -0.4826
12437W        W28621   9.705   2.181   4.912 -0.1339 -0.0043 -0.1863
12438W        W28622  18.420  13.337  13.559 -0.5232  0.1858 -0.0758
12439W        W28623  10.149   3.777   4.324 -0.2601 -0.1271  0.1803
12440W        W28624   6.813  10.190  10.824  0.0918 -0.0724  0.1094
12441W        W28625   2.015  17.042  11.996  0.2898  0.0773 -0.0023
12442W        W28626   5.333  13.091  10.471  0.0834  0.0948  0.0449
12443W        W28627   1.478   7.232   1.514  0.0573 -0.1404  0.0002
12444W        W28628   7.578   0.114   4.916  0.4578  0.0597  0.0414
12445W        W28629   9.363   8.806   2.334 -0.0617  0.0718  0.1910
12446W        W28630   3.873  11.509  11.585 -0.1091 -0.2626  0.1585
12447W        W28631   5.054  18.198   2.344 -0.0708  0.0941  0.0145
12448W        W28632   0.354  16.331  12.601 -0.1476 -0.0711  0.1992
12449W        W28633   9.397   2.182  14.338 -0.0843  0.1638 -0.1145
12450W        W28634   3.249  16.069  13.719  0.1966  0.0471 -0.1919
12451W        W28635  15.350  13.728   0.690  0.0984 -0.0038  0.3097
12452W        W28636   0.731  15.433   4.070 -0.0251 -0.3295 -0.2792
12453W        W28637  10.877   1.933   0.712  0.3110 -0.4359 -0.2834
12454W        W28638  18.686  16.980   1.588 -0.2562 -0.0135  0.0676
12455W        W28639  11.359  19.185   1.303 -0.2347  0.0504  0.0117
12456W        W28640   8.985   2.354  13.950  0.1495 -0.0337 -0.0794
12457W        W28641   4.054   4.877   9.950 -0.2529 -0.1285 -0.2536
12458W        W28642  10.893   5.671   1.318 -0.0420  0.2480 -0.0206
12459W        W28643  15.988  14.755   6.076 -0.1669  0.3166  0.0558
12460W        W28644  13.188  13.903  12.317 -0.2799 -0.0127  0.2423
12461W        W28645  10.592  17.886   3.684  0.4303 -0.1365 -0.2820
12462W        W28646  18.626  12.696   1.417  0.0997  0.0526 -0.3294
12463W        W28647  16.392   4.343  11.742 -0.0892 -0.0729 -0.2400
12464W        W28648  18.250  16.000  13.336  0.0943  0.0093 -0.1660
12465W        W28649  18.581  17.714  10.975  0.1926  0.0854 -0.1077
12466W        W28650  16.924  18.991  10.691 -0.0258  0.1035  0.1883
12467W        W28651   0.637  14.395   3.756 -0.2976  0.0794  0.1986
12468W        W28652  14.168   9.048  14.592 -0.0412  0.2496  0.2216
12469W        W28653   7.968   7.205   2.080 -0.1290 -0.1656  0.3246
12470W        W28654  10.405  14.798  12.061 -0.4098 -0.0118  0.3993
12471W        W28655  13.691  17.122  12.820 -0.0184 -0.1483  0.1790
12472W        W28656  11.869  13.513   3.335  0.1494  0.1977  0.0862
12473W        W28657   9.203  15.285   2.068  0.3678 -0.0737 -0.1791
12474W        W28658  10.422  18.454   1.103  0.0180 -0.1692 -0.2930
12475W        W28659   0.793  13.300  13.194  0.0527 -0.0628 -0.0916
12476W        W28660   4.072   3.750   4.641  0.0750  0.3624 -0.4740
12477W        W28661   3.063  17.456   1.689  0.2442  0.3782  0.2533
12478W        W28662  18.154  12.517   1.281 -0.3653  0.0692  0.0657
12479W        W28663   8.889   9.533   3.496 -0.1891  0.0945  0.0292
12480W        W28664   0.260   7.018   4.688  0.0084 -0.0186  0.1097
12481W        W28665   8.998   5.346   2.911 -0.2449 -0.2301  0.4182
12482W        W28666   3.906  16.709  12.832  0.2839  0.1483 -0.1037
12483W        W28667   6.087  19.190   1.183 -0.1570 -0.0337 -0.2000
12484W        W28668  18.090  18.787  13.549  0.3385 -0.3367 -0.3398
12485W        W28669   0.303   9.063   1.817 -0.1418 -0.1128 -0.0710
12486W        W28670   8.487   5.683   0.807 -0.2941  0.1130  0.3284
12487W        W28671  16.779   8.681   0.912 -0.3361  0.0116  0.0418
12488W        W28672   1.268   7.952   0.795 -0.1146 -0.1422 -0.3565
12489W        W28673   6.328  17.373  12.730 -0.2014 -0.1273 -0.0702
12490W        W28674  14.733  10.802   2.486  0.2663 -0.1639  0.1188
12491W        W28675   1.355   1.538  11.411 -0.2600 -0.2655 -0.1369
12492W        W28676   7.882   7.620  12.375 -0.0462 -0.5210  0.0451
12493W        W28677  16.842  17.998   3.360  0.0271  0.0704  0.1527
12494W        W28678  14.641  17.596  13.793 -0.1790 -0.3100 -0.1070
12495W        W28679   3.947   5.049   8.946  0.0320 -0.0343 -0.0579
12496W        W28680   9.617  16.362  10.992  0.1519  0.1019 -0.1707
12497W        W28681   5.271   6.545   3.194 -0.0601 -0.0053  0.3417
12498W        W28682  16.362   2.897   3.932 -0.1457 -0.2342 -0.0490
12499W        W28683   9.657  13.131   3.380 -0.1347  0.0456 -0.1132
12500W        W28684   5.225  12.629  11.698  0.0959  0.1974  0.1461
12501W        W28685  13.688   5.182  11.369 -0.0095 -0.0067  0.0778
12502W        W28686  10.773   1.679   1.847  0.2607 -0.0124  0.2546
12503W        W28687  11.177  18.498  12.074 -0.0394 -0.0203 -0.1932
12504W        W28688   3.666   2.757  13.719 -0.4926 -0.0548 -0.0643
12505W        W28689  10.016   0.569   4.800  0.2028 -0.3355 -0.0353
12506W        W28690   6.062   6.470   9.686 -0.0998  0.0870  0.0219
12507W        W28691  14.920  13.996  10.250 -0.0807 -0.0137  0.0902
12508W        W28692   3.607  14.758  11.190 -0.4210  0.0511  0.1789
12509W        W28693   9.352  16.656   1.538 -0.2826 -0.0469  0.0565
12510W        W28694   2.140   9.597  11.506 -0.3127 -0.0657 -0.0949
12511W        W28695  14.183   3.489  12.864  0.0399  0.0041  0.1570
12512W        W28696  10.882  18.336  11.715 -0.0024  0.1897 -0.0582
12513W        W28697  14.456   1.387  14.016  0.0799  0.2602  0.2412
12514W        W28698   6.740  16.817   1.761  0.0643  0.1051  0.0576
12515W        W28699   7.196   2.960   2.621 -0.2340  0.0157  0.0657
12516W        W28700   7.883  10.233  14.554  0.1639 -0.1075 -0.1396
12517W        W28701  15.400  10.363  12.174 -0.1513 -0.0060 -0.2539
12518W        W28702  12.437   5.778   1.679 -0.3466  0.1443 -0.0662
12519W        W28703   7.188   6.580   3.188  0.0858 -0.2213 -0.0154
12520W        W28704   8.547  18.054  11.882  0.2410 -0.1413 -0.1327
12521W        W28705  16.637   4.089   1.032 -0.0488 -0.1598  0.2040
12522W        W28706  15.575  18.767   3.943  0.0718  0.0493  0.1107
12523W        W28707  10.308   6.520  12.031 -0.1245 -0.0643  0.0774
12524W        W28708  18.544   0.579  10.471 -0.3351 -0.0291 -0.3180
12525W        W28709   5.846   6.683   9.246  0.1437  0.1671  0.1042
12526W        W28710  12.472  14.805   1.339 -0.3297 -0.0304 -0.0763
12527W        W28711   6.657   9.657  11.364 -0.0886  0.0972  0.4603
12528W        W28712  10.319  13.459  13.107  0.1869  0.1652 -0.3267
12529W        W28713  10.040  14.295  12.772  0.1105 -0.2420  0.4571
12530W        W28714  17.282  18.178   1.099  0.2504 -0.2972  0.2209
12531W        W28715  11.948  15.860   2.707 -0.0702 -0.3447  0.1464
12532W        W28716   5.726   9.711   9.919  0.0949  0.3613  0.0795
12533W        W28717   6.656  13.919   4.616  0.0790 -0.3233  0.1987
12534W        W28718  17.630   1.125   3.612 -0.0002 -0.0615  0.1903
12535W        W28719  18.718  13.911   1.385 -0.0972  0.3384 -0.3568
12536W        W28720  15.642   9.665  13.369 -0.0322  0.1092 -0.1533
12537W        W28721  11.590  18.057  14.388 -0.0715  0.2823 -0.0931
12538W        W28722   4.226  15.267  11.624 -0.1886  0.2410 -0.2433
12539W        W28723   2.855   6.197   2.522  0.1507  0.0899 -0.2595
12540W        W28724   5.491  10.993  12.684 -0.3222  0.0048  0.0958
12541W        W28725   1.709  16.936   1.279 -0.2764 -0.0714 -0.0314
12542W        W28726   7.477  11.190   1.693 -0.0164  0.0903 -0.1497
12543W        W28727  11.718  10.551   2.172 -0.2381 -0.0602  0.0672
12544W        W28728  17.354   7.079   3.098 -0.0200  0.0126  0.0393
12545W        W28729   8.164  13.260  13.037  0.0248 -0.0143  0.0736
12546W        W28730   7.264  10.359   1.955 -0.1542  0.0995  0.2131
12547W        W28731   2.828   1.667   3.264 -0.1560  0.0050  0.3547
12548W        W28732   4.172  12.853   0.570 -0.1478  0.1571  0.2125
12549W        W28733   5.382  15.407  13.862  0.1067 -0.2921 -0.1050
12550W        W28734   5.088  11.186  11.670 -0.3693  0.2440  0.1814
12551W        W28735   3.674   3.329   2.303 -0.5664  0.0079 -0.1015
12552W        W28736   0.777  16.078  13.559  0.1125 -0.2170 -0.0708
12553W        W28737   8.511  12.829  14.257  0.1392  0.1573  0.1260
12554W        W28738  16.435  16.189   1.389 -0.4573  0.1679  0.1626
12555W        W28739  13.054  14.745   3.821  0.2803 -0.0700 -0.0564
12556W        W28740  10.679   1.759   5.364 -0.2457  0.0784 -0.2747
12557W        W28741   1.450  16.053   3.588 -0.1506 -0.0347 -0.0649
12558W        W28742  12.004   2.380  12.723  0.1757  0.0688 -0.0684
12559W        W28743   7.463  17.005   3.757  0.1022  0.1036 -0.1257
12560W        W28744   3.121   9.780  12.222 -0.0381  0.0399  0.1514
12561W        W28745   9.945   9.298  11.373  0.1194 -0.2150  0.1270
12562W        W28746  16.296   2.645  13.070 -0.0333 -0.1053 -0.1780
12563W        W28747   6.567  19.075  13.823 -0.1031  0.0621 -0.1043
12564W        W28748   1.750  13.277   4.243  0.1210 -0.1023 -0.0285
12565W        W28749  11.855   9.457  13.258  0.0886 -0.0313  0.0190
12566W        W28750   0.435   9.799   3.820 -0.0671 -0.0979 -0.1416
12567W        W28751  18.015   6.100   3.893 -0.2505  0.1366 -0.3487
12568W        W28752   4.463   7.776  11.936  0.6224 -0.1706 -0.3543
12569W        W28753   6.079   2.690   0.649 -0.0168  0.2424 -0.0810
12570W        W28754  18.510   6.259  12.843 -0.3669 -0.3438 -0.3617
12571W        W28755   3.700  16.280   3.250 -0.1284  0.0488 -0.0582
12572W        W28756   7.614  17.725   2.110 -0.3078  0.0621  0.1319
12573W        W28757   9.421   8.322   3.945  0.2008 -0.2697 -0.0125
12574W        W28758   7.389   5.446   2.942 -0.1597  0.2056  0.2690
12575W        W28759   2.146  16.259  10.608 -0.1373  0.3203  0.1372
12576W        W28760  16.485   6.937   0.626  0.3092 -0.4047  0.0980
12577W        W28761   3.364  15.462  10.270  0.1879  0.1625 -0.2576
12578W        W28762   0.287   5.582   3.693  0.0771 -0.1303  0.1348
12579W        W28763   1.703   4.839  14.312 -0.2609 -0.1771 -0.2297
12580W        W28764  10.775   4.857  10.695 -0.0005  0.2241 -0.0654
12581W        W28765  12.152   4.609   3.831  0.1498  0.2054  0.1442
12582W        W28766  12.682  16.988   0.496  0.3502 -0.0167  0.0126
12583W        W28767  15.883  16.275   2.946 -0.1730 -0.2637  0.3817
12584W        W28768   9.383   5.964  14.957 -0.0214 -0.2171 -0.0408
12585W        W28769   1.456  14.257  12.531 -0.0184  0.0194 -0.0962
12586W        W28770  18.875   8.042   1.907 -0.0142  0.0885 -0.1463
12587W        W28771   6.269   1.546   3.366  0.1332  0.3208  0.3765
12588W        W28772  15.940   4.173  13.079 -0.2173 -0.0080 -0.1045
12589W        W28773  13.623   5.529  12.295  0.0435 -0.0043  0.0835
12590W        W28774  17.195  17.777  13.219 -0.1996 -0.2630 -0.0204
12591W        W28775   0.690   3.257  14.266  0.1059 -0.0343  0.1413
12592W        W28776  11.504   0.226  10.325 -0.0837  0.2512  0.2058
12593W        W28777   1.489  15.563  13.263  0.1960  0.0924 -0.0474
12594W        W28778  17.261  11.136   2.543 -0.4669 -0.0091 -0.0077
12595W        W28779  13.425  15.613   1.707 -0.2103 -0.0562 -0.2144
12596W        W28780   5.667   1.636   5.520  0.0089  0.3074  0.1745
12597W        W28781   3.558   7.106  14.919  0.0645 -0.0356 -0.2055
12598W        W28782   2.871  10.578   4.756  0.0932  0.0399 -0.0323
12599W        W28783  15.610  17.398   3.791 -0.2794 -0.2310 -0.1575
12600W        W28784  17.669   4.848  13.883  0.5245  0.1461  0.0427
12601W        W28785  16.914   3.861   2.219 -0.0643 -0.2803 -0.2360
12602W        W28786  17.300   5.659   1.696  0.1256  0.2235  0.2515
12603W        W28787   2.799   6.254  10.332  0.1997  0.2083  0.1431
12604W        W28788   3.114   3.046   3.227  0.1586 -0.1418  0.0381
12605W        W28789   5.030  11.237   2.689 -0.3687 -0.1736  0.1444
12606W        W28790   9.288  18.344   3.107  0.5732  0.0843 -0.0704
12607W        W28791  11.242  18.252   3.278 -0.2240 -0.0078 -0.0674
12608W        W28792   2.163  11.246   2.131  0.3334 -0.1761  0.0412
12609W        W28793   8.907   4.645   1.815  0.3618  0.0901  0.0050
12610W        W28794  14.139   7.282  13.526 -0.0314 -0.0648 -0.1694
12611W        W28795   0.877   8.789  10.601  0.2772  0.0708  0.1179
12612W        W28796  10.701  17.918  12.036 -0.2170 -0.1886  0.0485
12613W        W28797  11.665   3.570   5.623 -0.1675  0.1206  0.2417
12614W        W28798  17.154  12.074   0.609  0.1095  0.0820  0.0146
12615W        W28799   5.685  12.010   1.769  0.0738 -0.3312  0.2766
12616W        W28800  16.390   8.996   4.924  0.1081  0.0659  0.0583
12617W        W28801   9.198   7.890  13.020 -0.0037  0.0717 -0.3129
12618W        W28802   7.951   2.721  11.143 -0.1948 -0.4497 -0.2242
12619W        W28803   0.557   1.264   3.106  0.0421 -0.0314  0.2384
12620W        W28804  16.663   3.020   2.535  0.1748 -0.1045  0.1230
12621W        W28805  14.786   6.229   1.772  0.0363  0.2587  0.4173
12622W        W28806  16.660   5.441   3.433 -0.3139  0.0403 -0.0803
12623W        W28807  15.029  18.339  11.856 -0.0304  0.0877 -0.0200
12624W        W28808   2.220  13.088  10.276 -0.0051  0.0547 -0.1527
12625W        W28809  16.201  17.020   1.901  0.2395 -0.4222  0.0022
12626W        W28810  17.173  10.600  13.786  0.0924 -0.1431 -0.4060
12627W        W28811   5.208  18.188   4.883  0.3671  0.1792 -0.1291
12628W        W28812   7.713  12.019  12.898 -0.4637 -0.1778  0.0846
12629W        W28813   5.909   3.199   4.428  0.1305 -0.0729  0.0821
12630W        W28814  12.549  17.096  11.876 -0.1267  0.0553  0.2892
12631W        W28815  14.696   7.607   4.895 -0.0345 -0.3264 -0.2049
12632W        W28816  15.246  12.300   1.027  0.3289  0.0140  0.0257
12633W        W28817  18.024  13.516  12.609  0.0669  0.2043  0.2756
12634W        W28818  18.646   9.716  13.246 -0.1790 -0.1251 -0.2198
12635W        W28819   3.404  15.550  11.511  0.0787  0.3049  0.2957
12636W        W28820   6.106   5.874   1.177 -0.1149  0.0435 -0.0437
12637W        W28821   2.786   0.554   0.253  0.3897  0.1063  0.1053
12638W        W28822  16.533   4.022   4.685  0.2279  0.0707  0.0478
12639W        W28823   7.611  17.993  10.235 -0.1322 -0.0067  0.0094
12640W        W28824  10.788   8.494   2.076 -0.1346  0.0908  0.2375
12641W        W28825  15.901   1.891   0.942 -0.4115  0.0880 -0.2794
12642W        W28826   2.391  16.102   3.530 -0.1890  0.1505  0.0098
12643W        W28827  17.255  14.850   1.214  0.0808  0.1664 -0.2298
12644W        W28828  17.797  18.307   3.862  0.0061  0.1355 -0.1440
12645W        W28829   4.202  13.828   5.290  0.3441  0.0869  0.2062
12646W        W28830  12.593  12.280  13.956 -0.1374  0.0948 -0.1425
12647W        W28831  18.496   9.887  14.982 -0.1895 -0.2421 -0.2466
12648W        W28832  13.794   2.793  10.667 -0.1661  0.5448 -0.0755
12649W        W28833   6.191  16.084   1.868 -0.2758  0.0616  0.0291
12650W        W28834   6.113   6.902   1.691  0.1477 -0.0609  0.0019
12651W        W28835   2.777  19.188  10.637 -0.1035  0.0783  0.2283
12652W        W28836   6.365   2.771  13.380  0.0496  0.0597  0.1097
12653W        W28837  13.709   3.942  14.207  0.1685 -0.1044 -0.1770
12654W        W28838  18.755   1.817   2.518 -0.1898 -0.1614  0.4747
12655W        W28839  16.551   4.971   1.311  0.2326  0.2694  0.1588
12656W        W28840  16.335   5.147   0.537  0.1909 -0.0215  0.0463
12657W        W28841   8.488   0.602   3.718 -0.2651  0.2001  0.0998
12658W        W28842  17.811   2.721  14.145 -0.0554  0.1483  0.0888
12659W        W28843   6.781  15.000  10.713 -0.0723  0.2185  0.2221
12660W        W28844  10.865   8.454   0.925 -0.0993  0.2808 -0.1111
12661W        W28845   1.906  16.408   1.182 -0.0464 -0.0166  0.2383
12662W        W28846   6.054  14.972   3.792 -0.0104  0.0527 -0.2661
12663W        W28847   6.592   4.214   3.695  0.1172  0.1599  0.0663
12664W        W28848  15.109  12.972   3.817 -0.2041 -0.1851 -0.1277
12665W        W28849  17.059  13.107   1.744 -0.2601 -0.0135 -0.1467
12666W        W28850   8.831  11.867  12.962  0.2536  0.3335 -0.2380
12667W        W28851   2.333   3.803   3.056  0.0773  0.2513  0.1786
12668W        W28852   0.669  18.236   2.983  0.1401  0.0227 -0.0443
12669W        W28853  18.281  18.870  10.575 -0.1661  0.1550 -0.1431
12670W        W28854  17.830  18.190   5.075 -0.1203 -0.0502 -0.3092
12671W        W28855   0.646  13.947   4.387 -0.4908 -0.3974  0.3003
12672W        W28856   3.279   4.214  10.798  0.0196  0.0152  0.0042
12673W        W28857  12.745   4.531   4.735 -0.2375 -0.1023 -0.0996
12674W        W28858   9.301  11.929   3.186 -0.0448  0.0733 -0.2924
12675W        W28859   8.052  11.434  11.855 -0.2894  0.2307 -0.2068
12676W        W28860   9.401   3.522   2.553 -0.1369  0.1634  0.0518
12677W        W28861   4.295  18.246   1.347 -0.4177  0.0459  0.0537
12678W        W28862   6.561  14.580   1.580 -0.1328  0.1136 -0.0340
12679W        W28863  16.281  12.242  13.897  0.2992 -0.2610  0.0676
12680W        W28864   6.548  15.979   4.039 -0.3628 -0.0129  0.0974
12681W        W28865   4.711   3.148   2.988 -0.0589 -0.0316  0.2995
12682W        W28866  17.890   2.255  13.839  0.3212 -0.1145  0.2652
12683W        W28867   2.156  15.564   3.592 -0.2679 -0.2010 -0.1967
12684W        W28868   2.089  16.611   3.491  0.1092  0.0781  0.0783
12685W        W28869   4.964   0.680   0.227 -0.4064  0.0404  0.0050
12686W        W28870   8.328   1.389  13.917  0.1427 -0.0703 -0.3744
12687W        W28871   9.696   0.740  11.192 -0.4206  0.1806 -0.0924
12688W        W28872  15.441   7.835  10.792 -0.0084 -0.1726 -0.0052
12689W        W28873  15.412   0.344   1.745  0.0637 -0.0536  0.1797
12690W        W28874   9.315   2.066   4.608  0.1264  0.1904  0.3147
12691W        W28875   9.204   4.201   2.645 -0.1366  0.0390  0.0061
12692W        W28876  13.933   9.240   2.901 -0.1989 -0.1241  0.2995
12693W        W28877   0.561  12.406   1.008 -0.0118 -0.1013  0.0553
12694W        W28878  11.919   4.420   0.801  0.1836 -0.0001  0.3876
12695W        W28879  19.336   5.646  11.180  0.0877 -0.0881  0.1462
12696W        W28880   1.467  12.887  10.521  0.0272 -0.3071 -0.2639
12697W        W28881  16.513  17.102  14.342  0.1277 -0.2086 -0.1289
12698W        W28882   5.728  17.278   2.239  0.3122  0.1109  0.2038
12699W        W28883  14.098  10.207  12.484 -0.1464 -0.1879  0.1032
12700W        W28884  12.960   5.613   9.935  0.0170  0.2604  0.0876
12701W        W28885   7.027  13.540   0.179 -0.1945 -0.1260  0.0941
12702W        W28886  13.192   3.704   3.522 -0.0402  0.0504  0.0479
12703W        W28887  16.800   7.156   1.599  0.0371 -0.3918  0.2091
12704W        W28888   2.433   2.303   5.293  0.0413  0.2175  0.1285
12705W        W28889   6.518   7.871  10.737  0.1778 -0.3071 -0.0720
12706W        W28890   3.066  11.097  14.859  0.2023 -0.0224  0.0562
12707W        W28891  17.320  14.361  11.282 -0.0417  0.2917  0.2678
12708W        W28892  13.880  16.130   2.801  0.4184  0.2269  0.2051
12709W        W28893   3.670  13.794   0.249  0.0537  0.1670 -0.1225
12710W        W28894   2.754  17.218   5.528  0.0369 -0.3159  0.0116
12711W        W28895  16.634   8.676  11.744 -0.1277 -0.3069  0.1001
12712W        W28896   7.520   5.907   0.242 -0.0424  0.1610 -0.1652
12713W        W28897   3.967   5.811   4.761 -0.3245 -0.0792  0.1775
12714W        W28898  15.915  10.348   9.610 -0.1990  0.2286 -0.0788
12715W        W28899   5.340   6.224   3.665 -0.1928 -0.4486 -0.0360
12716W        W28900   5.123   4.019   9.377 -0.2361  0.1205  0.1198
12717W        W28901  18.349   6.162  10.693  0.1959  0.1818  0.2045
12718W        W28902   8.206   0.762  10.091 -0.0695 -0.2917  0.0482
12719W        W28903   2.461   3.623  14.568 -0.2054  0.1523  0.2507
12720W        W28904   3.712  17.112   5.392  0.0902  0.0713  0.0649
12721W        W28905   4.111   8.959   2.860  0.1505  0.1231  0.0915
12722W        W28906   2.375  19.363   5.490  0.0113  0.0739 -0.2599
12723W        W28907   3.987  18.972   9.976 -0.1952 -0.0748  0.1073
12724W        W28908   0.100   0.048   3.227  0.1052  0.0484 -0.2915
12725W        W28909  13.683   8.865  11.948 -0.1351  0.0932  0.3482
12726W        W28910  18.761   6.157   2.825 -0.0652 -0.0046 -0.1710
12727W        W28911   7.881  14.458  13.335  0.0080 -0.0125 -0.1343
12728W        W28912   5.774  11.984   0.158  0.1335  0.4023 -0.4752
12729W        W28913  11.882   5.573   2.882 -0.1133 -0.1261 -0.1263
12730W        W28914   3.090   0.221  12.835  0.0159 -0.2354  0.0085
12731W        W28915  15.649   2.108  11.536 -0.2724  0.1052 -0.3374
12732W        W28916   3.626  10.782   3.215  0.0815  0.2909 -0.1526
12733W        W28917   8.287  13.735   0.519  0.0912 -0.1482  0.2730
12734W        W28918   5.187   5.212   4.663 -0.1488  0.1501  0.4002
12735W        W28919   1.276   0.077   4.167 -0.0799 -0.1125 -0.0443
12736W        W28920   0.152  17.175  14.404 -0.0399  0.1633 -0.1050
12737W        W28921  11.734   7.052  11.229  0.1181  0.0219 -0.0648
12738W        W28922   2.826  17.864   2.201 -0.0249 -0.2299 -0.3089
12739W        W28923  16.166   3.173   4.362  0.1673  0.1429  0.0790
12740W        W28924  17.404   2.630   1.874  0.3274  0.1535 -0.0993
12741W        W28925   3.944   9.485  13.962  0.0730  0.2397 -0.2022
12742W        W28926  18.599  18.831   0.016 -0.0175 -0.1251  0.0629
12743W        W28927   5.250   5.355   1.681  0.3949 -0.1083 -0.0390
12744W        W28928   3.569  16.753  13.256 -0.0875 -0.1865  0.2521
12745W        W28929   3.919  17.039   3.195  0.3116 -0.1127  0.0048
12746W        W28930   6.141   2.717   1.463 -0.2644 -0.0650 -0.1803
12747W        W28931  13.519  18.727   1.483 -0.2529  0.2788 -0.2320
12748W        W28932  12.036  17.199   2.567 -0.2739  0.0781  0.0879
12749W        W28933  14.441  16.936  11.548 -0.0326  0.1312 -0.2879
12750W        W28934   1.821  11.223   3.570 -0.0886 -0.3573  0.1119
12751W        W28935   9.414   4.768   2.603 -0.1162 -0.4435  0.5197
12752W        W28936  18.725   0.391  10.988  0.0875 -0.1408 -0.2440
12753W        W28937  10.840  15.461   4.209  0.1574 -0.3999 -0.1294
12754W        W28938   4.201   7.121  13.501  0.1248 -0.2265 -0.1506
12755W        W28939   3.188  14.224  14.424  0.0273  0.2037  0.1001
12756W        W28940  18.993  14.440  11.125 -0.4455 -0.0050 -0.1294
12757W        W28941  11.859   5.594   2.304 -0.0087 -0.0214  0.0031
12758W        W28942  14.744  11.835   3.313  0.1299 -0.0276 -0.0030
12759W        W28943  18.845   0.952   2.939  0.1041 -0.0070 -0.3203
12760W        W28944   7.234  11.479   4.949 -0.2027 -0.0562  0.2117
12761W        W28945  18.883  14.646  12.270  0.0717  0.0927  0.2217
12762W        W28946  13.807  17.728  11.647  0.0343 -0.0316 -0.0860
12763W        W28947   1.168   3.964   2.111  0.2380 -0.1625  0.5761
12764W        W28948   9.583   8.341  12.332 -0.3740  0.2721  0.1917
12765W        W28949  14.665   3.526  13.179 -0.0125 -0.2342  0.0477
12766W        W28950  12.296   3.376  12.877 -0.2188  0.2733  0.1340
12767W        W28951  11.329  14.501  11.144 -0.1181 -0.1289 -0.0725
12768W        W28952   8.008  11.467   1.635 -0.0429  0.0090  0.2343
12769W        W28953  14.701   5.416  11.494  0.0157  0.1565 -0.0592
12770W        W28954   3.753  16.710   2.020 -0.0601 -0.1155  0.4286
12771W        W28955  16.763   8.674   0.399  0.2274  0.2404 -0.1311
12772W        W28956  11.414  15.591   1.185  0.0469  0.0442 -0.1185
12773W        W28957   7.983  15.351   2.836  0.1421 -0.1354 -0.3054
12774W        W28958  12.315  14.296  10.156 -0.0185  0.1594 -0.0573
12775W        W28959   8.677  10.869  14.606  0.0437 -0.0748 -0.0122
12776W        W28960   0.820  16.766   0.434  0.0673  0.0403  0.1463
12777W        W28961   6.844   5.530   4.531  0.0142  0.2880 -0.2382
12778W        W28962  14.492  15.714   3.396 -0.2066  0.0418  0.0515
12779W        W28963  12.053  11.477   2.411 -0.1144 -0.1235 -0.0203
12780W        W28964   8.397  18.618  11.143  0.2443 -0.0196 -0.3354
12781W        W28965  17.317  18.029   0.551 -0.2431 -0.0204  0.1084
12782W        W28966  17.532  12.207   2.708 -0.2068  0.0112  0.2769
12783W        W28967   8.030   7.680   2.932 -0.0433 -0.2403  0.0793
12784W        W28968   4.071  17.498  11.317  0.2909  0.2090  0.2522
12785W        W28969  12.292  13.494  12.832  0.0421  0.1221  0.0706
12786W        W28970   1.459  13.993  10.596  0.3630 -0.1923 -0.1222
12787W        W28971  11.924  19.346  14.954 -0.1252  0.0332  0.2756
12788W        W28972  13.916  13.303  14.786 -0.1166 -0.1948  0.2902
12789W        W28973   1.089   7.335  13.710  0.0624 -0.0529  0.0028
12790W        W28974  14.595  17.872  12.319  0.1746  0.5012  0.3811
12791W        W28975  15.270   1.648  11.699  0.2058 -0.1223 -0.0963
12792W        W28976   3.384   7.634   1.332  0.0325  0.0375  0.0024
12793W        W28977  14.205  11.658  14.319 -0.1193  0.1063 -0.2917
12794W        W28978   6.509  17.576   5.133  0.0788 -0.2770 -0.0886
12795W        W28979   0.177  12.382   0.445  0.0108  0.5078 -0.1313
12796W        W28980  14.852   6.618  11.364 -0.0244  0.2488 -0.1668
12797W        W28981   9.868  18.115  13.198  0.0822 -0.0997  0.2743
12798W        W28982   5.324  12.015   2.998  0.1077 -0.0147 -0.2212
12799W        W28983   7.090  17.885   2.761 -0.0965 -0.0190 -0.0634
12800W        W28984  10.883  10.946  14.434  0.1620 -0.2965 -0.0311
12801W        W28985  12.679  13.154  14.453  0.0192  0.1307 -0.3581
12802W        W28986  16.123  17.511  11.243  0.1688  0.3475 -0.0328
12803W        W28987  16.963  16.582  10.294 -0.0917 -0.0553 -0.2339
12804W        W28988  13.872  12.654   1.308  0.1725  0.1093  0.0713
12805W        W28989  12.881  12.382   2.698 -0.0163 -0.1509 -0.1661
12806W        W28990  18.338   0.965   3.064  0.2086  0.2214  0.0892
12807W        W28991  12.209  13.226  11.057  0.0253  0.0470  0.1752
12808W        W28992  14.146  12.750   0.508  0.2339 -0.1818 -0.2180
12809W        W28993  10.889  18.860  12.535  0.3608  0.1648 -0.0691
12810W        W28994  11.796  16.812  10.861  0.0743  0.0596 -0.0332
12811W        W28995  15.254  17.296   5.497 -0.0601  0.2341 -0.0912
12812W        W28996  12.386   1.475   0.655 -0.1261 -0.0245 -0.2663
12813W        W28997   0.201   5.857   2.398 -0.0464 -0.6929 -0.0520
12814W        W28998   4.771  10.746  11.980 -0.0025  0.2960 -0.0090
12815W        W28999   5.840  11.813  13.826 -0.1983 -0.0970  0.1738
12816W        W29000   8.597  15.306  13.126  0.0381 -0.2698 -0.0664
12817W        W29001  13.071  14.855  14.920 -0.1135 -0.0416 -0.0624
12818W        W29002  16.282  13.604   3.792 -0.2419 -0.2506  0.0742
12819W        W29003  14.767  17.243   1.552  0.2161  0.2181  0.0773
12820W        W29004   4.578  18.761   0.505 -0.1761 -0.2637  0.3512
12821W        W29005   7.754  10.949   1.366 -0.1875 -0.3931  0.0257
12822W        W29006  12.443   1.448  11.559  0.0284 -0.3347  0.0570
12823W        W29007   9.457  18.687   2.747  0.4122 -0.2337  0.1666
12824W        W29008   4.950  14.495  13.209  0.0240 -0.0196 -0.0575
12825W        W29009  15.882   9.525  14.398 -0.1741 -0.0158  0.1063
12826W        W29010   7.415  18.767   1.323 -0.4098  0.1185 -0.4937
12827W        W29011   2.731   6.035   0.233 -0.0680 -0.2078  0.2417
12828W        W29012  19.111   2.495   0.902 -0.2485 -0.1851 -0.1796
12829W        W29013   1.875   2.321   4.560  0.0498  0.0925  0.2097
12830W        W29014   0.140  18.271  10.313 -0.1369  0.4001 -0.0737
12831W        W29015   1.771   9.646  14.218 -0.1839 -0.1766  0.0382
12832W        W29016   8.693  17.725  12.544  0.2611 -0.2317  0.0040
12833W        W29017  18.584  16.312   3.347  0.4803  0.0737 -0.1217
12834W        W29018   2.179  14.394  11.700  0.2694  0.0896 -0.0054
12835W        W29019  18.578  18.534  10.320  0.1280  0.4056  0.2382
12836W        W29020  12.504   3.298   1.245  0.3978 -0.1388  0.0832
12837W        W29021  17.422   6.668   2.056 -0.4483  0.0033 -0.0088
12838W        W29022  12.568  11.293  11.733  0.1596  0.0579 -0.1815
12839W        W29023   5.349  16.231   4.663 -0.1215  0.3683 -0.2685
12840W        W29024  13.948  16.188  13.655 -0.4915 -0.1379 -0.1034
12841W        W29025  16.378   5.147  13.127 -0.0748 -0.0668 -0.2826
12842W        W29026   1.672  18.264  12.272 -0.0782 -0.1502 -0.1428
12843W        W29027  18.925  17.500   0.833 -0.0809 -0.1523  0.1240
12844W        W29028  13.972  19.122   4.671  0.0280  0.0111  0.1944
12845W        W29029  11.221  12.116  12.483  0.0704  0.2811  0.1250
12846W        W29030   3.258  18.867   4.770  0.2266  0.2554  0.0219
12847W        W29031  13.791   4.478   0.043 -0.3017  0.2303  0.2112
12848W        W29032   9.549   9.634   1.569 -0.1725 -0.0198 -0.1133
12849W        W29033   8.756  13.576   3.471 -0.1811 -0.1447  0.5247
12850W        W29034  19.298   9.382   0.086  0.5854 -0.0458  0.0049
12851W        W29035   4.396  17.428   0.297 -0.0056 -0.1463  0.1876
12852W        W29036   1.295   5.184  11.892  0.0612  0.0327  0.0251
12853W        W29037   9.363  16.330   4.524 -0.0686  0.3943 -0.1259
12854W        W29038   8.031  12.379   4.003 -0.1208  0.1520  0.3499
12855W        W29039  17.354  13.840  11.249  0.0138 -0.1164 -0.0443
12856W        W29040  10.193  15.546   1.279  0.3092  0.2461 -0.0757
12857W        W29041  14.697   8.594   4.272 -0.0682  0.2122 -0.2568
12858W        W29042  12.972  18.697   3.404 -0.0496 -0.4260  0.1127
12859W        W29043  13.881   6.313  14.335  0.0382 -0.1888  0.2175
12860W        W29044  12.332   3.236  11.771 -0.0355 -0.0028 -0.1069
12861W        W29045  16.334  18.080   4.129  0.0197  0.3269 -0.0373
12862W        W29046   4.023  11.312  10.394 -0.0871 -0.0981 -0.0309
12863W        W29047  12.920   0.345   2.813 -0.5639 -0.1093  0.1121
12864W        W29048   7.258  18.447   3.473 -0.0458  0.2973 -0.3504
12865W        W29049  18.567  15.613   1.612  0.1768  0.0809  0.1904
12866W        W29050  15.262  12.794   2.359  0.3291 -0.0145 -0.1099
12867W        W29051  16.413   5.726   0.649  0.0207  0.2174 -0.0684
12868W        W29052  12.309   4.704  12.092 -0.0214 -0.0884  0.1775
12869W        W29053   3.826   0.027   9.684  0.1316 -0.2680  0.0750
12870W        W29054  15.136   3.435  10.256  0.0518 -0.2153  0.1228
12871W        W29055   5.829  18.723   3.348 -0.1296 -0.2299 -0.0267
12872W        W29056   9.879  11.753   1.026  0.2058 -0.2233 -0.0670
12873W        W29057  10.393  12.092  11.805  0.0858 -0.0130 -0.1576
12874W        W29058   6.348  14.446  12.426 -0.2206 -0.1588 -0.1525
12875W        W29059   5.288   0.036   1.433  0.2784 -0.1886  0.3245
12876W        W29060   0.841   1.638  11.286  0.1025 -0.2325  0.3291
12877W        W29061  16.957  18.550   2.750 -0.2550 -0.2538 -0.2318
12878W        W29062  10.272   7.220  11.265  0.2016  0.0021 -0.1064
12879W        W29063   4.493   5.440   1.123 -0.1726 -0.0535 -0.0322
12880W        W29064  18.724   3.655   5.164  0.0651  0.0184  0.0682
12881W        W29065   3.627   8.116   2.907  0.5148 -0.1427  0.2383
12882W        W29066   1.640  15.038  13.353  0.1711  0.1374  0.0514
12883W        W29067  14.023   7.564  13.073 -0.2748  0.0556  0.0101
12884W        W29068  17.167  12.194   3.067  0.3081 -0.2088  0.4052
12885W        W29069  18.098  11.617  12.953 -0.0354 -0.0312  0.0611
12886W        W29070  10.497  10.315   4.957  0.0591 -0.2127 -0.1339
12887W        W29071   2.744   7.671   5.545 -0.1903 -0.2219  0.2924
12888W        W29072   1.607  14.262   4.687  0.2323 -0.2577 -0.2495
12889W        W29073  12.540   6.075  11.365 -0.1640  0.1285 -0.0403
12890W        W29074   5.266   3.603  10.220 -0.0147 -0.1054  0.0525
12891W        W29075  18.693   9.222  12.232 -0.0668 -0.2430 -0.2644
12892W        W29076   9.112  11.935   4.472 -0.0822 -0.2038  0.3801
12893W        W29077  15.530  16.748   1.736 -0.0650  0.2746 -0.0654
12894W        W29078  12.155   8.916   2.130  0.2886  0.0699 -0.1526
12895W        W29079  13.389   9.546   4.601 -0.0041  0.2340  0.1595
12896W        W29080   3.303   8.796   3.922  0.0682  0.0822  0.2424
12897W        W29081   0.652  12.486   0.482 -0.0622 -0.1190  0.1140
12898W        W29082   7.013   0.789  13.305 -0.0436 -0.1799 -0.3690
12899W        W29083   7.478   1.601   0.134  0.2230 -0.0545  0.1560
12900W        W29084   5.967   5.570   3.559 -0.2048  0.1404 -0.2123
12901W        W29085  14.425   2.538   2.831 -0.0729 -0.1311 -0.1402
12902W        W29086   7.629   0.923  10.875 -0.2857  0.0858  0.3171
12903W        W29087   3.369   0.293   5.361  0.2158  0.0862  0.0294
12904W        W29088   2.902   0.706   3.835 -0.0888 -0.5091  0.0302
12905W        W29089  12.783   5.898  12.404  0.2796 -0.2980  0.3903
12906W        W29090   7.765   1.323  11.276  0.2510 -0.1306 -0.0977
12907W        W29091  10.622  13.203   3.810 -0.0966 -0.2385 -0.0212
12908W        W29092   6.925   0.325  14.247 -0.0433  0.4937  0.0984
12909W        W29093  12.224   9.505   1.198 -0.2030 -0.0682  0.0371
12910W        W29094  18.520  15.652   5.933  0.2563 -0.3299  0.2425
12911W        W29095  11.376   9.400   2.287 -0.4655 -0.0116 -0.1299
12912W        W29096  16.607   9.575  14.702 -0.4382 -0.1257 -0.0766
12913W        W29097   7.412   7.195   2.562  0.0928 -0.1425  0.1270
12914W        W29098  13.801  13.311   3.668 -0.0576  0.0760  0.2683
12915W        W29099   4.567   7.561   1.207 -0.1995 -0.1923  0.1164
12916W        W29100  18.990   8.414  13.579 -0.0131 -0.1120 -0.1109
12917W        W29101  18.074  12.126  13.161  0.0295  0.3210  0.1705
12918W        W29102   4.907   6.112  13.783 -0.1074  0.1206 -0.2932
12919W        W29103  13.088  17.952   4.379  0.1206  0.3763  0.3549
12920W        W29104  11.934  14.132  13.660  0.0647 -0.0791 -0.1079
12921W        W29105   1.028  13.362   2.625  0.3366 -0.2452  0.1124
12922W        W29106   4.814   7.053   2.365  0.2228 -0.1338 -0.1191
12923W        W29107  16.481   3.486   1.981 -0.3310  0.0559 -0.1647
12924W        W29108   7.972  14.237  12.630  0.0392 -0.1773  0.3077
12925W        W29109  17.538   4.136   5.253  0.1487  0.1651 -0.2288
12926W        W29110  18.002  15.411   4.664 -0.1491 -0.0653  0.2321
12927W        W29111   5.114   9.963  10.907  0.1187 -0.1815 -0.0241
12928W        W29112  14.166  14.921   2.394  0.2253 -0.0611  0.1374
12929W        W29113  15.947  16.836   3.637  0.0199  0.3001  0.0112
12930W        W29114   6.475  14.040   5.171  0.0351  0.0819  0.0806
12931W        W29115  14.945   8.813   1.523 -0.0216  0.2015 -0.2527
12932W        W29116  12.076  13.714  11.270 -0.3985  0.1616 -0.0017
12933W        W29117  13.607  18.195   3.949  0.1217  0.2802  0.0182
12934W        W29118  10.200  18.219  14.821 -0.1956  0.2896 -0.0006
12935W        W29119  16.202   4.524  10.993 -0.2805  0.2614 -0.1258
12936W        W29120   9.620  11.479  11.601  0.0044  0.4110  0.1331
12937W        W29121  16.478  13.855  11.430  0.1618 -0.1206 -0.3210
12938W        W29122  10.961  10.485   0.385 -0.1075  0.2252  0.2773
12939W        W29123  10.981   0.633   2.918  0.0142 -0.5749 -0.1859
12940W        W29124  16.476   3.430   4.657  0.2942 -0.1606  0.0164
12941W        W29125   3.940  15.604   5.937 -0.2462 -0.2558  0.2151
12942W        W29126  13.856  14.036   5.108 -0.2120 -0.0915 -0.2535
12943W        W29127   5.634   9.357   3.848 -0.1568 -0.1579 -0.0915
12944W        W29128   8.812   9.132  13.828  0.0063 -0.0480 -0.0022
12945W        W29129   6.802  12.892   4.437  0.3080  0.2170 -0.1420
12946W        W29130   7.926  16.557   4.600 -0.2880  0.2249  0.2094
12947W        W29131  18.799  18.313  13.086  0.3290  0.1509  0.2246
12948W        W29132  10.633  12.937   0.689 -0.0339  0.0609 -0.0422
12949W        W29133   2.767  14.852  12.534  0.1453  0.1083  0.1903
12950W        W29134   0.250  14.155   3.482  0.2832 -0.2944 -0.1125
12951W        W29135   6.320   5.425  12.404 -0.1315 -0.0427  0.2298
12952W        W29136  13.012  17.637  13.225  0.1474 -0.1729 -0.1210
12953W        W29137   5.972   9.203  12.965  0.0463 -0.1483 -0.1281
12954W        W29138   1.658   5.847  10.909  0.1299 -0.1588 -0.0986
12955W        W29139  18.167   4.267   2.825  0.3301  0.0050  0.0970
12956W        W29140  17.140  13.393  12.305  0.1500 -0.2637  0.2723
12957W        W29141   3.962   3.000   5.389 -0.1792 -0.0557  0.0857
12958W        W29142   2.541   3.679   5.085 -0.3444  0.0944 -0.1343
12959W        W29143   9.390   6.888   1.055 -0.2540  0.0580 -0.0260
12960W        W29144   2.631  15.786  14.172 -0.2738  0.2063  0.0235
12961W        W29145  14.098  14.083  14.292 -0.1214  0.2051  0.0155
12962W        W29146  18.308  10.354  14.812 -0.2926  0.1383 -0.0870
12963W        W29147   9.783  13.298   4.271  0.3580  0.1087  0.0402
12964W        W29148  15.046   9.505   2.757  0.2148  0.0642  0.0623
12965W        W29149   2.946  12.798   3.867 -0.2292 -0.1294  0.1781
12966W        W29150   4.282  10.621   2.514  0.1648  0.2544 -0.0986
12967W        W29151   7.658  12.148   5.175 -0.2368  0.1616 -0.2865
12968W        W29152  18.029   5.172   3.416 -0.2570  0.1501  0.2033
12969W        W29153   7.705   8.092  11.717  0.0167  0.2749  0.2258
12970W        W29154  14.097   5.060   4.242 -0.2775 -0.2706 -0.0590
12971W        W29155  12.705  12.437  12.002  0.0852  0.1412 -0.1549
12972W        W29156   6.111  17.353   4.874  0.2658  0.0197 -0.1874
12973W        W29157   5.400   5.304  12.753  0.1076 -0.0134  0.3068
12974W        W29158   8.024  14.235   0.126  0.1948  0.0581 -0.0109
12975W        W29159   7.809  17.394  14.103 -0.0591 -0.3826  0.1946
12976W        W29160   4.466  11.984   2.480  0.1234  0.0782  0.2148
12977W        W29161   0.577  16.353   0.397  0.1989 -0.1773  0.1452
12978W        W29162  17.971  11.397  11.753 -0.0022 -0.1737 -0.3045
12979W        W29163   7.771   1.016   1.835 -0.1524 -0.0689  0.3842
12980W        W29164  17.554   6.710   1.164 -0.0366 -0.2112  0.1294
12981W        W29165   4.422  14.632   2.697 -0.0261 -0.1010  0.5005
12982W        W29166   0.230  13.275   4.532  0.4933 -0.1981 -0.1566
12983W        W29167   9.812   2.942   2.614  0.0133  0.1217 -0.1357
12984W        W29168  19.304  14.812   5.139 -0.1051 -0.0873 -0.3631
12985W        W29169  16.383   9.332   9.366 -0.1689  0.2042  0.0369
12986W        W29170  12.865  14.026   3.482 -0.1907 -0.0667 -0.1345
12987W        W29171  13.169   9.810  14.557 -0.1943 -0.2298 -0.1920
12988W        W29172   8.068   5.179  10.512 -0.0464 -0.2151 -0.0854
12989W        W29173   2.687   3.763  13.458  0.0488  0.0664 -0.1532
12990W        W29174  19.126   3.915   4.697  0.2500  0.3417 -0.2214
12991W        W29175  15.258  16.042  14.952 -0.0319  0.5334  0.0145
12992W        W29176   1.508   0.305  12.250 -0.0992 -0.0359  0.1501
12993W        W29177  13.519   6.752   3.405  0.3556 -0.0888  0.0059
12994W        W29178  10.626   0.963   4.305  0.1362  0.0963 -0.1810
12995W        W29179   3.459   7.991  11.537  0.0049  0.2314 -0.0211
12996W        W29180   5.408   1.079  11.207 -0.5207  0.1989 -0.2677
12997W        W29181   1.888   9.191   4.353  0.0730 -0.0042  0.0479
12998W        W29182   9.701  10.588  11.975 -0.0959  0.1349  0.3474
12999W        W29183   1.592  15.616  11.988  0.0169  0.1080 -0.2863
13000W        W29184   2.142  15.705   4.064  0.1698 -0.1497  0.0472
13001W        W29185  14.840   7.196   1.715 -0.1728  0.2713 -0.0111
13002W        W29186  10.849  19.073   2.715  0.0967  0.2642 -0.1230
13003W        W29187  19.142   2.084  12.745  0.2908 -0.0784  0.1759
13004W        W29188   6.220  13.769  13.572  0.1178 -0.1744  0.0395
13005W        W29189   1.070   3.317   0.347 -0.1126  0.2655 -0.0941
13006W        W29190  16.546  16.281   0.365 -0.1687 -0.1622 -0.0378
13007W        W29191  16.870  16.565   3.725 -0.0256 -0.4194  0.0626
13008W        W29192   9.681   1.337  12.981 -0.1128  0.1252 -0.3092
13009W        W29193  18.879   5.920  12.906 -0.1635 -0.0880 -0.1347
13010W        W29194  12.675   0.041  14.382  0.2164  0.2742 -0.2688
13011W        W29195   6.659  18.764   9.979 -0.0827 -0.1348  0.2720
13012W        W29196  13.858   4.891   2.203 -0.1971  0.0590  0.1132
13013W        W29197  15.289  18.587  12.403 -0.0993 -0.0233 -0.1997
13014W        W29198   9.944  12.446  14.931 -0.1263  0.1984  0.0486
13015W        W29199   4.541   9.486   0.594  0.1562  0.1006 -0.2394
13016W        W29200  16.144   9.170  14.615 -0.1589 -0.1425  0.1328
13017W        W29201   9.700   0.127  13.633  0.0746 -0.0077 -0.1485
13018W        W29202  18.791  10.148  14.627 -0.3180  0.3231  0.0063
13019W        W29203   0.869  18.926  14.267 -0.1966  0.1512  0.2334
13020W        W29204  12.241   7.811  14.590 -0.0814 -0.0490  0.1492
13021W        W29205  14.293  18.896  13.947 -0.3284 -0.2173  0.0445
13022W        W29206   6.030   0.350   3.581  0.0214 -0.3586 -0.1145
13023W        W29207   8.059   9.496  13.918  0.1318  0.0273  0.0018
13024W        W29208   4.349   4.437   2.337 -0.0032  0.1521  0.1537
13025W        W29209   9.777  10.785   3.501  0.2146  0.1755 -0.1200
13026W        W29210   6.313   8.561   3.344 -0.1425  0.0154 -0.0248
13027W        W29211   3.696   3.324   4.167  0.3423 -0.2935 -0.1768
13028W        W29212   6.171   3.178  12.538 -0.0441  0.1103  0.3102
13029W        W29213  15.384  19.119   0.979 -0.1030 -0.1547 -0.1937
13030W        W29214  18.941  19.345   5.874 -0.2000  0.0528  0.0266
13031W        W29215  12.317   6.700  13.308  0.0157  0.1752  0.1445
13032W        W29216   6.620   2.417   1.470 -0.0176 -0.2850 -0.3512
13033W        W29217  12.221   3.751   1.084  0.4508 -0.0936  0.0043
13034W        W29218  18.214  13.821   1.995  0.2574 -0.2400 -0.1731
13035W        W29219   4.261   4.085   1.056  0.0325 -0.3600  0.0942
13036W        W29220   3.733   5.202   4.121 -0.1102  0.0695  0.3167
13037W        W29221  11.380  12.692  12.539 -0.0571  0.1606 -0.0075
13038W        W29222  14.257   1.511   1.852 -0.1574  0.2926 -0.5299
13039W        W29223  13.263  19.294  10.574  0.0792  0.3023  0.6198
13040W        W29224  17.303  15.420   5.070 -0.2741 -0.0824  0.2279
13041W        W29225   5.866   1.566  11.624 -0.1144  0.1516 -0.0780
13042W        W29226   2.376  15.352  13.132  0.0157  0.0309  0.0753
13043W        W29227  11.692   8.089   0.349  0.1360 -0.0714  0.1171
13044W        W29228   3.470  15.948   4.052  0.1483 -0.3578  0.0031
13045W        W29229  15.938   1.972   2.566  0.1687  0.0632 -0.3752
13046W        W29230   2.445  11.162  10.255 -0.0981  0.5418  0.0364
13047W        W29231  16.507   8.262  12.149 -0.1174  0.0403 -0.4914
13048W        W29232  11.779   3.713  12.092  0.0248  0.1874  0.1684
13049W        W29233  13.776  12.375  12.963 -0.1534  0.2370  0.1917
13050W        W29234  16.522   2.075   1.694 -0.1193 -0.3491 -0.1927
13051W        W29235   4.299  18.158   3.076  0.2117  0.1890  0.1212
13052W        W29236   7.408   1.380   2.870  0.0393 -0.1547 -0.2906
13053W        W29237   4.660  11.012   4.394 -0.4005 -0.1227 -0.2687
13054W        W29238   8.477  14.310  14.418  0.2959 -0.1099  0.1327
13055W        W29239   9.512   6.703  12.604  0.2359  0.1671 -0.0681
13056W        W29240  10.252   9.638   4.194 -0.3254 -0.3852 -0.0689
13057W        W29241  18.809  13.433   2.652 -0.1100 -0.0545  0.4707
13058W        W29242   4.770  16.088   5.281  0.1053 -0.1916  0.1644
13059W        W29243   4.103   4.402  12.316 -0.0054 -0.0747 -0.1344
13060W        W29244  18.801   2.482   1.288 -0.2450 -0.0243  0.0629
13061W        W29245  15.630  18.631  11.266 -0.1228 -0.3052  0.0435
13062W        W29246   7.172  13.595   3.243  0.1898  0.4630  0.0590
13063W        W29247   9.227  13.884  11.155  0.2101  0.1974 -0.1450
13064W        W29248  11.084   5.489   4.139  0.1548  0.1555 -0.0902
13065W        W29249  17.475   6.017  13.820  0.0228 -0.0352 -0.0737
13066W        W29250   2.922  11.130  10.173 -0.2664 -0.1162 -0.0052
13067W        W29251   9.937   5.974  13.867 -0.1222  0.2261 -0.1577
13068W        W29252  15.665   8.131   3.339  0.1732  0.0412 -0.0127
13069W        W29253  11.146   8.757  11.503 -0.0284  0.2176 -0.1544
13070W        W29254   6.478   9.110   2.541 -0.0614 -0.4116 -0.0034
13071W        W29255   4.303  12.369  14.504 -0.1772 -0.1179  0.1766
13072W        W29256  11.332   1.635   4.529  0.0940  0.0355  0.1102
13073W        W29257   9.921   7.356   3.263 -0.3834 -0.0254  0.1920
13074W        W29258   1.130  14.267  12.167  0.0805 -0.0876 -0.0108
13075W        W29259   6.713   1.943   5.371 -0.0036  0.0793 -0.2363
13076W        W29260  19.370  19.225   4.887  0.0687  0.1431 -0.2099
13077W        W29261   8.369   7.841   0.982 -0.0806  0.0942 -0.0523
13078W        W29262   3.463  13.630  13.963 -0.2316  0.0449  0.0061
13079W        W29263  18.702  12.303  14.857  0.1911 -0.1768 -0.2275
13080W        W29264   6.606  15.379  14.584 -0.1802  0.1318  0.0633
13081W        W29265  15.561   5.719  13.864  0.0496  0.1436  0.5950
13082W        W29266   7.111   5.358  14.807 -0.2641 -0.1080  0.0681
13083W        W29267   3.016   6.184   1.974  0.1355  0.0845 -0.4744
13084W        W29268   0.314   0.246  14.082 -0.1386  0.0849  0.0603
13085W        W29269  15.816  10.768   3.049  0.1351  0.0197 -0.1738
13086W        W29270  11.624  14.817  14.043 -0.3016  0.1252 -0.2014
13087W        W29271   9.977   4.920  14.839  0.0378  0.2118 -0.2029
13088W        W29272   3.379   3.942   5.233 -0.4850  0.2034  0.0653
13089W        W29273   6.289   0.021  14.177  0.1886  0.4807  0.2450
13090W        W29274   4.626   7.263   4.180  0.2565 -0.0099 -0.0494
13091W        W29275  19.075  15.593   2.854  0.1739  0.0413  0.0052
13092W        W29276   8.593  10.738   5.060  0.2225 -0.2680 -0.1293
13093W        W29277   0.993   4.916   1.968 -0.1937 -0.2809 -0.1196
13094W        W29278  10.366  19.201   2.021 -0.3106 -0.2178 -0.0642
13095W        W29279   0.279  14.610   0.034  0.1759  0.1359  0.0094
13096W        W29280   2.528  10.941   0.719  0.0075  0.1892 -0.2652
13097W        W29281   7.607  10.984   2.360 -0.2786  0.1011 -0.2253
13098W        W29282   1.210  11.424  12.237  0.0153 -0.2328 -0.3657
13099W        W29283   3.029  18.359  11.906  0.2843  0.0571  0.2284
13100W        W29284   0.227  12.306  11.076 -0.0607 -0.3647 -0.1103
13101W        W29285   2.478  14.594   2.063  0.3668  0.0734  0.3001
13102W        W29286  13.995   3.625   4.083 -0.2080 -0.2218  0.0502
13103W        W29287  10.499   3.053  13.052  0.2918 -0.2339 -0.0903
13104W        W29288  10.620  11.995   1.758 -0.1227  0.0825  0.3031
13105W        W29289  13.584  15.040  11.435  0.0473  0.2704  0.3023
13106W        W29290  11.425  13.521   5.284 -0.0566  0.2086 -0.1560
13107W        W29291  11.825   5.687   4.698 -0.1872 -0.2172 -0.1504
13108W        W29292   3.711   3.344   1.305  0.0789 -0.1996  0.0668
13109W        W29293  12.387  13.180  14.890 -0.0349  0.3126 -0.1616
13110W        W29294  10.535   7.516   1.140 -0.0921 -0.2022  0.3759
13111W        W29295  13.054  14.083  11.793  0.0130  0.0061 -0.1961
13112W        W29296  16.800   6.298   3.344 -0.3088 -0.3156  0.0199
13113W        W29297   8.919  15.499  14.559 -0.1445  0.0471  0.0500
13114W        W29298  15.913   8.878   3.432 -0.2944 -0.3067  0.1150
13115W        W29299   7.985  18.027  10.570  0.2619 -0.3918  0.4305
13116W        W29300   2.733   2.054  14.584  0.0070 -0.0127 -0.2783
13117W        W29301  10.205   7.998   0.369  0.1167  0.0185 -0.0282
13118W        W29302  13.378  15.694   4.152 -0.2918 -0.1019  0.0535
13119W        W29303   7.821   5.339  10.021 -0.2366 -0.2335  0.3068
13120W        W29304   4.369   6.264   3.563 -0.1314 -0.1074  0.0103
13121W        W29305  16.794   2.348   4.158 -0.2453 -0.1597 -0.2466
13122W        W29306  10.057   5.240   4.373  0.0394  0.0543 -0.2546
13123W        W29307  17.993  15.617  14.764  0.1153 -0.0922 -0.1162
13124W        W29308   3.676  16.604   5.590 -0.3381 -0.0444  0.0722
13125W        W29309  19.367   5.486   2.735 -0.2229  0.0242 -0.1028
13126W        W29310  18.678  18.169  10.732 -0.0899  0.0279 -0.1538
13127W        W29311  13.505  10.535   1.252 -0.1931 -0.3265 -0.0068
13128W        W29312   4.632  18.988   0.959  0.0069  0.2489 -0.1201
13129W        W29313  12.381  10.908   1.455  0.0480 -0.1799  0.0883
13130W        W29314  17.756   5.042   0.445 -0.1873  0.2190 -0.1037
13131W        W29315   3.552   9.428  13.073 -0.0378  0.1434  0.0706
13132W        W29316   6.867  14.790   4.343  0.2499  0.0743 -0.0601
13133W        W29317   9.345  12.279   3.548  0.3860 -0.0497 -0.1842
13134W        W29318  10.515   5.446   0.239 -0.1913  0.1437  0.3374
13135W        W29319   1.692  19.185  11.770 -0.0387 -0.0769  0.0499
13136W        W29320   0.266   3.168   0.097 -0.2126 -0.1280 -0.3479
13137W        W29321   0.121   9.139   0.438 -0.0309 -0.0801  0.0603
13138W        W29322   1.271   4.578   0.699 -0.0918  0.1538  0.0487
13139W        W29323  10.335   4.142   4.664 -0.0663  0.0332 -0.0059
13140W        W29324  10.664   3.898  10.756 -0.2444 -0.1877  0.0036
13141W        W29325  12.975  15.724  11.525 -0.0044 -0.1607  0.0817
13142W        W29326   7.578   2.005   2.233  0.1223  0.1973  0.0317
13143W        W29327  13.398   1.226  11.313 -0.0799 -0.3050 -0.0157
13144W        W29328  13.416   2.099  12.222 -0.0051 -0.0412  0.0074
13145W        W29329  18.235   9.865   1.452 -0.1004  0.2415 -0.1820
13146W        W29330  15.891  14.725   1.675 -0.0291 -0.1792  0.3451
13147W        W29331   0.911  11.522  13.811 -0.0077 -0.2159 -0.1256
13148W        W29332   9.880  10.544  10.725  0.1688 -0.0106 -0.0430
13149W        W29333  16.066  11.293  11.156  0.2161  0.1233  0.1169
13150W        W29334  17.653   7.808   2.743  0.2699 -0.5091  0.2588
13151W        W29335  16.663   4.435   4.403 -0.0499 -0.2156 -0.0108
13152W        W29336  13.256  14.507   3.421 -0.0283 -0.1332 -0.0451
13153W        W29337   8.534   3.479   4.392 -0.2269  0.0491  0.0196
13154W        W29338  14.347  10.884   0.827 -0.0227  0.3138 -0.0402
13155W        W29339   9.803  19.114  10.799  0.1869 -0.1186  0.0433
13156W        W29340  12.157   8.351  10.988  0.0032  0.2069 -0.2910
13157W        W29341   8.188  10.924   1.694 -0.1363 -0.1444 -0.0758
13158W        W29342  12.283  10.563   0.143 -0.1415  0.5376 -0.0427
13159W        W29343   2.643  16.633  10.663  0.4476 -0.1171  0.0642
13160W        W29344   8.674   3.841  14.004 -0.1405 -0.4020  0.3457
13161W        W29345  10.173  16.047   4.138  0.1433  0.0338  0.0218
13162W        W29346  14.052  17.761  14.852 -0.1804  0.0218 -0.1007
13163W        W29347  18.053   2.142  11.823 -0.1823  0.0648 -0.1679
13164W        W29348  16.949   5.025  10.047 -0.4213 -0.0140 -0.0233
13165W        W29349  18.203   6.532  13.866 -0.1973 -0.0443  0.0324
13166W        W29350   8.598  11.467   3.661 -0.0880 -0.1329  0.1750
13167W        W29351  15.587   1.990  12.295  0.2060  0.0233  0.0050
13168W        W29352  17.879   8.603  13.158  0.2169  0.1085 -0.3488
13169W        W29353  17.136  10.605  13.242 -0.3102 -0.1239  0.4031
13170W        W29354  18.698   9.555  11.071  0.0479  0.3946  0.1041
13171W        W29355   7.839   6.633  11.923  0.0805 -0.5455  0.2176
13172W        W29356   6.371   5.798  10.119  0.0441 -0.4732  0.0134
13173W        W29357   6.975  12.186   0.621  0.5152 -0.2331 -0.1244
13174W        W29358   4.050   2.292   9.663 -0.2756 -0.3832  0.0813
13175W        W29359   2.420   3.651   5.650 -0.1080  0.0632  0.2288
13176W        W29360  17.244   1.621   1.565 -0.4158 -0.3968 -0.2236
13177W        W29361   5.597  17.379   2.739  0.0036 -0.0193  0.3905
13178W        W29362   5.647   0.673   2.378 -0.1126  0.1621 -0.0283
13179W        W29363  11.288  15.305   4.310 -0.5444  0.1624 -0.1686
13180W        W29364  10.386   4.747   2.954  0.3625  0.1307  0.1883
13181W        W29365   9.388   8.683  14.465  0.0489 -0.0701 -0.4688
13182W        W29366  15.690   3.024   3.992 -0.0401 -0.1866 -0.4402
13183W        W29367  10.693   2.414   3.590  0.5578 -0.0384  0.0438
13184W        W29368  12.499   9.985   0.974 -0.1451 -0.1993 -0.1477
13185W        W29369   3.825   1.550  12.361  0.2589  0.1965 -0.1412
13186W        W29370   1.882  13.157   3.041 -0.0517  0.1883  0.1268
13187W        W29371   2.867   6.692  11.230  0.3484  0.3762  0.0659
13188W        W29372  15.589  11.023  10.964 -0.3303  0.0055  0.1616
13189W        W29373  10.233   2.616  13.598 -0.0375  0.0838  0.0447
13190W        W29374   5.097   2.131   2.044 -0.2459  0.1693  0.1939
13191W        W29375   6.632  12.536   0.526  0.0457 -0.0297  0.0168
13192W        W29376   7.359  17.756  13.964 -0.1264  0.0656  0.0455
13193W        W29377   3.585   1.155  14.049  0.0562 -0.3258  0.0694
13194W        W29378   6.635  18.545  14.534 -0.1420  0.1676 -0.1037
13195W        W29379   5.339  13.627  12.387  0.0161  0.2563  0.0844
13196W        W29380   4.726   1.658   4.122  0.1076  0.0169 -0.2509
13197W        W29381  10.319  10.480   2.598  0.3730  0.1567 -0.1959
13198W        W29382   6.748   2.636  10.417 -0.1260 -0.1755  0.1499
13199W        W29383  12.404  11.297  11.255  0.2065  0.1169  0.0226
13200W        W29384  17.074  17.236   0.074 -0.0489  0.0146  0.1350
13201W        W29385   6.213   1.786   0.595  0.0218  0.2566  0.2571
13202W        W29386   6.763  12.723   3.499  0.0178 -0.0642  0.2504
13203W        W29387  14.463  11.163   4.232  0.1757 -0.1735 -0.0222
13204W        W29388   3.719  13.394  11.857 -0.0226 -0.3358  0.0782
13205W        W29389  15.561  16.304   2.132  0.1486 -0.1594  0.1186
13206W        W29390   5.299   6.417   0.073 -0.1972 -0.1660 -0.0409
13207W        W29391   1.550  13.350   2.108  0.1469 -0.1125 -0.4504
13208W        W29392  17.821  14.801   3.778 -0.1220  0.1574  0.0170
13209W        W29393   0.256  15.603   3.027  0.2438 -0.1275  0.0334
13210W        W29394  13.133   3.574   1.242 -0.3481  0.4054 -0.1302
13211W        W29395  14.146   0.413  12.917 -0.0400  0.1574  0.1512
13212W        W29396   5.781   4.714  14.674  0.1154  0.3179  0.3380
13213W        W29397  15.877   7.864   3.686  0.0191  0.0411 -0.1469
13214W        W29398   2.713   6.224   4.624  0.1952 -0.0113 -0.2668
13215W        W29399   8.005  11.286  13.409  0.1735  0.3123  0.0538
13216W        W29400   3.204  19.275  11.726  0.2418 -0.2235  0.0326
13217W        W29401  13.279   5.711   4.491  0.1915  0.1054  0.1793
13218W        W29402  16.744  13.974   4.106 -0.1976 -0.1356 -0.3548
13219W        W29403  15.219   8.588  13.274 -0.0434 -0.2770 -0.0318
13220W        W29404   8.584   8.709   3.691 -0.1598  0.3246  0.2673
13221W        W29405  13.474   6.479  12.418 -0.2101  0.2331 -0.2016
13222W        W29406  10.571   8.841   4.613  0.1490  0.3896 -0.0152
13223W        W29407  10.119  13.893  13.298  0.1365  0.0584 -0.4521
13224W        W29408   7.900  18.883  12.931  0.2951  0.0075 -0.1432
13225W        W29409  18.449   7.950  12.273  0.0625  0.2624 -0.2392
13226W        W29410   8.482   6.181  13.872  0.0735  0.0222 -0.3679
13227W        W29411   8.578  12.717   1.834 -0.1890  0.0009  0.0869
13228W        W29412   4.953  17.863  10.844 -0.3049  0.0168  0.1027
13229W        W29413   6.600   1.257  10.658 -0.1041 -0.0770 -0.2434
13230W        W29414  18.009  16.878  10.155  0.3815 -0.2226  0.1277
13231W        W29415   4.635  14.653  13.934  0.0328  0.3454 -0.1436
13232W        W29416  18.886  13.126   3.978 -0.1037  0.2451  0.2037
13233W        W29417   5.517  17.884  13.846 -0.0600 -0.0244  0.0689
13234W        W29418   3.583   9.966  14.529 -0.0957  0.3838 -0.2606
13235W        W29419  15.823   1.516   1.254 -0.1102  0.0347  0.0403
13236W        W29420   1.037   4.405   3.192 -0.1487 -0.0080 -0.0087
13237W        W29421  11.607   4.990  11.409  0.0402 -0.1058  0.1434
13238W        W29422   8.320  12.972  10.875  0.0863  0.0351  0.1072
13239W        W29423   1.499   3.007  13.963  0.1724  0.2643  0.0914
13240W        W29424   0.703   8.160   2.355 -0.1113 -0.1842 -0.2175
13241W        W29425   4.684   7.991  14.744 -0.1316  0.2119  0.1256
13242W        W29426   7.082  15.726  10.970  0.4886  0.0206 -0.1858
13243W        W29427   2.196   4.988   5.360  0.1453  0.2281 -0.0022
13244W        W29428   5.343   4.253   0.657 -0.2118  0.1070 -0.1818
13245W        W29429   9.966   4.746   2.719  0.0551  0.3131  0.0576
13246W        W29430  10.419  18.453  13.227 -0.0367 -0.0304  0.1046
13247W        W29431  14.112   1.264  11.555 -0.1793 -0.3533  0.1291
13248W        W29432  11.213   1.269  11.615 -0.2572  0.1556 -0.1307
13249W        W29433  12.897   7.508  14.745 -0.3406  0.0032  0.2142
13250W        W29434  17.800   2.916   2.184  0.4878  0.5495  0.2342
13251W        W29435   2.243   0.978  12.288 -0.1266 -0.0348 -0.1151
13252W        W29436  13.153  16.258   2.720 -0.2294 -0.2003 -0.2774
13253W        W29437   4.595   0.328   2.932 -0.0668  0.1770  0.2604
13254W        W29438   0.769   4.763   3.897  0.0914 -0.0773 -0.0936
13255W        W29439   3.653  14.072   1.484  0.2786 -0.0594 -0.2678
13256W        W29440   2.571  19.201  13.238  0.1527  0.0084  0.3281
13257W        W29441  11.070  10.081   0.773  0.0273  0.0905 -0.3188
13258W        W29442   8.287   6.940  11.297  0.2854 -0.0441 -0.0531
13259W        W29443  18.691  16.124   5.237 -0.1880 -0.1577 -0.2210
13260W        W29444   0.581  11.808  14.237 -0.0430  0.1026 -0.0370
13261W        W29445  11.450   1.046  13.403  0.2049  0.4008 -0.1772
13262W        W29446  10.795  19.224  11.493 -0.0415 -0.1560 -0.0325
13263W        W29447  10.502   4.386   1.121  0.1618 -0.2958 -0.1786
13264W        W29448  14.703  18.017   5.783  0.0570  0.1056  0.3085
13265W        W29449   8.481  15.747  14.628  0.1261 -0.2676 -0.0266
13266W        W29450   1.371   7.744   8.974  0.0831  0.1210  0.1984
13267W        W29451  18.312  13.008   0.146  0.0470 -0.2061 -0.1404
13268W        W29452  10.506  18.044   2.438 -0.0744  0.2395  0.0939
13269W        W29453   5.257  12.193  12.992 -0.0943  0.1184 -0.1042
13270W        W29454   1.048  13.074   5.902 -0.0507 -0.2212  0.3369
13271W        W29455   8.049   9.887  14.845  0.2270  0.3528 -0.1742
13272W        W29456  12.166  14.702  10.806  0.0387 -0.0989  0.3577
13273W        W29457  14.491   8.224  14.525 -0.3750 -0.2432  0.2388
13274W        W29458   1.144  19.091   2.426 -0.1443  0.1533 -0.0170
13275W        W29459  10.622   6.800  14.883  0.0732  0.0254 -0.1149
13276W        W29460   5.786   7.740  11.529 -0.0072  0.3980  0.2730
13277W        W29461  14.727   2.623   5.417 -0.3473 -0.0157  0.0654
13278W        W29462   8.825  17.140   1.979  0.2592  0.1690 -0.1232
13279W        W29463   9.489  12.109   5.755 -0.1799 -0.2423  0.0079
13280W        W29464  10.963  18.172   5.492  0.0678 -0.0740 -0.1311
13281W        W29465   3.276   6.299  13.773  0.1187  0.0666 -0.0036
13282W        W29466   9.172  14.077   5.034 -0.1902  0.0412  0.1832
13283W        W29467  17.952   3.135  10.363  0.1332 -0.0728  0.0174
13284W        W29468  12.786  10.269   2.802 -0.3619  0.0130 -0.0897
13285W        W29469  12.882   0.562  14.105  0.0766  0.1030 -0.1602
13286W        W29470  10.247   0.631   4.345  0.3609  0.1136  0.1253
13287W        W29471   4.443   7.927  10.674  0.3476  0.0100 -0.0896
13288W        W29472  14.980  10.086   1.725 -0.0113  0.1181 -0.0883
13289W        W29473  17.879  13.774  14.223  0.0322  0.1906 -0.0381
13290W        W29474  12.733  14.321  14.358 -0.1575 -0.0487  0.1039
13291W        W29475  19.302  10.568  14.333 -0.0804  0.1558  0.1854
13292W        W29476  14.072   3.235   2.435 -0.1879  0.0579 -0.2433
13293W        W29477   5.801  11.414  12.935  0.0635  0.2651 -0.0780
13294W        W29478  13.183   6.930   2.256  0.0726  0.2697 -0.0328
13295W        W29479   9.734  12.207   3.935 -0.2899  0.2109 -0.1568
13296W        W29480   8.643  10.444  12.820  0.2039  0.0801  0.2042
13297W        W29481   0.343  12.001   0.709 -0.0403  0.0355  0.0309
13298W        W29482  12.025   4.532  12.912  0.1680  0.1816  0.0483
13299W        W29483   0.470  16.333   3.449  0.2480  0.3679 -0.0265
13300W        W29484  11.963   5.685  13.929 -0.2374 -0.1818 -0.2846
13301W        W29485  17.374  11.892   1.030  0.1321  0.0757 -0.1412
13302W        W29486   2.569   1.423  12.115  0.0599  0.0556 -0.0658
13303W        W29487   5.483   3.332   3.343  0.1866  0.1465  0.1767
13304W        W29488  12.571   8.087  13.859  0.0568  0.1226  0.1157
13305W        W29489   4.120  13.589   0.407  0.0411  0.0490 -0.2257
13306W        W29490  15.842   8.508  12.768  0.0153 -0.2066 -0.0033
13307W        W29491   8.285  10.499   1.935  0.3145 -0.2170  0.2063
13308W        W29492   0.545   4.855   0.361  0.0319 -0.1361  0.0370
13309W        W29493   4.448  17.364   2.150 -0.0829  0.2583  0.0260
13310W        W29494  14.712   0.578  10.980 -0.0167  0.1730 -0.0094
13311W        W29495   7.554  13.866  12.314 -0.0585  0.2589  0.0989
13312W        W29496  11.900   6.626  14.725 -0.1713 -0.1151  0.2718
13313W        W29497   0.938   6.090   0.786  0.1894  0.0054  0.2709
13314W        W29498  14.520   2.621   4.284  0.1016 -0.1909 -0.2871
13315W        W29499   0.099  11.092  12.981 -0.2054  0.1958 -0.0618
13316W        W29500   8.880   0.478   0.781 -0.1817 -0.1070  0.0846
13317W        W29501   9.277  11.405   3.357 -0.1344 -0.0277  0.0324
13318W        W29502   1.856   9.485  12.281 -0.1132 -0.1196  0.2210
13319W        W29503  10.890  15.665   2.029  0.0388 -0.0858 -0.2295
13320W        W29504   3.533   5.290   0.787 -0.0677  0.0716  0.0108
13321W        W29505   0.337  15.033  14.335  0.2996  0.0920 -0.0169
13322W        W29506  11.223  18.032  11.903 -0.3379  0.1217  0.2953
13323W        W29507   6.941   6.093  14.140  0.0682 -0.3594 -0.0129
13324W        W29508  18.317   8.641   1.604  0.2884  0.1360 -0.2141
13325W        W29509   0.129  12.417   3.509  0.0763 -0.1922  0.1599
13326W        W29510  10.288   1.647   2.015  0.3090 -0.1544  0.0413
13327W        W29511   0.497   6.038   1.088 -0.3009  0.0590  0.0415
13328W        W29512   3.598   9.650  13.528 -0.0756  0.0046  0.2116
13329W        W29513  17.810  12.936   0.123  0.3372  0.1399 -0.0605
13330W        W29514  18.428   6.224   4.437 -0.1304  0.3279 -0.1819
13331W        W29515  11.158   1.120  12.981 -0.2490  0.2590  0.0672
13332W        W29516   2.174  15.382  12.661  0.3772  0.0589 -0.0254
13333W        W29517  16.822   3.470  11.570 -0.0226 -0.1642  0.0825
13334W        W29518   8.216   9.983   0.800  0.0527  0.1981  0.1134
13335W        W29519   2.412  17.389  13.475 -0.3206  0.0037 -0.0946
13336W        W29520  12.477   2.250   3.147  0.0280 -0.1878 -0.0963
13337W        W29521  13.595  18.458  12.826 -0.1603 -0.1626 -0.2184
13338W        W29522   1.818   1.218   1.502  0.1746 -0.1021  0.2066
13339W        W29523   1.656  10.295   1.995 -0.2804  0.1128 -0.0549
13340W        W29524  13.303  19.168   1.410  0.2494  0.1685  0.1017
13341W        W29525  10.826   2.930  14.231 -0.1029  0.3643  0.2090
13342W        W29526   9.053  12.554  14.274 -0.3585 -0.3517 -0.0832
13343W        W29527   5.345  16.529   1.501 -0.0598  0.2014 -0.1016
13344W        W29528   6.356  16.745  10.697 -0.2262 -0.1714 -0.1438
13345W        W29529  15.263   9.159  10.973 -0.0037 -0.0283  0.0040
13346W        W29530  19.270  10.192  12.899  0.0651 -0.2001 -0.1120
13347W        W29531   4.675   4.552  11.866 -0.1193  0.3620  0.0236
13348W        W29532   5.345   7.468  10.546 -0.0056  0.3658 -0.2253
13349W        W29533   9.904  10.752   3.989 -0.0216 -0.1817  0.2263
13350W        W29534   5.813   3.312   0.638 -0.0330  0.1406  0.2186
13351W        W29535  15.592  13.561   5.648  0.1161 -0.0283 -0.1084
13352W        W29536   5.670   7.067   2.343  0.0268 -0.0053  0.0317
13353W        W29537  17.729   4.723  12.667  0.0996 -0.3577 -0.1979
13354W        W29538   6.955   2.023  11.076 -0.0194 -0.0204  0.1228
13355W        W29539  18.402   8.877   4.508 -0.0713  0.0072 -0.2081
13356W        W29540  11.967  14.256  14.803 -0.2322  0.0255  0.1321
13357W        W29541   6.343   7.320   9.302  0.0530  0.0239  0.1670
13358W        W29542  10.077  16.787  13.437  0.0953  0.0835  0.2140
13359W        W29543  15.506  13.275   0.920 -0.2537  0.2043 -0.0940
13360W        W29544  10.960   2.274  14.814 -0.0409 -0.1844 -0.0556
13361W        W29545  12.455  13.329   2.537 -0.0678 -0.2926  0.2906
13362W        W29546   1.952  13.507  13.786 -0.0649  0.1813 -0.4740
13363W        W29547  15.162  10.877  12.501 -0.1465  0.0384 -0.1210
13364W        W29548   2.241  13.738  11.036 -0.1794  0.1491 -0.1174
13365W        W29549  14.263   4.963   1.882 -0.0963 -0.1349 -0.1134
13366W        W29550  17.478   4.422   4.797  0.1938 -0.1199  0.3010
13367W        W29551  12.322  17.241   0.286 -0.2022  0.2003 -0.2102
13368W        W29552   7.265   0.589  10.889  0.2495  0.3388  0.0212
13369W        W29553   6.597  14.980   4.788 -0.0583  0.4410 -0.4595
13370W        W29554  17.310   9.693   0.151  0.0328  0.2918 -0.2550
13371W        W29555  16.341   9.839   3.315 -0.0192 -0.1440  0.0921
13372W        W29556   4.009   4.207  11.836  0.0168  0.0352 -0.0847
13373W        W29557  12.926   3.088   2.352  0.1648  0.4037  0.1079
13374W        W29558   8.475   4.259   3.455 -0.3564 -0.1167 -0.2116
13375W        W29559  10.170   7.263   0.797 -0.3204 -0.1043 -0.3564
13376W        W29560  12.830   4.011   5.551  0.2273 -0.0403  0.0480
13377W        W29561  18.270   1.127   2.363 -0.4545  0.1344 -0.0218
13378W        W29562  14.118  15.942   1.033  0.1709 -0.0987  0.0333
13379W        W29563  16.443  11.317  11.816  0.0123  0.7477  0.1702
13380W        W29564   8.037  12.167  13.844 -0.1627  0.3259 -0.0299
13381W        W29565   4.159   6.022   3.968  0.2806  0.0578 -0.0232
13382W        W29566   6.352   5.499   1.533  0.2006  0.4343 -0.4717
13383W        W29567  16.022  11.144   3.256 -0.2736 -0.2378 -0.0804
13384W        W29568   3.290   5.406  14.852 -0.0210  0.0595  0.0218
13385W        W29569   2.356   0.077   0.201  0.2559 -0.0675 -0.0307
13386W        W29570   8.092   9.936   1.649  0.1119 -0.1864  0.2597
13387W        W29571   8.490  15.236   0.504  0.0910  0.2808  0.0349
13388W        W29572  18.917  10.603   4.009 -0.4039 -0.3090  0.2050
13389W        W29573  18.886   0.149   2.222 -0.2995 -0.3498 -0.0684
13390W        W29574  15.087  17.053   2.494  0.3318 -0.1669 -0.0659
13391W        W29575   5.825   2.211  13.818 -0.0140  0.0483  0.2066
13392W        W29576  10.980   8.843  13.681  0.0410  0.1979  0.1094
13393W        W29577  13.257  16.816  12.782 -0.3277  0.1065 -0.0358
13394W        W29578  11.432   5.930  13.979 -0.1717  0.3391 -0.0294
13395W        W29579  15.070   0.703   4.905 -0.0563 -0.1405  0.0104
13396W        W29580  14.145   6.491  11.894 -0.0403  0.3278  0.0513
13397W        W29581   9.666   7.056   0.556  0.1564 -0.0412  0.1582
13398W        W29582  13.426   2.713  10.327 -0.1732  0.0452 -0.0597
13399W        W29583   1.740  12.208  11.453  0.4518 -0.1626  0.1844
13400W        W29584   6.842  11.735   2.481 -0.2104  0.0823 -0.2047
13401W        W29585   1.273  15.278  13.778 -0.0263 -0.1836  0.1384
13402W        W29586  17.505  13.987   3.161  0.0450 -0.1911  0.1770
13403W        W29587  17.052  14.923   5.219 -0.1529 -0.0638 -0.0831
13404W        W29588   6.367  14.911   9.843  0.0694 -0.2642  0.2471
13405W        W29589  11.308   4.944   3.393  0.0371  0.0719 -0.3518
13406W        W29590  10.686   3.920   2.655 -0.1305 -0.1811  0.1579
13407W        W29591  15.806   0.115  11.420 -0.0560 -0.0958  0.4487
13408W        W29592   1.275  16.488   3.934  0.1689 -0.0365 -0.1582
13409W        W29593  18.090  10.673   0.507  0.0322  0.1894  0.0031
13410W        W29594   1.671  13.618   1.591  0.1070 -0.1657 -0.1014
13411W        W29595  14.627  18.776  10.438 -0.1444 -0.4265  0.1190
13412W        W29596   1.706   7.234   0.364  0.1895  0.0904 -0.1140
13413W        W29597  11.492   8.804   4.083  0.0303 -0.2844 -0.1447
13414W        W29598   2.501   9.211   2.035  0.0707  0.3548 -0.1865
13415W        W29599  17.657  15.083  14.447  0.3195 -0.1507 -0.1017
13416W        W29600   1.266   6.356   4.574  0.1349  0.0165 -0.4794
13417W        W29601  15.144  15.919  13.848 -0.0465  0.5260  0.0803
13418W        W29602   4.368  14.465  13.367  0.1241 -0.1494 -0.0332
13419W        W29603   1.661   2.795  12.421 -0.2258 -0.1996  0.0645
13420W        W29604  18.355   5.646   0.242 -0.3220  0.1466 -0.4458
13421W        W29605  13.784  17.858  13.181 -0.0075 -0.0508  0.1408
13422W        W29606  11.892  12.400  14.595 -0.2671 -0.1106  0.3251
13423W        W29607   0.510  17.665  12.900 -0.0470 -0.2058 -0.0880
13424W        W29608  10.013  17.946   5.107 -0.0824 -0.1095 -0.2255
13425W        W29609  16.101   1.957  14.466  0.0957  0.0215  0.0802
13426W        W29610  10.908  10.518   4.176  0.0554 -0.1099  0.1899
13427W        W29611  12.203  17.493   2.122 -0.2277  0.2146  0.2566
13428W        W29612   2.842   5.804   4.893  0.1391  0.0545 -0.1961
13429W        W29613   1.455  18.374   1.510 -0.2588  0.0906 -0.0510
13430W        W29614  12.675   1.713  13.838 -0.1871  0.0404 -0.0550
13431W        W29615   5.808  16.070  13.031 -0.1415  0.0931  0.0957
13432W        W29616  16.588  11.016   3.371  0.3377 -0.1460 -0.0470
13433W        W29617   6.175  11.400  13.996  0.1556  0.1603 -0.0495
13434W        W29618   9.746   8.198   0.443 -0.2259  0.1040  0.2083
13435W        W29619   1.206   2.769  11.046 -0.2398 -0.1558  0.0186
13436W        W29620   1.156   2.057   2.963  0.0858  0.1768 -0.2093
13437W        W29621   8.463  15.519  14.131  0.0313  0.1434  0.1416
13438W        W29622   3.034   4.855  11.284  0.2560 -0.0066 -0.1601
13439W        W29623   2.700  13.703  14.428 -0.2270 -0.1387 -0.0045
13440W        W29624   2.318  12.600   1.477 -0.0283 -0.3894  0.0666
13441W        W29625   0.800   3.359  14.876  0.4638 -0.0083 -0.0296
13442W        W29626  10.646   4.354  13.100  0.0705  0.2028 -0.1942
13443W        W29627  15.119   1.755  12.186  0.1868 -0.2297  0.1087
13444W        W29628   3.807  10.665  12.178  0.0137 -0.0435 -0.3034
13445W        W29629  12.073   8.988   5.126 -0.3790  0.0029  0.0398
13446W        W29630  18.264  14.651  13.697  0.2501  0.1118  0.0872
13447W        W29631  17.559  12.260  13.424 -0.3056  0.1482 -0.0023
13448W        W29632   2.142   2.071  12.367 -0.1796 -0.2823  0.1057
13449W        W29633  10.989   7.896   0.909 -0.3053  0.0029  0.0813
13450W        W29634   7.900   5.833   1.635  0.2369  0.2746  0.1683
13451W        W29635   3.325   0.668   4.335 -0.1388 -0.2539 -0.3834
13452W        W29636  11.476   2.036   9.839  0.0479  0.1928 -0.1076
13453W        W29637   3.031   6.266  14.848  0.4493  0.1802 -0.0966
13454W        W29638   2.106   4.960   4.798  0.1769 -0.2875 -0.1997
13455W        W29639   3.963   2.559   2.499  0.2051  0.2464  0.3822
13456W        W29640   9.407  14.536   3.101  0.1679  0.2610 -0.0795
13457W        W29641  14.652   7.421  13.617 -0.0235  0.2783  0.0798
13458W        W29642   8.520  18.123  13.122  0.0139 -0.2823 -0.3781
13459W        W29643  11.757   5.068   2.108  0.3683  0.0667 -0.0305
13460W        W29644   7.291  14.208   0.621 -0.2341  0.0370 -0.2602
13461W        W29645  17.486   3.592  14.469 -0.1385  0.0405  0.0753
13462W        W29646   0.813  16.576   4.085 -0.0018 -0.1471 -0.1083
13463W        W29647   6.233   6.376   3.242 -0.0641  0.0334 -0.2087
13464W        W29648  15.846   8.158   4.653 -0.1350  0.1414 -0.2319
13465W        W29649   1.010   2.242   3.445  0.2897  0.3396  0.1753
13466W        W29650   3.414  14.921  13.760  0.2139  0.1361  0.3546
13467W        W29651   1.821   0.329  12.758 -0.1610 -0.2250  0.1252
13468W        W29652   7.867   8.454   5.454 -0.2118  0.1039 -0.1179
13469W        W29653   2.981   0.710   2.299 -0.1856  0.1780  0.0056
13470W        W29654  16.587  13.969   5.759  0.0096 -0.0326  0.1671
13471W        W29655  18.354   4.791   5.425 -0.1368 -0.0761 -0.2642
13472W        W29656  10.434  18.541   0.305 -0.1193 -0.0794  0.2969
13473W        W29657  10.453  11.597  11.914 -0.2488  0.0156  0.0866
13474W        W29658  16.007  14.786  13.650 -0.0998  0.1544 -0.1218
13475W        W29659   8.662  16.988  10.668  0.3515  0.0436 -0.2464
13476W        W29660   8.434  19.234   2.295 -0.0080 -0.1423 -0.0657
13477W        W29661   9.771   3.497   1.064  0.0962 -0.2981  0.2924
13478W        W29662   8.023   4.497  11.626 -0.1290 -0.0050 -0.1532
13479W        W29663  17.269   4.477   2.791 -0.3153  0.2971 -0.1172
13480W        W29664   3.279   0.544   0.500  0.1803 -0.3338  0.0111
13481W        W29665  14.035  12.439  14.646  0.4077 -0.1704 -0.0925
13482W        W29666  11.481   7.764  10.394  0.2172  0.2736 -0.2225
13483W        W29667  11.545   4.276   4.253 -0.2208  0.2599  0.1655
13484W        W29668   1.488  14.817  12.961 -0.2171 -0.1242 -0.2614
13485W        W29669   1.372   6.085   2.778  0.0040  0.1318  0.3154
13486W        W29670  12.833  11.962  12.108  0.0811  0.0062  0.0510
13487W        W29671   1.092   5.641  12.132 -0.0291  0.1332 -0.3603
13488W        W29672  14.981  18.661  11.167  0.2233  0.1149  0.0351
13489W        W29673   6.045  15.531  10.489 -0.1803  0.3355  0.0119
13490W        W29674  19.215  13.769   2.434  0.1015 -0.3087 -0.1058
13491W        W29675   6.704   7.224  12.749 -0.2119  0.0600  0.2141
13492W        W29676   4.253   7.572   1.639 -0.3367  0.0535  0.0582
13493W        W29677  19.286  16.625  12.616 -0.0149 -0.0468 -0.3778
13494W        W29678  16.188   4.348  10.370  0.0560  0.0155  0.1222
13495W        W29679   8.281  19.176   3.187 -0.1300  0.4616 -0.0443
13496W        W29680  12.059   6.932   3.488 -0.0026 -0.2084  0.0966
13497W        W29681   1.366   1.076  12.401 -0.1350  0.4648  0.1140
13498W        W29682   3.251  15.445  12.850 -0.0697 -0.0223  0.3665
13499W        W29683   6.412  14.524   4.937 -0.1589 -0.2753  0.1430
13500W        W29684   3.221   4.470  13.775 -0.2521  0.0029 -0.2546
13501W        W29685  15.812   0.429   3.427  0.0077 -0.1192 -0.1214
13502W        W29686  13.064   0.395   4.553  0.0204  0.0831  0.2504
13503W        W29687   8.493   8.844   9.712  0.1492  0.0397  0.2606
13504W        W29688   2.691   8.928   9.374  0.1378 -0.0955 -0.1991
13505W        W29689  18.941  14.892   2.305 -0.0985 -0.0991 -0.0575
13506W        W29690   2.672  19.022   5.253  0.1451 -0.2810  0.1015
13507W        W29691   8.770   0.327   1.943  0.1707  0.2522 -0.2015
13508W        W29692   3.297  13.030  12.730  0.0056  0.1701 -0.2878
13509W        W29693  12.677   0.069   3.195 -0.1329  0.0268 -0.1898
13510W        W29694   6.199   7.490  14.759  0.1233 -0.3601 -0.1616
13511W        W29695   1.052   3.129   1.214 -0.2257  0.2651  0.0693
13512W        W29696   4.700   8.421   2.080  0.3281 -0.2422 -0.2222
13513W        W29697  14.515  18.075   4.816  0.1414  0.0002 -0.3419
13514W        W29698   8.218  15.633   9.562 -0.4785  0.1804 -0.1590
13515W        W29699  17.816  14.891  12.484  0.0901 -0.2615  0.0492
13516W        W29700  12.892  15.074   5.342 -0.0180 -0.1038  0.3352
13517W        W29701   6.227   0.842   1.636  0.1387 -0.2122  0.0130
13518W        W29702  14.274   5.272   2.994 -0.1289 -0.1458 -0.0825
13519W        W29703   4.546  18.223  12.747  0.1073  0.0297  0.5047
13520W        W29704  10.470  15.064  12.960 -0.1832  0.1505 -0.2343
13521W        W29705  17.941  12.275  11.969 -0.0305  0.3409  0.0011
13522W        W29706   9.511   8.013   2.219 -0.3353 -0.2538 -0.0757
13523W        W29707  14.279   7.637  11.432 -0.0482  0.2946  0.0830
13524W        W29708   1.552   2.909  10.737  0.0691  0.3151  0.2889
13525W        W29709   9.899   4.720  10.606 -0.2713  0.0826 -0.0432
13526W        W29710   0.703   9.241   2.235 -0.1572 -0.0416 -0.0244
13527W        W29711   0.217   2.147  13.081 -0.0882  0.1195  0.3195
13528W        W29712  12.150   2.563   0.634 -0.2714 -0.0603 -0.0266
13529W        W29713   1.117   6.318  11.460 -0.2575  0.4657  0.0408
13530W        W29714  10.044  15.595   3.724 -0.0219  0.3078 -0.0776
13531W        W29715   8.556  17.933  10.590  0.4615 -0.0584 -0.0148
13532W        W29716   4.360  15.594   3.406 -0.2096  0.2069 -0.0574
13533W        W29717  14.842  10.153   2.492 -0.1162 -0.1348 -0.0647
13534W        W29718  19.004   8.811   1.375  0.1946  0.2818 -0.1334
13535W        W29719  10.028  15.202   2.947 -0.0572  0.0282 -0.0597
13536W        W29720  12.042   9.844  12.385  0.0602  0.1937 -0.1347
13537W        W29721   6.877  11.769   0.955  0.0367  0.2282  0.1162
13538W        W29722   9.540   2.380  12.176  0.0283  0.4932 -0.0284
13539W        W29723  15.110  13.355   5.699  0.0001  0.1566  0.4007
13540W        W29724  11.649  10.649  14.041 -0.0081  0.0282  0.4640
13541W        W29725   2.244   5.366   1.356  0.1449 -0.0715 -0.2027
13542W        W29726  13.881  13.192   1.405  0.1826 -0.4159  0.2502
13543W        W29727  12.621  19.024   3.420  0.0464  0.0624 -0.0729
13544W        W29728  15.110   0.094   4.014 -0.1655  0.2295 -0.1132
13545W        W29729  16.237   5.894   3.137 -0.5239  0.3408  0.0750
13546W        W29730  17.959   2.819   9.994 -0.0895  0.3203 -0.2061
13547W        W29731  14.343   7.086   3.213  0.0033 -0.1927  0.0676
13548W        W29732   7.645  12.494  13.941  0.0288 -0.2159  0.0670
13549W        W29733   4.750  13.564  11.745  0.3953  0.0493  0.0470
13550W        W29734   8.208  12.561  14.768  0.1118  0.0928  0.0579
13551W        W29735  10.594   2.553   2.381  0.2411  0.1542 -0.3237
13552W        W29736   4.463   0.468  10.971  0.1225 -0.3232  0.1046
13553W        W29737  14.527   8.431   2.711  0.2938  0.2154 -0.1608
13554W        W29738  15.844   5.224  10.119  0.0891 -0.2210  0.2848
13555W        W29739  10.961   0.376   4.188  0.2719 -0.0234  0.0662
13556W        W29740   4.369   2.842   2.698  0.3152 -0.0561 -0.1445
13557W        W29741  10.125   9.874   4.607 -0.0145  0.1628 -0.1290
13558W        W29742   0.181   0.301   0.718  0.1170  0.1096 -0.1363
13559W        W29743   4.802  11.756   2.072  0.0272  0.2032  0.0139
13560W        W29744   0.406   1.227  12.210 -0.1383 -0.1595 -0.0047
13561W        W29745  14.886   6.098   1.274 -0.0288 -0.0093 -0.2417
13562W        W29746   9.877  17.649  10.906 -0.0524  0.1984  0.0644
13563W        W29747  17.252  17.919  11.554  0.1160  0.1774 -0.0108
13564W        W29748  17.409  13.220   4.161 -0.6798  0.2441 -0.1125
13565W        W29749   7.828  11.034  11.698  0.1825  0.1848  0.0169
13566W        W29750   0.233   3.909  12.133  0.2229  0.1370 -0.0059
13567W        W29751   5.733  13.441  10.350 -0.1515 -0.0697 -0.3645
13568W        W29752  11.426  10.532   0.139  0.2022 -0.3436  0.1253
13569W        W29753   0.578   2.028   5.013 -0.2092  0.0506  0.0351
13570W        W29754   7.539  12.174   4.249 -0.0777  0.1285 -0.3599
13571W        W29755  11.280   0.411  12.333  0.1703 -0.2448 -0.0738
13572W        W29756   3.119   0.179   2.345 -0.0030 -0.0146  0.5105
13573W        W29757   7.787  16.047   2.465  0.1191 -0.1794 -0.1317
13574W        W29758  14.761  15.279   0.871 -0.1936  0.1151  0.0039
13575W        W29759   4.784   5.580  13.679 -0.1917 -0.3025  0.0533
13576W        W29760   9.879   9.314   3.951 -0.0143 -0.2050 -0.2036
13577W        W29761   2.380  16.366   4.556  0.0769  0.1237  0.1093
13578W        W29762   4.950  15.195  11.563  0.0620 -0.1020  0.0644
13579W        W29763  19.013   0.394  10.538  0.1684 -0.0784 -0.0628
13580W        W29764  16.677  14.523   5.017  0.0293 -0.0275  0.3269
13581W        W29765  15.066   1.829   1.664  0.0022 -0.1219 -0.0505
13582W        W29766   9.116   4.979  13.695 -0.0673  0.0574 -0.1112
13583W        W29767   7.432  18.557  11.120 -0.0673 -0.2393 -0.3095
13584W        W29768  13.863  11.174  11.683 -0.2014 -0.1489 -0.0742
13585W        W29769  14.332   4.491  10.107 -0.1266 -0.0003  0.2334
13586W        W29770   6.158  14.848   5.662  0.2634  0.1654  0.0354
13587W        W29771   2.266   5.651   3.137 -0.1191  0.0822  0.2864
13588W        W29772  10.166   4.024   3.389  0.3011 -0.0361  0.2060
13589W        W29773  10.895  12.682  11.062  0.0511  0.1900 -0.2386
13590W        W29774   6.018   1.876  11.119 -0.2931 -0.1324  0.2517
13591W        W29775   4.928  18.537  11.282 -0.3909  0.0527 -0.0898
13592W        W29776  12.994   9.588   0.010  0.0146  0.4918 -0.1257
13593W        W29777   2.632  14.863  14.413  0.2184 -0.1097 -0.0772
13594W        W29778  18.788  16.683  14.904 -0.2246  0.4179 -0.1290
13595W        W29779  13.414   1.585   9.214  0.1996 -0.0349  0.1147
13596W        W29780  17.130   0.694   0.113 -0.0357 -0.0798  0.0350
13597W        W29781   8.733   2.356   0.931  0.0234  0.1300  0.2120
13598W        W29782   2.741   7.154  14.439  0.2453 -0.0421  0.0351
13599W        W29783   0.026  15.148   2.900  0.0969 -0.1606  0.1071
13600W        W29784  10.730   8.477   9.424 -0.3637  0.2356 -0.0217
13601W        W29785   9.214   6.294  14.584 -0.1530  0.1581  0.3804
13602W        W29786  18.445  11.711   3.299  0.3917  0.0589  0.0082
13603W        W29787  10.708   5.320   0.839  0.1013 -0.0637  0.3458
13604W        W29788   7.498  14.615  13.907  0.1297 -0.0535  0.0486
13605W        W29789   1.507   3.256   2.955 -0.2189 -0.1303  0.2801
13606W        W29790  11.461   3.718   3.010 -0.0489  0.3912 -0.0783
13607W        W29791   1.293  17.507   1.917  0.1444  0.0280  0.0846
13608W        W29792  11.500  14.029  11.777 -0.0505 -0.1201 -0.0080
13609W        W29793   7.953  17.365   2.090 -0.0439 -0.0390 -0.1748
13610W        W29794   0.314  19.171  12.175  0.1413  0.1336  0.1509
13611W        W29795   6.177  12.927   4.540  0.2254 -0.2491  0.0554
13612W        W29796   7.882   1.513   3.503 -0.1947 -0.1127  0.1878
13613W        W29797  14.474  12.931   1.856  0.0809 -0.3989 -0.0197
13614W        W29798  11.898   0.198  10.764  0.0082  0.2833 -0.1105
13615W        W29799   6.367   6.790   0.922 -0.0503  0.0514  0.2039
13616W        W29800   3.597   2.848  12.240  0.0938  0.1223 -0.1199
13617W        W29801  13.089   7.329   4.510  0.1325  0.1915  0.1640
13618W        W29802  11.572   6.751   9.948 -0.1137  0.3552  0.0481
13619W        W29803   1.132  14.693   3.363 -0.4638  0.2267  0.0860
13620W        W29804   8.481  10.545  10.537  0.0767 -0.0278 -0.0152
13621W        W29805  11.560  14.385   0.767  0.0719 -0.1242  0.1220
13622W        W29806   3.998   7.793  12.605 -0.1479  0.1066  0.1112
13623W        W29807   4.494  18.496  10.412 -0.0356  0.4131 -0.1885
13624W        W29808   2.575   8.274  14.490 -0.1686 -0.2901  0.0604
13625W        W29809  11.440   3.311  14.058  0.2955  0.0828  0.0135
13626W        W29810   4.876   5.989  11.133 -0.0936 -0.1887  0.0111
13627W        W29811   8.521  18.699   4.250 -0.1102  0.1721  0.1808
13628W        W29812   0.184   3.035  13.642  0.2529  0.0239  0.1336
13629W        W29813   8.988  14.351   2.337 -0.4121  0.0979 -0.2433
13630W        W29814  17.315  13.643  14.376 -0.2290 -0.0712 -0.1582
13631W        W29815  12.956  15.472   3.125 -0.1780 -0.3084 -0.3055
13632W        W29816  18.851   3.551   4.410  0.1636 -0.2823  0.1116
13633W        W29817  11.746   6.668  12.170 -0.0715 -0.0281 -0.0710
13634W        W29818  10.522   2.861   4.357  0.0188 -0.0211 -0.0525
13635W        W29819  16.968   2.993  12.080 -0.0569  0.2298  0.1145
13636W        W29820  10.855  15.361  10.714  0.0543 -0.2780  0.1308
13637W        W29821   6.916  12.521  11.915  0.0392 -0.1337  0.1891
13638W        W29822  11.100  14.364  12.568  0.0673 -0.1054  0.0421
13639W        W29823  13.882  10.077   4.543  0.2149  0.3391 -0.1623
13640W        W29824  16.608   6.346  10.416 -0.0525  0.2851  0.0480
13641W        W29825  17.165  16.472   3.253  0.3881 -0.0057  0.2750
13642W        W29826  10.758   4.999   2.655 -0.1867 -0.1917  0.0141
13643W        W29827  18.657  16.960   1.049  0.4221  0.0096 -0.1208
13644W        W29828   4.512   6.712   3.558  0.1772  0.0344  0.2439
13645W        W29829   4.532  18.051   2.275  0.3320  0.1309 -0.1361
13646W        W29830  12.058   7.371   3.872 -0.0798  0.2887  0.1638
13647W        W29831   4.835  17.560   3.078  0.0446 -0.1045 -0.1430
13648W        W29832  14.428  13.839  13.088 -0.1502  0.1770 -0.0586
13649W        W29833   6.048  13.671   2.596  0.3541  0.0496 -0.2002
13650W        W29834   0.284   1.563   3.850  0.1994  0.0500 -0.0215
13651W        W29835   0.400   4.675  13.049 -0.0681  0.1312 -0.0220
13652W        W29836  10.766   9.973   5.285  0.2295  0.1377  0.2922
13653W        W29837  14.806   1.413   1.422  0.0791 -0.2390  0.1623
13654W        W29838  15.450  17.371  13.350 -0.0359 -0.0050  0.2723
13655W        W29839   3.960   3.148  14.442 -0.1691  0.0773  0.1168
13656W        W29840  14.128  15.161  11.303 -0.0695  0.1265  0.1814
13657W        W29841   6.720   3.227   2.799  0.1630 -0.1454  0.1469
13658W        W29842  15.234   9.721   0.224 -0.0201 -0.0775 -0.1844
13659W        W29843   6.551  18.676   4.334  0.0630  0.1106  0.0404
13660W        W29844   5.204  13.150  11.023  0.3071 -0.4905  0.1659
13661W        W29845  11.614   8.306   1.420  0.0691  0.0170 -0.2572
13662W        W29846   0.840   2.487   3.053  0.2551  0.0080 -0.0499
13663W        W29847   0.751  17.119   5.784  0.1106  0.2884  0.1514
13664W        W29848   9.241   9.836   4.332  0.1388 -0.2158  0.2881
13665W        W29849   1.343   7.744  14.890 -0.1827 -0.2176 -0.0434
13666W        W29850  16.404   0.113  10.192 -0.2191  0.0170  0.0287
13667W        W29851  18.141   9.602  12.081  0.1066 -0.0365  0.1266
13668W        W29852   0.056  10.062  12.332 -0.3985  0.0141 -0.2106
13669W        W29853   0.683  11.979   1.937  0.0007  0.0581  0.4085
13670W        W29854  11.956   9.137   9.957 -0.0466 -0.0179 -0.2746
13671W        W29855  18.382  15.847  12.889 -0.0912  0.0533  0.2430
13672W        W29856  13.986   3.919   4.510 -0.6136 -0.0989  0.1211
13673W        W29857  19.281  14.346   1.713  0.3357  0.1208  0.0121
13674W        W29858   2.250   4.528   0.610  0.3311  0.3458  0.1268
13675W        W29859   2.378   6.360  12.530  0.4323 -0.0022 -0.4278
13676W        W29860  11.780  10.826   0.311 -0.0930  0.1821 -0.2014
13677W        W29861  15.119   9.057   4.635  0.0572  0.0272  0.3453
13678W        W29862  14.732  18.816  13.387  0.0154 -0.1752 -0.1902
13679W        W29863   5.221  12.909   3.898 -0.0400  0.0574 -0.2847
13680W        W29864  16.742   0.615   9.495 -0.0239 -0.1637  0.1449
13681W        W29865   6.139   0.082  13.065 -0.0352  0.1119 -0.0517
13682W        W29866   3.539   9.909   0.801 -0.0560 -0.2316 -0.1513
13683W        W29867  13.663  16.572  14.555  0.2031 -0.2113  0.1613
13684W        W29868   1.810   5.513  13.461 -0.1623  0.0375 -0.0118
13685W        W29869   3.716   5.367  12.091  0.1748 -0.3066  0.0924
13686W        W29870   9.028  19.156  13.126  0.0982  0.0432 -0.2577
13687W        W29871   2.101   8.874  12.873  0.1090 -0.0210  0.1310
13688W        W29872  12.620  10.314  10.391 -0.1324  0.4525 -0.1764
13689W        W29873  11.862   6.537  10.415  0.2735 -0.1450  0.0486
13690W        W29874  14.336   8.463  13.373  0.0492  0.2776  0.2361
13691W        W29875  11.325   3.447   0.851 -0.3822 -0.0960 -0.0964
13692W        W29876   7.954  16.901   4.965  0.1597 -0.1472  0.0672
13693W        W29877   2.601   1.537  12.955 -0.1429 -0.0000  0.1846
13694W        W29878  18.947   5.198   1.000 -0.1886  0.1529  0.1063
13695W        W29879   5.116   5.919   5.145  0.1349 -0.0603  0.3267
13696W        W29880   9.257   1.725   1.609  0.2088 -0.0488 -0.1940
13697W        W29881   8.479   8.240   1.344  0.0771 -0.0872 -0.0132
13698W        W29882   2.326   0.529   3.848 -0.1426  0.1890  0.2759
13699W        W29883  18.563   5.760  11.015  0.5288 -0.0990 -0.2943
13700W        W29884   6.338   6.972   3.169 -0.0526  0.1439 -0.0595
13701W        W29885  16.558   5.993  11.913 -0.3135 -0.1772 -0.0283
13702W        W29886   8.502   3.610  13.379  0.1387 -0.1003 -0.6587
13703W        W29887  13.599   7.419   4.552 -0.0348  0.2405  0.3695
13704W        W29888   4.606  15.438  14.249 -0.3512 -0.1897  0.4444
13705W        W29889  18.168   7.035   1.753 -0.0782 -0.0905  0.0479
13706W        W29890   2.024  17.696  12.344 -0.0258  0.1366 -0.2009
13707W        W29891  13.381   0.791  10.884  0.0932 -0.0979  0.0408
13708W        W29892   6.465   4.504   2.640  0.0749  0.2499 -0.0928
13709W        W29893  14.469   3.694   0.729  0.0631 -0.0534 -0.0613
13710W        W29894  15.860   5.299   3.323  0.3892  0.0921  0.2352
13711W        W29895   8.152  13.437   2.402 -0.3321 -0.0629  0.2597
13712W        W29896   1.497   7.542   2.398  0.0506  0.4150  0.2333
13713W        W29897   9.761  12.807  11.583 -0.1959 -0.2578 -0.0894
13714W        W29898  18.912   9.626  10.578  0.2008  0.2153  0.4123
13715W        W29899  10.588   1.405  13.036  0.1430 -0.2471  0.0902
13716W        W29900   7.981  13.377   4.186  0.1020 -0.2868  0.0541
13717W        W29901  14.718  15.994   0.002  0.1435 -0.5019  0.1836
13718W        W29902  18.898   6.842  13.450 -0.1287  0.1051 -0.1494
13719W        W29903   2.354   3.333   0.014 -0.1954  0.2916  0.2816
13720W        W29904  15.219   7.029   1.252 -0.0475 -0.1037  0.1166
13721W        W29905  13.427   2.775   2.513 -0.0031 -0.2671  0.0773
13722W        W29906   7.033   4.147  13.103  0.0397 -0.2098 -0.2175
13723W        W29907   4.256  15.909  14.330  0.0086  0.1000 -0.0011
13724W        W29908   5.492  18.779  12.019 -0.1273  0.0385 -0.1508
13725W        W29909   0.418   4.735  13.553  0.0994 -0.1427  0.0691
13726W        W29910  10.020   0.221  11.500  0.1578  0.2445  0.1273
13727W        W29911   8.062  18.287  12.937  0.2358 -0.1745 -0.4517
13728W        W29912  17.346  16.349  10.559  0.0569 -0.1235 -0.0355
13729W        W29913  12.928  17.366  12.773  0.2178  0.0304 -0.0862
13730W        W29914  16.751   5.752  11.413 -0.0187  0.3065  0.0444
13731W        W29915  11.902   6.558   1.631 -0.4216 -0.3815  0.1530
13732W        W29916   5.087   5.123   9.853 -0.0387 -0.1150  0.1556
13733W        W29917  11.949   0.578   1.804 -0.0460 -0.0560 -0.0511
13734W        W29918  17.441  17.312  14.725 -0.1031 -0.0372  0.2976
13735W        W29919   6.673   8.846  11.482 -0.1229 -0.0440  0.0017
13736W        W29920   4.524   6.052  13.487 -0.0656 -0.0751  0.0201
13737W        W29921   5.115  11.890   1.641  0.0909  0.1213 -0.0392
13738W        W29922  12.625  14.511   0.928 -0.1685  0.4663 -0.0400
13739W        W29923  10.717   9.942   4.784  0.2196  0.1237 -0.1796
13740W        W29924   4.585  11.266   1.963  0.0510 -0.0026  0.4249
13741W        W29925  15.005  17.105  14.636 -0.0876 -0.2692 -0.0127
13742W        W29926   3.290  13.145  13.978  0.4127 -0.1870 -0.1526
13743W        W29927   5.477  16.022  12.587  0.1382 -0.1089 -0.2532
13744W        W29928   7.546   2.544  12.167 -0.0705  0.1187  0.0125
13745W        W29929   0.937  17.861   2.736  0.0439 -0.1263  0.0404
13746W        W29930   9.034   0.136  10.520  0.0286  0.4831 -0.0423
13747W        W29931   1.507  16.713   2.476 -0.0795  0.1741 -0.0938
13748W        W29932  14.592   7.322   0.081  0.1310 -0.2137 -0.0660
13749W        W29933   3.121   8.083  12.575  0.2858  0.0510  0.1622
13750W        W29934  14.695   5.404  14.144  0.2955 -0.2655 -0.0475
13751W        W29935   1.120   3.867  13.157  0.0374 -0.0834 -0.0715
13752W        W29936  12.356  16.080   3.473  0.1192  0.1045  0.3073
13753W        W29937  13.442   7.371   1.290  0.0452  0.0563  0.1881
13754W        W29938  15.504   8.687  12.374 -0.0074  0.2335 -0.0196
13755W        W29939   2.502  16.199   2.260  0.1357 -0.0480  0.0813
13756W        W29940  11.200   0.225  13.992  0.0399  0.1080  0.0284
13757W        W29941   9.971  13.474   1.252  0.0329  0.0409 -0.0969
13758W        W29942   7.188   6.088  12.375  0.2479  0.0576  0.0267
13759W        W29943  11.664   0.662   0.775 -0.0451  0.0425 -0.1204
13760W        W29944   5.682   9.312   4.352 -0.2502 -0.0462  0.4282
13761W        W29945   3.062  12.906  12.297  0.3472 -0.3317 -0.1300
13762W        W29946  15.300   1.191   2.199  0.2647 -0.0328  0.1324
13763W        W29947   5.015  11.635  14.849 -0.2855 -0.1544 -0.0432
13764W        W29948   1.793  16.838   2.046  0.0579  0.0542 -0.2174
13765W        W29949  18.159   3.777   3.671 -0.0500  0.0169  0.1942
13766W        W29950   0.455   8.081   3.149 -0.1642  0.1523  0.2962
13767W        W29951   6.880  15.367  11.563 -0.1081 -0.1934 -0.3757
13768W        W29952  18.055  12.657   5.165  0.3108  0.1126 -0.0799
13769W        W29953   3.853   6.144   4.374 -0.0618  0.2972  0.0004
13770W        W29954   1.293  14.479   0.665  0.1856  0.3837 -0.0896
13771W        W29955   8.077   1.861  14.275  0.1178  0.2070  0.0788
13772W        W29956   0.088  15.175  13.923  0.3473 -0.1591 -0.3764
13773W        W29957   2.137  14.689   0.139  0.0475 -0.0412  0.0817
13774W        W29958  11.343   9.219   0.928  0.1483  0.0270  0.0247
13775W        W29959   3.733   6.572  11.891 -0.0306  0.2467  0.0994
13776W        W29960   6.604  19.277  11.081 -0.1858 -0.0552  0.3127
13777W        W29961   3.945  16.878  10.597 -0.0294 -0.1708 -0.0889
13778W        W29962   4.649   7.525   0.187  0.1788 -0.0048 -0.0542
13779W        W29963  14.541  12.419  14.758 -0.1397 -0.0315  0.0129
13780W        W29964   3.924   3.242   4.625  0.1576 -0.0520 -0.0085
13781W        W29965   5.403   7.047  14.780  0.3015  0.2069 -0.1862
13782W        W29966   2.051   3.037  13.718  0.2466  0.1582 -0.0711
13783W        W29967   5.237  18.910  13.031  0.0672 -0.5289  0.2635
13784W        W29968  13.257   6.352   3.302 -0.3684  0.0489 -0.1659
13785W        W29969  17.916  16.384   1.196  0.3488 -0.0617 -0.2534
13786W        W29970  15.370   3.550  13.382  0.2333  0.2662  0.0918
13787W        W29971  16.582   6.737  12.439 -0.1192 -0.1140 -0.2439
13788W        W29972  10.760   9.627  14.217 -0.1784  0.0135  0.1360
13789W        W29973   5.692  11.734   3.226  0.1500 -0.2993 -0.2443
13790W        W29974   3.782   1.860  14.198  0.2628  0.1993  0.0472
13791W        W29975   4.097  10.621  11.132  0.0847 -0.1842 -0.3182
13792W        W29976  18.461   1.196   4.484 -0.2110 -0.1198 -0.0200
13793W        W29977  15.137  15.060   5.611  0.1831  0.1215 -0.3280
13794W        W29978  11.175   5.525  11.872  0.1262 -0.2486  0.0671
13795W        W29979  16.578   5.676   5.229  0.0182 -0.2350  0.2528
13796W        W29980   6.387   2.799  12.303 -0.1795  0.0045 -0.0311
13797W        W29981  19.265  15.553   4.665 -0.1660 -0.1371 -0.2268
13798W        W29982   2.208  10.048   2.298 -0.3372 -0.3146 -0.0254
13799W        W29983  17.141  14.645  13.581 -0.0369  0.2252  0.0140
13800W        W29984   5.606   1.389  12.562 -0.2316  0.1273 -0.2811
13801W        W29985  16.886  10.212  12.762 -0.1655  0.1652  0.0919
13802W        W29986  15.601  13.578   1.357  0.0336  0.0972  0.4336
13803W        W29987   4.167  18.483  11.881 -0.3010  0.1372 -0.0488
13804W        W29988   9.200  15.309  13.122 -0.3001 -0.4270  0.1109
13805W        W29989   3.916  13.584  10.854 -0.2070 -0.2014 -0.3889
13806W        W29990  10.098   7.291   1.838 -0.1769  0.0065  0.3882
13807W        W29991   8.073   9.478   2.358  0.0702 -0.0073 -0.3551
13808W        W29992   0.163  18.001  12.731 -0.1234  0.2593  0.0316
13809W        W29993   8.061  18.126  11.938  0.0072 -0.1829 -0.0917
13810W        W29994   9.305   2.676   2.115 -0.1772  0.2199  0.0207
13811W        W29995   3.612   9.433   0.266 -0.3842 -0.1719  0.2585
13812W        W29996  16.447  16.017  13.956 -0.3834  0.0222  0.1983
13813W        W29997   5.718  16.957   3.534 -0.1406 -0.1856 -0.1630
13814W        W29998  15.686   8.924  11.897 -0.3837  0.3126  0.3436
13815W        W29999   3.833  11.917  12.290  0.1268 -0.1529  0.0138
13816W        W30000   2.869  16.912   0.545  0.1072  0.1631 -0.4483
13817W        W30001  17.067  14.322  13.199  0.0910  0.2357  0.0727
13818W        W30002  13.020  19.325   5.155 -0.0221  0.1798 -0.3459
13819W        W30003  18.411  14.900  14.070  0.0488 -0.1861  0.1661
13820W        W30004  14.039  11.416  10.625  0.0330  0.3764 -0.2110
13821W        W30005   6.357  10.568  11.705 -0.3109  0.1426  0.2109
13822W        W30006   3.686  17.751  14.246 -0.1108  0.0683  0.0550
13823W        W30007  10.677   8.156   2.416 -0.2137 -0.0831  0.0445
13824W        W30008   4.307  10.719   5.246  0.2481 -0.0061 -0.4226
13825W        W30009   0.141   5.456  14.781  0.0045  0.0364  0.1956
13826W        W30010  11.678   9.793   5.392 -0.2260 -0.0056  0.1254
13827W        W30011   8.410  17.539  14.750 -0.1671  0.1414 -0.2279
13828W        W30012  10.364  15.082   4.116  0.0843 -0.2975  0.1863
13829W        W30013   4.691   0.212   3.381 -0.0598 -0.1522 -0.0573
13830W        W30014  10.690  15.708  12.403 -0.0567 -0.2023 -0.1845
13831W        W30015   9.435   1.533   3.685  0.1028 -0.1692  0.1336
13832W        W30016  12.398   7.780  10.504  0.1335 -0.2669 -0.1654
13833W        W30017   3.201   7.968  12.004 -0.0257  0.1954  0.1421
13834W        W30018  14.172  18.165  14.541 -0.0062  0.3565 -0.2290
13835W        W30019   3.914   2.566  14.608 -0.0444  0.0160  0.1913
13836W        W30020  13.766  15.388   4.337  0.2034  0.0077 -0.1846
13837W        W30021  13.302  18.712  12.312  0.1134 -0.2397  0.0321
13838W        W30022  17.870   7.752   4.670  0.1175 -0.1155  0.0569
13839W        W30023   3.404   3.833  11.122 -0.0008 -0.0180  0.0126
13840W        W30024   1.423   1.629  14.825  0.2553 -0.0317  0.0674
13841W        W30025   0.467  17.159   3.263 -0.1828 -0.2270 -0.2645
13842W        W30026  19.067  13.403  11.680  0.1936 -0.0034 -0.0318
13843W        W30027  14.793  18.432   1.934 -0.0788 -0.2663 -0.1663
13844W        W30028   9.152  13.728   3.753  0.3305  0.0036  0.1329
13845W        W30029  16.279   5.029  11.899 -0.0916  0.2161  0.0007
13846W        W30030  13.424  12.189  14.159 -0.1548 -0.2693 -0.0454
13847W        W30031  15.423  13.973  13.486  0.0972  0.0808 -0.2984
13848W        W30032  16.433   2.289   1.255 -0.0694  0.0978  0.2044
13849W        W30033   2.450   5.333  12.381 -0.1374  0.0401  0.0599
13850W        W30034   6.390   5.322  10.090 -0.3268  0.0939 -0.1821
13851W        W30035   6.404   5.751   4.585 -0.3971  0.3254  0.1427
13852W        W30036   9.325  11.094   4.200  0.3072 -0.2194  0.1289
13853W        W30037  16.709  16.047   4.768 -0.2759 -0.0539  0.0029
13854W        W30038   8.103   1.871  11.601 -0.2164  0.0706  0.0769
13855W        W30039   9.141  10.450  11.370  0.4047  0.0154  0.1830
13856W        W30040   4.548   7.346   0.688  0.2889  0.1732  0.0607
13857W        W30041  10.322   8.254   3.228  0.0244 -0.0144  0.0599
13858W        W30042  13.749   1.459   4.175 -0.2214 -0.3091  0.0860
13859W        W30043  19.261   8.513   3.809 -0.0374 -0.2588 -0.0408
13860W        W30044   1.480   3.977  14.034  0.1565 -0.1145 -0.0096
13861W        W30045  17.779   7.054   2.067 -0.1834 -0.0529  0.0307
13862W        W30046  18.422   0.954   1.420  0.1781  0.1352 -0.1329
13863W        W30047  18.079   1.302   3.354 -0.1481  0.1686 -0.4244
13864W        W30048   9.585   2.141  12.920  0.2547 -0.3268  0.0896
13865W        W30049  12.960   2.162  13.454  0.1688  0.1695  0.0399
13866W        W30050  12.126  14.842   0.983 -0.1100 -0.0596  0.1755
13867W        W30051  14.386   5.929  13.990  0.1349  0.2676 -0.2124
13868W        W30052  16.863  12.112   1.092  0.2240 -0.5146 -0.1470
13869W        W30053  11.275  16.116  12.563  0.1670  0.3663  0.0761
13870W        W30054   4.407   6.274  11.457 -0.4123  0.2241  0.3185
13871W        W30055   0.076   0.077   2.484  0.1647 -0.0812 -0.3218
13872W        W30056  16.195   5.657  10.103  0.0119  0.1036 -0.0954
13873W        W30057  11.081   2.509   1.443  0.1374  0.1651 -0.0967
13874W        W30058  12.317   8.885  13.922  0.3238  0.1327 -0.0153
13875W        W30059  14.928   4.363  13.709 -0.0531  0.1210 -0.1317
13876W        W30060   7.974  12.887   4.115 -0.0128 -0.3441 -0.4590
13877W        W30061  11.834  11.526  10.339 -0.5389 -0.1434  0.1848
13878W        W30062  11.256  14.818  13.336  0.0807 -0.0054 -0.3103
13879W        W30063  17.140  15.184   0.760 -0.0109  0.0569 -0.0881
13880W        W30064   0.791   6.315   4.655  0.2656 -0.0897 -0.1861
13881W        W30065   5.026  10.004   1.860 -0.3429  0.1069 -0.0447
13882W        W30066  13.735  18.809  14.834 -0.0914 -0.2372 -0.3997
13883W        W30067   7.589  17.491   1.652  0.1403 -0.2505 -0.2348
13884W        W30068  18.807  16.843  13.142  0.1100  0.0789 -0.0721
13885W        W30069  12.875  16.881   2.900  0.3746 -0.0928  0.4144
13886W        W30070  10.745   3.684  12.407  0.2879  0.0608  0.2189
13887W        W30071  16.464  10.943   1.335  0.0583  0.0541 -0.2033
13888W        W30072  16.176   7.147   0.050 -0.1880 -0.0511 -0.0182
13889W        W30073  16.018  12.646   2.306 -0.0249 -0.1664 -0.1304
13890W        W30074  15.058   5.474   9.839  0.1948  0.2151  0.7892
13891W        W30075  18.743   8.406  10.202 -0.0214  0.1102 -0.2443
13892W        W30076  17.976  17.534   2.596 -0.1305 -0.0974 -0.1022
13893W        W30077  15.389  17.154   3.263  0.1746 -0.1537  0.2515
13894W        W30078   7.048   6.171   0.471 -0.2458 -0.1551  0.2097
13895W        W30079  13.443  13.213  14.824  0.0696  0.1662  0.2121
13896W        W30080   0.416  13.229   3.189  0.2317 -0.0078  0.0810
13897W        W30081   7.986  12.448  10.699 -0.3369  0.3800  0.1363
13898W        W30082   4.613   9.431  13.547 -0.1107 -0.0064 -0.1704
13899W        W30083   3.168   2.715   1.865 -0.0912  0.3722 -0.2297
13900W        W30084   4.751   5.330  13.064 -0.0129 -0.0695 -0.0303
13901W        W30085  11.153   4.276   3.056 -0.0128 -0.0286 -0.0388
13902W        W30086   2.379   1.375   0.858  0.2828 -0.2631 -0.1015
13903W        W30087  17.423  12.605   1.327  0.5224 -0.1832 -0.1315
13904W        W30088   1.117  12.431  14.584  0.3446 -0.1187 -0.1168
13905W        W30089  13.818  16.234  11.534  0.0665 -0.5572  0.5263
13906W        W30090  18.215   1.333   1.905  0.0286  0.0557  0.1060
13907W        W30091   5.709  12.482   4.698  0.0138 -0.0318  0.1725
13908W        W30092  16.639   9.463  10.390  0.1425 -0.0627 -0.0506
13909W        W30093   5.031  11.838   4.318  0.0595 -0.1615 -0.1138
13910W        W30094   0.793  18.119  10.472  0.1613 -0.0607 -0.1405
13911W        W30095   5.890  12.478  14.825 -0.1099  0.1193 -0.1268
13912W        W30096   0.166  15.186   4.924 -0.0531 -0.2489  0.2718
13913W        W30097  11.266  14.755   4.168  0.0462  0.0077 -0.4062
13914W        W30098  11.040  19.193  13.653  0.0393  0.2650  0.0528
13915W        W30099   6.833   6.017  12.706  0.0431  0.1843  0.0466
13916W        W30100   5.427   3.895   2.021 -0.2670  0.1664 -0.1685
13917W        W30101  12.829  16.920  12.975  0.0897  0.4650 -0.1819
13918W        W30102  10.708   8.956  11.190 -0.2275  0.3391 -0.1781
13919W        W30103   9.892   9.495   0.350 -0.1742  0.0902  0.2721
13920W        W30104  14.626   3.215  12.762 -0.2325 -0.1248  0.3414
13921W        W30105  11.278  10.851   1.301  0.1370  0.1673 -0.0391
13922W        W30106  14.192   0.941   1.228 -0.0475 -0.1244  0.3184
13923W        W30107  17.338  19.167   1.478 -0.2203 -0.1421  0.2371
13924W        W30108   1.967  11.789  13.512 -0.0315 -0.2457  0.0617
13925W        W30109   6.756  12.034   3.729 -0.0010  0.0006 -0.2944
13926W        W30110  12.710  18.631  13.223  0.0344  0.1561  0.3622
13927W        W30111   9.701   3.034   1.717  0.0790 -0.1608 -0.0142
13928W        W30112   8.842   8.976  14.367 -0.0057 -0.3454  0.0792
13929W        W30113   6.732   9.334   5.391  0.6660  0.3880 -0.4018
13930W        W30114  12.641  17.877   5.178  0.0351 -0.1805  0.0674
13931W        W30115   8.697   6.856   0.079  0.0543 -0.1424 -0.1174
13932W        W30116   7.782   1.518   4.112 -0.0203  0.4228 -0.2434
13933W        W30117  14.316   5.512   1.632 -0.0613  0.3436 -0.1505
13934W        W30118   8.545  12.354  11.600  0.0213  0.3164  0.0851
13935W        W30119  15.935  16.289  13.981  0.0697 -0.0361  0.1823
13936W        W30120   7.855  10.369  11.221 -0.1276 -0.1189 -0.4157
13937W        W30121  11.297  12.551   2.571 -0.1373  0.1308  0.2321
13938W        W30122  12.484   9.556   0.147  0.0658  0.0612  0.0117
13939W        W30123  11.648   6.835   5.277 -0.1134  0.1471  0.2415
13940W        W30124  14.318   0.258  12.463 -0.4171 -0.0971  0.4081
13941W        W30125  12.894   9.446  11.723  0.0168 -0.5302 -0.5428
13942W        W30126  10.861  12.567   0.343  0.2331 -0.3331  0.0576
13943W        W30127   5.147   9.554   2.106 -0.0257 -0.0900  0.1564
13944W        W30128  13.243   2.988   2.944  0.1507  0.0760  0.1807
13945W        W30129   6.123   4.976  12.812  0.0644  0.1867 -0.1032
13946W        W30130   6.738   1.433   9.894  0.4307  0.1103  0.1301
13947W        W30131   7.774   0.855  11.476 -0.2214 -0.1311  0.0109
13948W        W30132   5.884   3.173   2.052 -0.0062  0.4017 -0.0690
13949W        W30133   3.104   6.427   3.744  0.2305 -0.1923  0.0191
13950W        W30134   7.534   8.905  13.983  0.0305 -0.2521  0.0859
13951W        W30135  13.980   1.933  10.769  0.4380 -0.0116 -0.2723
13952W        W30136  17.572   9.013  13.360 -0.2854 -0.0819  0.1246
13953W        W30137  15.145   2.491   5.147  0.1190  0.1471  0.3043
13954W        W30138  10.544  16.073  13.154  0.4457  0.1070 -0.1090
13955W        W30139  13.779  13.649   5.501 -0.0110  0.2595  0.0887
13956W        W30140  14.847  11.872  13.322  0.3514  0.0891 -0.0049
13957W        W30141   1.779   8.326   5.533  0.0142 -0.3337 -0.1248
13958W        W30142  16.087  14.669   2.186 -0.0430 -0.0586  0.0445
13959W        W30143   0.099  17.231   2.823  0.4900 -0.2146 -0.1869
13960W        W30144  17.208   7.446  12.344 -0.2003  0.2364 -0.0927
13961W        W30145  17.393  16.504  12.354  0.2847  0.0800 -0.2579
13962W        W30146  10.840  14.648   0.096  0.1226 -0.0612 -0.0620
13963W        W30147  18.549  12.729  13.353  0.0141 -0.0238  0.1291
13964W        W30148   2.027   9.133   3.321  0.1635 -0.2045  0.0197
13965W        W30149   8.249   9.834  12.409 -0.2787  0.1119 -0.0008
13966W        W30150   2.639  16.173  14.575 -0.1170  0.4065  0.1607
13967W        W30151   3.080   7.159   1.314  0.0820 -0.1059  0.2796
13968W        W30152   1.401   4.068   2.983 -0.1694 -0.1213  0.2548
13969W        W30153  11.249  17.406   3.023 -0.1240 -0.1719  0.0933
13970W        W30154  18.740  16.344  14.256  0.0522  0.2108  0.1664
13971W        W30155   4.192   8.625   3.442  0.0077 -0.1095  0.0461
13972W        W30156  16.853  10.851   2.535 -0.0040 -0.2183  0.1711
13973W        W30157  11.426   3.013   1.182 -0.0977 -0.0858  0.0547
13974W        W30158  13.103   8.491   1.962  0.0859  0.2356  0.2118
13975W        W30159   1.412  12.535   0.579 -0.2691 -0.5033  0.0844
13976W        W30160   8.013  13.711   5.759 -0.3600  0.0166 -0.0593
13977W        W30161  15.470   5.630   3.389 -0.2501 -0.0298 -0.2633
13978W        W30162  18.961  16.484  13.745 -0.0276  0.1017 -0.2691
13979W        W30163   1.595   4.374   4.352 -0.1020  0.0979 -0.0407
13980W        W30164   0.934   1.668  10.329  0.0770 -0.1628  0.4441
13981W        W30165  11.520  10.401   1.144 -0.0057 -0.0269  0.0317
13982W        W30166   8.369   0.281   2.929 -0.1338 -0.1819  0.3159
13983W        W30167  19.131  17.659   0.369 -0.0655  0.0889  0.0481
13984W        W30168  15.084  10.871   0.252  0.4196 -0.0993 -0.0572
13985W        W30169  18.603  13.095  12.222  0.3228 -0.1876  0.1943
13986W        W30170   6.229   6.249  11.214  0.0986  0.4010  0.1178
13987W        W30171  18.908   2.025   4.190  0.2908  0.1771 -0.0177
13988W        W30172   4.456  19.351   4.887 -0.2423 -0.4009 -0.4158
13989W        W30173   1.770  16.791   0.684 -0.0210 -0.1032  0.2558
13990W        W30174  11.891   6.100  14.755  0.1237 -0.1710 -0.2287
13991W        W30175   0.408  15.843  12.776  0.0595  0.1266  0.0749
13992W        W30176  18.797  12.418  13.009  0.1854  0.0677 -0.0724
13993W        W30177  11.190   2.277  13.911  0.3237  0.0989 -0.0817
13994W        W30178   4.646   5.307  12.121 -0.3036  0.0105  0.1657
13995W        W30179  12.940   6.488   0.642  0.2851  0.0159  0.0579
13996W        W30180  10.488   5.234  10.675  0.0903 -0.0494  0.2481
13997W        W30181  15.674  14.124   1.438 -0.1138  0.4856 -0.0104
13998W        W30182  17.430  16.254   4.732 -0.3572  0.2785 -0.0741
13999W        W30183  18.548   7.981  13.473  0.1345 -0.0756 -0.0552
14000W        W30184   3.059   3.534   5.045  0.1022 -0.0904 -0.0281
14001W        W30185  10.787  17.480   2.699 -0.0204  0.0527 -0.0098
14002W        W30186  17.735   5.743   2.699 -0.3312 -0.0700 -0.3383
14003W        W30187  16.696   1.864   3.347 -0.1777  0.3107  0.2830
14004W        W30188   9.047  13.855   5.493  0.0363 -0.1745  0.2672
14005W        W30189   3.815   8.936   3.262 -0.2612 -0.0783 -0.2487
14006W        W30190   5.205  11.816  10.637 -0.1811 -0.0602  0.0696
14007W        W30191  11.680   7.006  10.326  0.3017  0.1720  0.2617
14008W        W30192   3.642  18.273   1.133  0.3744 -0.1163  0.0242
14009W        W30193   1.984  15.374  13.422  0.3870  0.1672 -0.1997
14010W        W30194   7.234   9.619   4.575 -0.2242 -0.1635 -0.0264
14011W        W30195  12.639  11.197   4.456 -0.1741 -0.2046 -0.1214
14012W        W30196   3.755  16.066  11.222  0.0192 -0.5032 -0.0693
14013W        W30197   0.735   4.702   4.464  0.1015  0.0835 -0.3040
14014W        W30198  14.590  19.126   4.898  0.0595  0.1344 -0.2643
14015W        W30199   3.326  12.648   1.039 -0.0585 -0.1988  0.2748
14016W        W30200  16.849   4.531  14.361  0.1829  0.0309 -0.0651
14017W        W30201  16.560  16.886   1.589 -0.1524 -0.4932  0.0525
14018W        W30202   7.879   7.975   2.070 -0.0380  0.0679 -0.0134
14019W        W30203   6.970   2.224  12.967  0.2356 -0.1187 -0.0849
14020W        W30204  16.430   8.025   1.218 -0.1431 -0.1345  0.1856
14021W        W30205   9.186   3.140   4.064 -0.0288 -0.0820 -0.0303
14022W        W30206  15.644  14.902  14.470 -0.0003  0.1457 -0.0495
14023W        W30207   1.150   0.882  14.167 -0.2349  0.0215  0.0680
14024W        W30208  13.675   6.862   2.543 -0.0183  0.2536  0.1795
14025W        W30209  13.480  17.808   1.378  0.0738 -0.3760 -0.5065
14026W        W30210   9.882   2.544   3.882  0.1925  0.0226 -0.1984
14027W        W30211   6.031   8.163   5.111  0.1070  0.1367 -0.0347
14028W        W30212  19.074   5.657  10.707  0.1259 -0.0289  0.0069
14029W        W30213  15.135   1.731   2.205 -0.0595  0.0306  0.3534
14030W        W30214   5.921   3.602   2.472 -0.1265 -0.0292  0.0894
14031W        W30215   0.643   9.305   5.013 -0.1177  0.2210  0.1027
14032W        W30216   5.148   5.300   1.137 -0.2972  0.1074 -0.0070
14033W        W30217   2.526  11.094   2.874  0.1164 -0.0597 -0.0025
14034W        W30218   0.649  15.881   3.393  0.0972 -0.1610  0.0890
14035W        W30219  16.040  10.964   1.613  0.2103 -0.4366 -0.0822
14036W        W30220   2.105   5.380   2.766  0.0144 -0.0935 -0.3177
14037W        W30221  13.345  15.067   3.562  0.2496 -0.1832  0.4734
14038W        W30222  17.309   7.953  12.371 -0.1087  0.0640 -0.1414
14039W        W30223  10.338  10.801   5.073  0.2188 -0.1488  0.1603
14040W        W30224  10.562   8.846  12.232 -0.3409  0.2013 -0.1271
14041W        W30225  11.386   2.054   0.727  0.1896 -0.1375  0.4651
14042W        W30226  11.522   4.172  10.283 -0.1978  0.1579  0.0519
14043W        W30227  15.313  11.479   3.427  0.1451 -0.3002 -0.0087
14044W        W30228   8.154  15.786  12.954  0.0635 -0.1290  0.1037
14045W        W30229  16.142  14.918   4.467  0.0048  0.0962  0.0830
14046W        W30230  16.245   2.322  10.298 -0.0865  0.0220 -0.3881
14047W        W30231   8.866   8.319   0.974  0.1008  0.1737 -0.2679
14048W        W30232   8.322   0.348   4.176 -0.0467  0.1296  0.2712
14049W        W30233   5.591   9.522  13.363  0.0594 -0.1889 -0.3200
14050W        W30234   3.260   9.595   1.404 -0.3296 -0.1468  0.2230
14051W        W30235  14.955   2.657  12.116  0.2068  0.1414 -0.1715
14052W        W30236  17.562  12.293   3.730 -0.1861  0.6141 -0.0488
14053W        W30237  15.545   0.160   1.253  0.2795  0.5612  0.2571
14054W        W30238  18.997  11.463  13.104 -0.1258  0.1213 -0.2106
14055W        W30239   4.937   0.464  10.771 -0.0949 -0.0941 -0.2933
14056W        W30240   5.051   1.626   4.799 -0.2488 -0.0619  0.1242
14057W        W30241  18.076   7.730  10.189 -0.1844 -0.4875  0.2224
14058W        W30242  12.823   3.716  13.823  0.0437  0.2089 -0.0377
14059W        W30243  10.072   5.868   3.220  0.0711 -0.1823  0.0191
14060W        W30244   3.956   5.399   2.788 -0.0113  0.0250  0.0533
14061W        W30245  17.664  14.357   2.133 -0.1129  0.0105  0.3728
14062W        W30246  14.296  14.142   1.202  0.0558 -0.0313  0.3109
14063W        W30247   8.799   0.654   2.770 -0.3390 -0.2969  0.0534
14064W        W30248   0.425   7.693  13.343 -0.1005 -0.1912 -0.1531
14065W        W30249   2.145  16.656  11.013 -0.2163 -0.1297 -0.0706
14066W        W30250   1.068   5.403  12.578  0.0468 -0.3804 -0.5068
14067W        W30251   3.117  11.816  11.765  0.0053 -0.2838  0.0183
14068W        W30252  18.347   0.933  13.752  0.1751  0.2470 -0.2707
14069W        W30253  18.004  14.364   3.887 -0.0089  0.0979 -0.0074
14070W        W30254  10.112  10.002   0.071 -0.1497  0.0645  0.3875
14071W        W30255  14.098  18.552   2.052 -0.1962  0.2836  0.1593
14072W        W30256   1.367   7.384   4.792  0.1920  0.2888 -0.1032
14073W        W30257  11.197  14.421  11.789 -0.0917 -0.2013 -0.0246
14074W        W30258  15.101   0.432  13.048 -0.2959 -0.2319 -0.3014
14075W        W30259  12.819   3.351  11.810 -0.2054 -0.1000 -0.1701
14076W        W30260  16.180   7.433  10.519  0.1482 -0.3409  0.0858
14077W        W30261   2.854  18.108   3.772  0.0882 -0.2009 -0.1013
14078W        W30262  14.695   7.806   2.397  0.0710 -0.3186 -0.0364
14079W        W30263  14.298   8.796   3.961  0.1101  0.3907  0.6660
14080W        W30264  13.985  10.682  11.329  0.0504 -0.1974 -0.0226
14081W        W30265  14.266  18.745   3.567  0.1564 -0.1332 -0.0022
14082W        W30266   5.354  15.912   0.650 -0.0287  0.0103  0.3078
14083W        W30267   3.555  15.233   4.958  0.2424 -0.0179  0.0798
14084W        W30268   6.112   9.915  11.997 -0.0359 -0.0546 -0.2106
14085W        W30269  19.306  11.593   1.240 -0.0141 -0.0862 -0.1572
14086W        W30270   0.742  16.663  14.205 -0.0970 -0.0297 -0.0751
14087W        W30271  19.360   4.474  12.963  0.0859  0.2122  0.0758
14088W        W30272   3.313  17.357   0.975  0.2310 -0.0631  0.2085
14089W        W30273   2.036  13.658  14.960 -0.1363 -0.0339 -0.0947
14090W        W30274   3.031   1.634  11.272 -0.0215  0.2543  0.3709
14091W        W30275   2.175   8.212   1.210  0.3505  0.0676 -0.0184
14092W        W30276   2.483   1.066   2.643  0.1974 -0.0643 -0.1072
14093W        W30277  18.698   2.530   0.076  0.0658 -0.3791 -0.1902
14094W        W30278  15.850   6.972  13.662  0.0655  0.5483 -0.0733
14095W        W30279  17.211  11.603  14.009  0.1041 -0.2595  0.1227
14096W        W30280   6.120   9.832  13.814  0.3062 -0.1493  0.1018
14097W        W30281  18.614   4.967  10.277  0.0732 -0.1001 -0.0868
14098W        W30282   0.123   2.429  11.571  0.1229  0.1095 -0.0645
14099W        W30283   9.979   7.172   4.712 -0.0139 -0.1786 -0.0784
14100W        W30284  16.381  17.305   4.631 -0.1610  0.0404  0.1412
14101W        W30285   0.094  14.293  11.447  0.0659  0.2467 -0.0506
14102W        W30286  16.623   2.201  11.229  0.4204  0.1337  0.2922
14103W        W30287  11.425   1.323  14.774  0.2121 -0.2755  0.2200
14104W        W30288  10.671  12.723   1.326  0.0010  0.4159 -0.0088
14105W        W30289   8.494   4.838  13.838 -0.3030  0.4564 -0.2497
14106W        W30290   9.272   6.428   3.756  0.1831  0.1141  0.4711
14107W        W30291  11.571  13.594   4.165  0.2231  0.0982 -0.1200
14108W        W30292   3.602   8.513   2.474  0.1881 -0.0649 -0.2892
14109W        W30293   1.051  12.912   0.488  0.0742  0.0046 -0.0269
14110W        W30294   5.377   0.196  14.368  0.0401  0.1931 -0.1067
14111W        W30295   0.923  15.398   4.570  0.1542  0.2211  0.5170
14112W        W30296   6.865   6.953   0.652 -0.4059 -0.0721 -0.0506
14113W        W30297  13.552   8.281  11.729 -0.0427 -0.1028  0.3484
14114W        W30298   4.630   6.253   0.727 -0.0864  0.0209 -0.0981
14115W        W30299  18.609   5.954  11.990 -0.2435 -0.1275 -0.1077
14116W        W30300   3.412  18.057  12.766 -0.1795  0.0842  0.0682
14117W        W30301  13.766  15.982   1.714  0.4370 -0.0928  0.1855
14118W        W30302  14.284  11.920  10.952 -0.5586  0.0703 -0.0007
14119W        W30303   1.676  14.215   2.275  0.1209  0.4686 -0.1389
14120W        W30304  12.114   8.335  14.013  0.0337  0.3360  0.0575
14121W        W30305   5.716   8.244   2.124 -0.3953  0.1207  0.1546
14122W        W30306  16.396  14.362   5.466  0.1490 -0.0292  0.1036
14123W        W30307  11.092  11.551  12.452  0.0495 -0.1419 -0.0557
14124W        W30308   2.301   7.827   0.327 -0.0614 -0.0724 -0.0540
14125W        W30309   8.474   8.156  10.854  0.2533  0.0153 -0.0232
14126W        W30310   9.057  16.273  13.280 -0.0160  0.1459 -0.2161
14127W        W30311   1.814  16.395  13.264  0.2017  0.0009 -0.0602
14128W        W30312  17.018  19.285  14.269  0.0163  0.3194  0.1260
14129W        W30313   0.607  11.861  13.017 -0.1163  0.2130  0.1922
14130W        W30314   6.160   6.888  10.951 -0.1440  0.1301  0.2640
14131W        W30315   9.987   5.184   3.069 -0.0552 -0.2723  0.1882
14132W        W30316  15.204  18.601   4.594  0.1195  0.2588 -0.0296
14133W        W30317   3.895   0.896  11.723 -0.0581 -0.0593  0.1707
14134W        W30318   3.066  11.504   0.787  0.1392 -0.0795 -0.1389
14135W        W30319  17.725   2.374   0.011 -0.2403 -0.1204  0.0722
14136W        W30320  15.249   9.459   2.082 -0.3196  0.1252 -0.1680
14137W        W30321  11.528  16.485  11.826 -0.2258  0.2933  0.1220
14138W        W30322  19.272   4.767   4.175 -0.1019 -0.0377  0.3627
14139W        W30323  18.860   8.554   4.181  0.0460 -0.0713  0.0136
14140W        W30324   5.592  15.105   4.649  0.3439 -0.1096 -0.0613
14141W        W30325  10.584   1.248  10.718 -0.2013 -0.2312 -0.1183
14142W        W30326  16.400  19.132   1.547  0.1726  0.1059 -0.1034
14143W        W30327   7.585  12.469   1.514 -0.0841 -0.1304 -0.1493
14144W        W30328   7.556   6.834  10.394 -0.0267 -0.0767 -0.0104
14145W        W30329   5.880   8.007   0.850  0.1702  0.2844  0.2762
14146W        W30330  17.586   0.928   0.240 -0.0358 -0.1106  0.2394
14147W        W30331  18.347  10.909   3.342  0.1209  0.0015  0.4155
14148W        W30332  15.743  12.717  10.905 -0.0692 -0.0728 -0.0314
14149W        W30333  12.644  15.538  13.821 -0.1466 -0.0357 -0.1257
14150W        W30334   4.845  14.582   2.076 -0.0162 -0.1526 -0.1026
14151W        W30335  14.548   8.377   4.732 -0.0197 -0.0034 -0.2001
14152W        W30336  14.028   0.188  10.731 -0.1326 -0.1669  0.1505
14153W        W30337  16.795  14.737   1.994 -0.0810 -0.0483 -0.1545
14154W        W30338  14.114   4.935  11.145 -0.1402  0.4872 -0.0346
14155W        W30339   4.642  10.587   4.848  0.0772 -0.0471 -0.0213
14156W        W30340   0.907   5.325  14.934 -0.0536  0.0273  0.2055
14157W        W30341  17.382  17.572   3.841 -0.1139  0.0278 -0.1318
14158W        W30342   2.761  10.672   1.069 -0.0893 -0.2912 -0.1450
14159W        W30343  13.166   6.085   0.688 -0.2545 -0.1147 -0.2227
14160W        W30344  13.491   6.070  13.730  0.2762 -0.4233  0.5490
14161W        W30345   6.537   0.369  12.885  0.1471 -0.0229 -0.1051
14162W        W30346   2.076  17.099   9.606 -0.0870 -0.0688  0.2914
14163W        W30347   4.762  14.589   0.451 -0.1684  0.3871 -0.4513
14164W        W30348  16.200   3.980  14.785  0.0436  0.0487  0.0161
14165W        W30349  16.945   4.449   0.854  0.1869  0.0642  0.4688
14166W        W30350  17.872  10.739   0.986  0.1039 -0.0779  0.0408
14167W        W30351   1.161  12.346   4.265 -0.2345 -0.1736  0.0865
14168W        W30352  16.167  11.988   3.996  0.0706  0.2843  0.0897
14169W        W30353   0.420  17.406   1.296  0.0628  0.1013 -0.0624
14170W        W30354   1.952   9.962   0.339 -0.3604 -0.0691 -0.1662
14171W        W30355   0.791  14.513   0.908 -0.2131 -0.0011  0.0115
14172W        W30356   5.118  11.384  14.118  0.3907  0.4419  0.1249
14173W        W30357  10.065  12.610   3.878 -0.2824 -0.0864  0.1365
14174W        W30358  12.622   3.284  11.317 -0.2876  0.0022  0.0338
14175W        W30359   5.128   7.190  13.057 -0.2317  0.2004 -0.1643
14176W        W30360   5.555  11.596   0.747 -0.1625  0.1208  0.2068
14177W        W30361   3.103   0.581   5.028 -0.2438 -0.0231 -0.1595
14178W        W30362  15.632   1.783  14.597  0.2632  0.0944  0.2401
14179W        W30363   8.884   4.282   2.286  0.2928  0.1903 -0.0805
14180W        W30364  13.269   9.890   2.544  0.2138  0.0794 -0.0605
14181W        W30365  16.426  16.607   4.937  0.1717  0.1886 -0.0872
14182W        W30366  11.838  17.304   0.510  0.0741  0.2455 -0.0225
14183W        W30367  18.108   4.794  14.235 -0.0354 -0.0104 -0.0125
14184W        W30368   2.694  18.872   4.748  0.0643 -0.2472  0.0858
14185W        W30369  15.234  17.529   5.086 -0.1040 -0.0430 -0.1488
14186W        W30370   2.320  13.055  11.733  0.1397  0.0940  0.1503
14187W        W30371   6.215   7.437  14.120  0.0632  0.0239 -0.2059
14188W        W30372  18.787  11.815   0.219 -0.0258 -0.2642 -0.0185
14189W        W30373   0.599  17.988   0.621 -0.0277 -0.1033  0.1252
14190W        W30374  10.409  17.336   4.654 -0.0157  0.3103  0.0309
14191W        W30375  17.361   4.502  13.736 -0.3783  0.0139  0.1539
14192W        W30376  13.206  18.379   0.008  0.2715 -0.2596  0.3292
14193W        W30377  14.245  14.674   0.531  0.0763 -0.1507 -0.3187
14194W        W30378   6.558   2.896   4.712 -0.2342 -0.0606  0.1222
14195W        W30379  19.355   4.127   5.189  0.1716 -0.0011  0.1184
14196W        W30380   7.253  15.829  14.050  0.1501 -0.1561 -0.2518
14197W        W30381  12.687   2.946  13.990  0.0078 -0.0967 -0.0571
14198W        W30382   4.206  16.251  11.068 -0.2507  0.1463  0.2426
14199W        W30383   6.217   8.113   0.492  0.2375 -0.0518 -0.1507
14200W        W30384  15.796  18.907  12.478  0.0166  0.1623 -0.2307
14201W        W30385   4.506  14.189   5.327  0.1202 -0.1614  0.1987
14202W        W30386  15.796  17.231  14.101  0.2563  0.0150  0.1023
14203W        W30387  15.262  17.813  13.120 -0.2041  0.0226  0.4379
14204W        W30388   8.936  12.613   0.882 -0.0358 -0.3642 -0.0728
14205W        W30389  12.622   8.076   4.442  0.0514 -0.3367 -0.1786
14206W        W30390   7.182   6.803  13.207  0.0546  0.1404  0.0548
14207W        W30391  11.270   5.907   0.767  0.1031 -0.0087  0.3822
14208W        W30392   4.045   2.241   0.467  0.3072  0.2637 -0.1094
14209W        W30393   6.579   1.812   4.876 -0.2699  0.1539  0.0428
14210W        W30394   4.235   3.419   1.201 -0.0193 -0.0974 -0.2182
14211W        W30395  16.174   0.153   3.121  0.2666  0.1225  0.1112
14212W        W30396  14.958  18.664   4.071  0.1873 -0.0440  0.1124
14213W        W30397   7.184   1.522  11.159  0.4557 -0.1960 -0.2175
14214W        W30398  12.553   5.894  10.063  0.0790 -0.1641 -0.2559
14215W        W30399   6.039  18.342   2.597 -0.2055  0.2044  0.1173
14216W        W30400   0.091   4.957  10.530 -0.0588  0.0606 -0.0412
14217W        W30401  15.127  19.264   3.149  0.1732 -0.2673 -0.1722
14218W        W30402  12.888   5.220   0.908  0.1734  0.0296  0.1677
14219W        W30403  16.287  11.054   9.397 -0.1937  0.0410  0.1806
14220W        W30404  17.486   2.570   4.634  0.0665  0.2300 -0.0032
14221W        W30405   4.529   7.488   9.490 -0.0425  0.1873  0.1571
14222W        W30406  11.614   9.573  12.211 -0.1206 -0.1437  0.0349
14223W        W30407  10.730   9.377  12.949  0.1420 -0.3230  0.1054
14224W        W30408   1.216  10.311  13.897  0.0102  0.1085 -0.0740
14225W        W30409  17.625  16.718  13.329  0.1169 -0.1340  0.4578
14226W        W30410   6.463  15.474  13.273 -0.1949  0.1505 -0.0061
14227W        W30411  10.704   2.924  11.119  0.2241  0.0466 -0.0021
14228W        W30412  18.768  18.181   3.544 -0.2536 -0.0176  0.2776
14229W        W30413  15.401   4.156  14.385 -0.0961 -0.1649 -0.1412
14230W        W30414   8.874  15.675  12.304  0.1901  0.5446 -0.2379
14231W        W30415   7.583  18.791  13.706  0.1393 -0.3843 -0.4000
14232W        W30416  18.353   4.823   3.765  0.2154  0.0625  0.0304
14233W        W30417  15.283   1.997  10.355  0.2795  0.0225  0.2036
14234W        W30418  19.159   2.788   1.291  0.0479 -0.0184 -0.1194
14235W        W30419  10.577  14.509   4.603  0.3418 -0.0936 -0.0703
14236W        W30420  15.968   1.735   0.472 -0.3506  0.0827 -0.2303
14237W        W30421   8.838  12.939  12.521  0.0817  0.0636 -0.1072
14238W        W30422  17.095   1.013   9.506 -0.0633 -0.1271 -0.2656
14239W        W30423  15.643   1.624   2.211 -0.0312  0.2496 -0.0585
14240W        W30424  15.458   6.337   3.973  0.0927  0.4376 -0.1014
14241W        W30425   0.266  15.928  12.085 -0.2253 -0.1677  0.0368
14242W        W30426   4.928  13.545   1.042  0.0899  0.1052 -0.0466
14243W        W30427   0.008   7.200  12.061  0.1358  0.3114  0.1076
14244W        W30428  13.076  12.706   5.062  0.0371  0.2078 -0.0742
14245W        W30429  16.652   6.191   0.069  0.0620  0.0283 -0.1097
14246W        W30430  11.280  12.185   0.168  0.0428 -0.0033 -0.1710
14247W        W30431   3.441  17.686  13.159  0.1175 -0.0271 -0.1914
14248W        W30432  13.590  14.175   3.271  0.2160  0.2841  0.0481
14249W        W30433   6.271  18.743  14.875  0.1068 -0.0373  0.1101
14250W        W30434   4.413  13.175   1.770  0.0372 -0.1753 -0.0180
14251W        W30435  12.876  10.438  11.907  0.2262 -0.1016  0.1617
14252W        W30436   3.028   0.058  10.976 -0.1536 -0.0264 -0.2280
14253W        W30437   9.625  14.941  13.266 -0.0123 -0.0400  0.5557
14254W        W30438   2.331  13.537   5.509 -0.1440  0.1300 -0.1308
14255W        W30439  17.723   6.564   8.652 -0.2107 -0.1823 -0.0098
14256W        W30440   9.086   2.117   4.085 -0.3203  0.1370  0.2926
14257W        W30441  18.951   3.654   3.482 -0.3348 -0.3048  0.1702
14258W        W30442  18.303   6.394  14.719 -0.2510 -0.1159  0.2566
14259W        W30443   8.912   9.618   4.618 -0.1068  0.0120 -0.3769
14260W        W30444   6.266  16.906   4.922  0.2189 -0.2675 -0.4336
14261W        W30445  17.065   5.637  12.823  0.0531 -0.0068  0.0781
14262W        W30446   1.878   0.844   4.746 -0.2625  0.2132  0.0176
14263W        W30447   2.446  18.413   1.140  0.0801  0.3519 -0.1720
14264W        W30448  12.877   7.253  14.306  0.1855  0.1278  0.2399
14265W        W30449   2.958  14.146   4.306  0.0018  0.2845  0.1249
14266W        W30450  18.584  11.024  11.935  0.1181 -0.2579  0.3727
14267W        W30451   1.768  15.314  12.967 -0.0236 -0.0016  0.0481
14268W        W30452  14.024  17.323  11.469 -0.2144 -0.0725 -0.1874
14269W        W30453  18.644  11.245   1.858 -0.0133  0.1493  0.1141
14270W        W30454   7.436   7.554  14.937 -0.2322 -0.1049 -0.3118
14271W        W30455  16.246  11.224  14.111 -0.0151  0.1381  0.3679
14272W        W30456   2.050  15.224   3.283  0.1682  0.2648 -0.0449
14273W        W30457  18.260  17.535  13.281  0.2734  0.0174 -0.1375
14274W        W30458   4.605  11.895   1.498 -0.0028  0.0971 -0.1252
14275W        W30459   3.309  18.160  10.756  0.5155 -0.0004  0.0106
14276W        W30460   2.321  15.364  10.484  0.3166 -0.0744  0.2551
14277W        W30461   7.249   9.044  10.133  0.0158 -0.3154 -0.0012
14278W        W30462  14.762   1.969  11.465 -0.0670  0.1123  0.2307
14279W        W30463  12.134   0.565  11.034 -0.3167 -0.1393 -0.2545
14280W        W30464  10.215   1.285   3.004  0.2450 -0.1691  0.0936
14281W        W30465  12.798  11.551  14.779  0.0107  0.0062  0.1774
14282W        W30466  15.230   6.502   2.225 -0.0304 -0.0477  0.0410
14283W        W30467   0.585   2.378  12.813 -0.1203  0.3468  0.1386
14284W        W30468  12.511  10.809  11.892  0.1538 -0.1372  0.2121
14285W        W30469   0.031   2.035  14.594  0.0897 -0.3303  0.0896
14286W        W30470  18.287  17.258  13.710 -0.1890  0.2090 -0.0943
14287W        W30471   0.680  16.718  12.693  0.0762 -0.2113 -0.3005
14288W        W30472  18.914  17.200  11.164 -0.1495 -0.2200  0.2307
14289W        W30473  17.600  10.818  12.460 -0.2364  0.0179 -0.2697
14290W        W30474  13.556   1.702   3.135  0.1201  0.0660  0.2197
14291W        W30475  14.325  17.745   3.354  0.0432 -0.1630 -0.3168
14292W        W30476   1.093  11.123  13.636 -0.1590 -0.1280 -0.0122
14293W        W30477   1.964  19.301  11.169 -0.3070  0.0421  0.0305
14294W        W30478  13.334   8.539   3.129 -0.0542  0.0155 -0.1160
14295W        W30479  12.822  14.106   2.212  0.3495 -0.1419 -0.0717
14296W        W30480   1.852  18.094  10.449  0.0901 -0.0686  0.0634
14297W        W30481   0.702   1.331   1.921 -0.2171  0.0046 -0.1565
14298W        W30482   6.013  16.433  14.457 -0.1597  0.1800  0.0238
14299W        W30483  12.881   5.459   4.483  0.0099  0.1236  0.3096
14300W        W30484  12.654  14.552  10.825  0.0806  0.0639  0.0448
14301W        W30485  14.538   2.667  10.557  0.1642 -0.3916  0.0516
14302W        W30486   3.262   2.598   0.826  0.1171 -0.1458 -0.0800
14303W        W30487  13.838   5.320   1.683  0.0172  0.2003 -0.1524
14304W        W30488  11.259  10.466  12.629 -0.1262 -0.2999  0.0538
14305W        W30489  11.005  12.958  12.741  0.3072 -0.2560  0.1168
14306W        W30490  18.549  16.792  14.349  0.0923 -0.0098 -0.0758
14307W        W30491  11.849   9.959  11.952 -0.0890  0.0033 -0.3029
14308W        W30492   3.526   1.823   3.089 -0.0645 -0.0297  0.0322
14309W        W30493  10.042  14.659   0.529 -0.1193  0.1038  0.1600
14310W        W30494   1.092  15.198   2.781 -0.0646  0.1462 -0.3231
14311W        W30495   1.637   6.616  13.134 -0.2223 -0.0050  0.0286
14312W        W30496  18.875  15.488   4.372 -0.0337 -0.0663 -0.0445
14313W        W30497   4.855  10.071   1.426  0.4661 -0.1575  0.2508
14314W        W30498  16.234  16.988   0.582  0.0700  0.0550  0.0196
14315W        W30499   2.338   0.992   5.335 -0.2610 -0.0376 -0.0206
14316W        W30500   0.125   0.981   3.607 -0.3261  0.1722 -0.1895
14317W        W30501  14.913   5.979  13.505  0.2303 -0.1367 -0.0659
14318W        W30502   0.658  13.689   1.376  0.1879 -0.0508 -0.1631
14319W        W30503   8.568   0.061   4.502  0.2646  0.2609  0.0821
14320W        W30504  18.200   7.358   2.269 -0.1746 -0.2686 -0.1117
14321W        W30505   3.899   5.997   2.799 -0.0540 -0.0421 -0.2719
14322W        W30506   7.168   9.962   2.708  0.0351  0.2854  0.1351
14323W        W30507  10.337   3.082   0.556  0.2766  0.0916  0.2590
14324W        W30508   9.856   2.062  11.248 -0.1527 -0.1630 -0.1316
14325W        W30509   9.775   4.709  13.669 -0.1139  0.0660  0.0093
14326W        W30510  12.090   6.822   2.021 -0.0855  0.1394 -0.0427
14327W        W30511  12.087  14.218  11.346 -0.0521  0.0143  0.3502
14328W        W30512  19.250  13.376  13.919  0.1037 -0.2491  0.3557
14329W        W30513  13.926  18.074   1.352 -0.1785 -0.0722  0.1352
14330W        W30514  13.645  16.450   0.066 -0.2953  0.0661 -0.3149
14331W        W30515   6.243  10.211  14.241  0.2431 -0.2741  0.1186
14332W        W30516   5.070   4.483  12.855  0.2912 -0.0696  0.3044
14333W        W30517  10.900   3.404   2.511  0.1501  0.3414  0.2633
14334W        W30518  16.941   5.519  10.974 -0.0479 -0.1887  0.1464
14335W        W30519  17.816  10.292   0.838 -0.2737  0.0601  0.2969
14336W        W30520   1.163  14.156   2.871 -0.1490 -0.1245  0.3076
14337W        W30521  17.669   2.056  12.402 -0.3393 -0.0820  0.0184
14338W        W30522   3.768   7.738   0.794  0.1050 -0.0925  0.1554
14339W        W30523  11.624   9.130   0.570  0.4123 -0.2748  0.1002
14340W        W30524  13.952   6.564  11.373  0.0349  0.0929 -0.0251
14341W        W30525   1.705  18.461  14.021 -0.0335 -0.0695 -0.3930
14342W        W30526   7.322   2.303  14.926  0.1934  0.0582  0.1084
14343W        W30527  13.691  10.036  14.491  0.2581  0.2395 -0.0829
14344W        W30528   5.513  17.838  13.361  0.1346  0.4183 -0.0978
14345W        W30529   3.161   9.368  14.046 -0.2352 -0.0781 -0.0898
14346W        W30530   9.658  12.799  12.804 -0.1573 -0.0259  0.4037
14347W        W30531   2.932  19.306   4.938 -0.1737 -0.1377  0.0466
14348W        W30532   1.166   1.833   1.552 -0.4224 -0.1764  0.1127
14349W        W30533   1.661   5.041   0.240  0.1839  0.2741 -0.3750
14350W        W30534   2.812   9.530   1.809  0.0985  0.0808  0.1562
14351W        W30535  13.598   0.901   1.272 -0.1370  0.0051  0.3240
14352W        W30536   2.580   2.842  12.316 -0.0206 -0.0355  0.1549
14353W        W30537   7.318  16.832   0.192  0.0241 -0.0567 -0.3667
14354W        W30538   8.729   3.970  10.164 -0.0544  0.2494  0.0157
14355W        W30539   5.722  19.221  14.457  0.1524  0.2139  0.2345
14356W        W30540  13.127   1.281  10.905 -0.3095  0.2821  0.2015
14357W        W30541   2.244  15.334   4.392 -0.0260 -0.0432  0.4370
14358W        W30542   1.379   4.043   0.713  0.3200  0.3727  0.0374
14359W        W30543  13.913   1.685  12.350  0.0811 -0.1132 -0.3616
14360W        W30544   4.669  14.321   1.351  0.1401 -0.3146  0.2308
14361W        W30545   6.783   7.757  14.028 -0.1630  0.1160 -0.0025
14362W        W30546   3.588   2.958  13.233  0.3239 -0.1565  0.0759
14363W        W30547  14.293  15.840   2.990  0.0665  0.0153 -0.3225
14364W        W30548  14.628   9.937  14.467  0.1090 -0.1822  0.1509
14365W        W30549   2.703  14.294   2.417  0.1346  0.0157 -0.2176
14366W        W30550  12.387   6.901  14.822  0.2725  0.0333  0.0520
14367W        W30551   2.854  13.399  14.835  0.2421  0.0574 -0.2780
14368W        W30552   5.839   9.428   0.520 -0.2592  0.0885  0.3291
14369W        W30553   6.178  18.460   4.077  0.0206  0.2839 -0.0097
14370W        W30554   9.149  14.000   1.798 -0.3781 -0.1570 -0.0073
14371W        W30555   1.979   4.449  14.122  0.0864  0.0989 -0.0332
14372W        W30556  10.473   4.217   2.236  0.0223 -0.1925 -0.2150
14373W        W30557  15.589   8.378  14.043  0.4183  0.2215  0.2491
14374W        W30558  17.548   1.172   1.162 -0.2924 -0.3694  0.1073
14375W        W30559   8.594   1.629  11.627 -0.3234 -0.2766  0.2087
14376W        W30560  13.219  17.221  14.654  0.1681  0.0512  0.0623
14377W        W30561  13.349   3.307   2.498 -0.4363  0.0775  0.2246
14378W        W30562   8.777  14.758   2.415  0.1217 -0.0186  0.2042
14379W        W30563  13.950   6.511   1.646 -0.2032  0.0985 -0.2502
14380W        W30564  10.837   6.843  14.005 -0.1468  0.0264 -0.0875
14381W        W30565   0.737  10.313  14.078 -0.0310  0.0193 -0.2588
14382W        W30566  17.976   5.146  14.621  0.1376  0.0523 -0.0838
14383W        W30567   6.493   0.514  11.983  0.0601 -0.2867 -0.1784
14384W        W30568   6.068   9.874   4.873  0.0489  0.4781 -0.0469
14385W        W30569  19.107   5.554   9.786 -0.1001  0.2279 -0.2726
14386W        W30570  11.992   1.977   1.252  0.0935 -0.0179 -0.1918
14387W        W30571  12.168   8.678   0.602  0.1334  0.1936 -0.2084
14388W        W30572  13.055   7.796   5.290 -0.1961 -0.1024 -0.2219
14389W        W30573   0.738  11.558   3.856  0.2549 -0.3080 -0.2372
14390W        W30574   1.051   1.834  11.811 -0.0807  0.1407  0.2614
14391W        W30575  13.615  18.979  14.332  0.0737 -0.1770 -0.0348
14392W        W30576   5.769   2.644   1.168  0.0267  0.3581 -0.2339
14393W        W30577  13.029  13.374   3.009 -0.1142  0.1903  0.0020
14394W        W30578   6.046   5.961  14.765 -0.0316 -0.3479  0.0084
14395W        W30579   3.704  12.938   1.254 -0.0248  0.0673 -0.0927
14396W        W30580   1.228   3.894   3.928  0.0585 -0.0785  0.0026
14397W        W30581   6.961  11.105  11.913  0.2075  0.2945 -0.1208
14398W        W30582  11.965   1.284  11.523 -0.0959  0.0587 -0.4292
14399W        W30583  19.262  18.084  13.186  0.0031  0.0093  0.2705
14400W        W30584   2.710  19.118  11.879  0.0286 -0.1049 -0.2013
14401W        W30585   1.159   5.386   4.989  0.0749 -0.2127 -0.4270
14402W        W30586  14.970   6.013   2.631 -0.0811  0.0392 -0.0328
14403W        W30587  11.547  14.628   3.746 -0.0443  0.0081 -0.1881
14404W        W30588  14.766   7.268  12.690  0.0252 -0.2283 -0.1062
14405W        W30589  12.961  10.518   1.991  0.2673  0.3188  0.3737
14406W        W30590   7.741  17.090  14.596  0.0570 -0.2907 -0.2582
14407W        W30591   8.283   5.761   9.560 -0.0555 -0.0826 -0.0981
14408W        W30592   4.804   5.211   0.751  0.1036 -0.2101 -0.0643
14409W        W30593  18.510  12.706   3.264  0.1474  0.0954  0.2078
14410W        W30594  13.391  10.242  13.472  0.2098  0.0739 -0.0491
14411W        W30595   0.223  15.133   1.560 -0.2279  0.0107  0.1895
14412W        W30596   4.391  11.676  11.018  0.0921  0.1911 -0.0473
14413W        W30597   5.418  12.683  12.983 -0.1487 -0.0886 -0.1961
14414W        W30598   6.957  10.280   0.428 -0.0284  0.2140 -0.2009
14415W        W30599  15.159  11.797  13.671  0.1576  0.1104  0.2072
14416W        W30600   5.563   9.174   0.039  0.0623 -0.3489  0.1234
14417W        W30601   1.863   3.410   9.846  0.2425  0.1749  0.1952
14418W        W30602  17.335  16.369  13.798 -0.1643  0.0360  0.1408
14419W        W30603   2.696   7.497   0.528 -0.3101 -0.0064 -0.0287
14420W        W30604   6.253   9.015   4.714 -0.0956  0.1949 -0.1105
14421W        W30605   7.263   9.551  12.827 -0.0583 -0.3608 -0.0171
14422W        W30606   9.305  19.362  10.091 -0.0709 -0.1260  0.0648
14423W        W30607   1.035   6.794   3.923 -0.0763 -0.1019 -0.0108
14424W        W30608   2.077   3.425   2.083 -0.4052 -0.1015  0.0019
14425W        W30609  13.084   2.211   2.402 -0.0359 -0.2762  0.0141
14426W        W30610  18.057   8.912  13.615  0.0951 -0.0145 -0.1272
14427W        W30611   1.850   5.780   1.581  0.0179 -0.2102  0.0229
14428W        W30612  13.970   4.204   1.456 -0.0110 -0.1217  0.4457
14429W        W30613  10.463   6.552  12.778  0.2994 -0.3649 -0.1843
14430W        W30614  18.734   5.452  10.136  0.1095  0.0889  0.1269
14431W        W30615   2.286  11.468   3.386  0.3102  0.4147  0.0004
14432W        W30616   6.379   0.529   2.052 -0.2100 -0.4051 -0.4282
14433W        W30617   8.582  16.111  12.957  0.0510 -0.1781 -0.0917
14434W        W30618  17.194   0.231   2.736 -0.2541  0.4364  0.4118
14435W        W30619  13.586  19.291  13.967  0.0287  0.1725 -0.0071
14436W        W30620   2.822   0.778  13.863  0.0227 -0.1707 -0.2863
14437W        W30621   7.246  16.931  10.956  0.1296 -0.0769 -0.3161
14438W        W30622  13.425   1.961   1.982  0.1479  0.0589 -0.0345
14439W        W30623   6.991   7.086   4.049  0.2751  0.3644 -0.0019
14440W        W30624  16.427   0.037  12.287 -0.4416 -0.2371  0.0166
14441W        W30625  11.215   0.677   1.199 -0.3711 -0.1752 -0.2907
14442W        W30626  15.241  13.937   5.813 -0.2212 -0.0610  0.1779
14443W        W30627   7.573   2.049  13.934 -0.0661 -0.1093  0.1518
14444W        W30628  18.480   8.025  11.686 -0.0936  0.3142 -0.1873
14445W        W30629  15.192  11.685   4.992 -0.1202  0.1280  0.0774
14446W        W30630  11.156  10.470   1.590  0.0025  0.0666  0.1995
14447W        W30631   2.556   5.755  13.730  0.3908 -0.1844 -0.3877
14448W        W30632  10.329   9.196  10.907  0.0745 -0.1305 -0.3458
14449W        W30633   4.969   4.041   3.448 -0.3626  0.3814  0.2300
14450W        W30634  18.984   8.737  11.788 -0.3339  0.0670 -0.1100
14451W        W30635  18.366  12.988   0.862  0.2048  0.1369  0.1245
14452W        W30636   3.571  19.383  13.301 -0.0382  0.0454  0.2041
14453W        W30637   1.928  10.098  11.430  0.2192  0.1733  0.0119
14454W        W30638  11.908  18.007   0.125 -0.2924 -0.0428 -0.2920
14455W        W30639  16.009   3.496   0.681  0.1049  0.0774  0.1539
14456W        W30640   1.497   5.235   2.829 -0.2537 -0.2323 -0.1364
14457W        W30641   4.997   2.097  14.264  0.1150  0.2901 -0.0574
14458W        W30642   9.444  15.820   4.667 -0.0117 -0.0685 -0.0463
14459W        W30643  14.181  17.693   4.816  0.0846  0.6137  0.2150
14460W        W30644  16.903   7.940   3.328 -0.0743 -0.0915  0.2310
14461W        W30645  14.869   9.481   5.222  0.0204  0.1748 -0.1940
14462W        W30646  16.139  15.333   2.007 -0.2289  0.2609 -0.0539
14463W        W30647  15.612  15.464   3.909 -0.4514  0.1148 -0.1973
14464W        W30648   1.174   7.395  14.605 -0.1488 -0.2601 -0.1569
14465W        W30649   4.871   5.100  11.661 -0.0385 -0.0634 -0.1371
14466W        W30650   4.006   7.082  13.983  0.3640 -0.0155 -0.1542
14467W        W30651   9.294  10.124   2.796 -0.0129  0.0186 -0.2796
14468W        W30652   3.629  18.764   4.017  0.0266 -0.2638  0.4300
14469W        W30653   9.524   5.523  10.661  0.2131 -0.2806  0.0576
14470W        W30654   4.196  11.622   2.916 -0.0381 -0.1060  0.0325
14471W        W30655  18.038   2.255   3.175 -0.0302  0.1607 -0.2867
14472W        W30656  17.050   4.449   3.563  0.3959  0.0893 -0.3669
14473W        W30657   5.510  19.144   4.366  0.1477  0.0781 -0.1895
14474W        W30658   0.229   1.392   2.185 -0.1018 -0.2059  0.1599
14475W        W30659  12.116   9.930   3.679 -0.0232  0.1770  0.1065
14476W        W30660  17.346   8.692  14.091 -0.1885  0.1932  0.1049
14477W        W30661  16.685   1.020  13.131  0.0436 -0.3776 -0.2149
14478W        W30662   3.878   2.011   4.914  0.0126  0.2716  0.3149
14479W        W30663  12.493  10.661  14.351  0.0030  0.1798  0.0297
14480W        W30664   1.636   4.991  11.610  0.0209 -0.0571 -0.0274
14481W        W30665   7.515  14.603   2.302 -0.0246 -0.0445  0.1006
14482W        W30666  15.565   4.550   3.734 -0.1971  0.0510  0.0561
14483W        W30667  11.881  10.859   1.381 -0.1709  0.2009 -0.2452
14484W        W30668  12.335  14.229  12.576  0.4767  0.0648 -0.3696
14485W        W30669   8.988  10.265   4.065 -0.1527  0.0487  0.1225
14486W        W30670   9.657   9.304  11.810 -0.0621 -0.2398 -0.1592
14487W        W30671  10.061  19.068   2.808  0.2512  0.0913  0.0324
14488W        W30672   1.536  12.563   3.979  0.1436 -0.3078 -0.1531
14489W        W30673  17.241   3.541  12.565 -0.0903 -0.0586  0.2670
14490W        W30674  16.984   1.001   2.293  0.2304 -0.0417 -0.6607
14491W        W30675   3.999  10.930   3.604 -0.2227 -0.0579  0.2631
14492W        W30676  11.911   7.490  10.522 -0.0396  0.2067  0.1548
14493W        W30677  19.017   8.052   2.532  0.0008 -0.2865  0.3611
14494W        W30678  10.986  17.070   3.974  0.0735  0.0778  0.4047
14495W        W30679   1.963  11.378   0.853  0.2500 -0.1847 -0.0785
14496W        W30680   8.555   9.551   2.382 -0.0713  0.2585  0.0747
14497W        W30681  18.916  15.148   2.715  0.2149  0.3218  0.1793
14498W        W30682   3.929  17.074  11.484  0.0046  0.0942 -0.0603
14499W        W30683  16.428   3.913  10.096  0.2569  0.2001  0.1825
14500W        W30684   6.168   1.460  14.547 -0.2191 -0.0875  0.0976
14501W        W30685   1.935  17.247   0.761  0.1453  0.1294  0.2426
14502W        W30686  14.153  17.234   3.313 -0.3782 -0.0761  0.0238
14503W        W30687  15.093  10.732  14.297  0.0711 -0.0799  0.0502
14504W        W30688   3.021   2.286   3.812 -0.0079  0.0034 -0.1703
14505W        W30689   1.829  15.770   4.868  0.1164 -0.3271 -0.3331
14506W        W30690  15.624  13.765   4.493  0.1189 -0.0135 -0.0111
14507W        W30691  14.404   3.682   4.631 -0.0918 -0.2642  0.1261
14508W        W30692  12.734  17.188  14.734 -0.0246 -0.1504 -0.2545
14509W        W30693  14.576  12.960   3.912 -0.4200  0.0915 -0.0010
14510W        W30694  17.352   3.235   5.396  0.3591 -0.0084  0.0932
14511W        W30695   6.194   2.187   2.861  0.0837  0.1366  0.0506
14512W        W30696   5.923   0.232   0.932  0.0130 -0.0052  0.1650
14513W        W30697   4.077   3.895  11.311  0.2857  0.1149 -0.0651
14514W        W30698   4.507   6.641   1.400  0.4279 -0.1625 -0.2439
14515W        W30699  15.447  17.863   0.361  0.0342  0.2019  0.0943
14516W        W30700  11.039  17.347   1.939  0.2059 -0.3571  0.2389
14517W        W30701   7.602   1.670   9.908 -0.0503  0.0343 -0.2521
14518W        W30702   1.487   8.061  13.370 -0.2467  0.2392  0.1764
14519W        W30703   6.574  12.117  12.114 -0.1502 -0.0897  0.0683
14520W        W30704  16.003  12.143  13.147 -0.0873 -0.0435 -0.1373
14521W        W30705   1.853   5.748  12.896 -0.1951 -0.2534  0.0283
14522W        W30706  14.409  13.235  11.799  0.2244  0.0146  0.4082
14523W        W30707   3.677  15.358  11.013 -0.2375 -0.0409  0.2446
14524W        W30708   0.081  18.119   0.389 -0.4838  0.0427 -0.1469
14525W        W30709   2.806  10.757   0.192  0.0559  0.1342  0.0763
14526W        W30710  11.280  13.599   0.738  0.1592 -0.3376 -0.0221
14527W        W30711   4.533  11.553  13.487 -0.0319  0.1835 -0.0005
14528W        W30712   9.784   2.801  13.583 -0.2746  0.1286 -0.2193
14529W        W30713  17.142   5.507  11.689  0.0513  0.1284 -0.0706
14530W        W30714   7.306  10.567   0.208 -0.0766  0.2078 -0.0519
14531W        W30715   2.799   5.746   5.480 -0.0976  0.1295 -0.1687
14532W        W30716  14.164  14.732  12.967  0.1637 -0.1726 -0.3527
14533W        W30717  13.341   0.978   4.234  0.3277  0.0446  0.0688
14534W        W30718  11.083  10.025  14.271 -0.2097  0.1652  0.2058
14535W        W30719   7.169   8.101   0.278 -0.0353  0.2603  0.1483
14536W        W30720  16.894  10.420  11.856  0.0960  0.1115  0.1468
14537W        W30721   0.074   2.517   0.536 -0.0276  0.0436 -0.1986
14538W        W30722  17.117   3.670   1.726  0.0206  0.0045  0.1275
14539W        W30723  17.835   5.313  14.128 -0.0787  0.0812  0.1171
14540W        W30724   5.774  17.400   4.439  0.0196 -0.1956 -0.0211
14541W        W30725   8.775  15.610   3.415 -0.0611 -0.1869  0.4078
14542W        W30726  18.990  11.309  11.015  0.0915  0.1516  0.3342
14543W        W30727   7.674  16.021  11.756  0.2215 -0.1722  0.0915
14544W        W30728   2.817   8.804  11.307  0.0269  0.0661 -0.0901
14545W        W30729  13.027  12.810  12.739 -0.1551 -0.1683  0.1091
14546W        W30730  16.487  12.063  12.614  0.2484 -0.0058  0.3200
14547W        W30731  12.331  16.355  13.975  0.1785  0.0261  0.3017
14548W        W30732  11.246  17.525   4.374 -0.1965 -0.0392  0.2361
14549W        W30733   2.291  17.341   1.282  0.1736  0.0751 -0.1268
14550W        W30734  16.662  17.321   0.884 -0.1747  0.0290  0.1658
14551W        W30735   4.737   3.230   2.020  0.0250  0.1527 -0.2107
14552W        W30736   4.598   1.767  14.276  0.4138  0.0510  0.0341
14553W        W30737   5.885   2.178  10.247  0.0481 -0.0619  0.1094
14554W        W30738  14.584   0.315   4.618  0.3021  0.2279  0.1027
14555W        W30739   9.865  14.364   2.987 -0.4139 -0.1384  0.1713
14556W        W30740  11.306   4.609   3.914 -0.0378  0.0680  0.1550
14557W        W30741  15.298   2.165   3.890 -0.3331  0.0150  0.1056
14558W        W30742   6.563   3.981   1.057 -0.3608  0.0824  0.3844
14559W        W30743  11.998   9.373   3.789 -0.0947 -0.2431  0.2900
14560W        W30744  17.095  12.611  13.454  0.1901 -0.3171 -0.3912
14561W        W30745  14.740  11.644   1.773  0.2234 -0.0320  0.1090
14562W        W30746   0.419   9.885  13.673  0.1908  0.0828  0.1250
14563W        W30747   7.452   0.087   2.943 -0.0131 -0.1940 -0.2443
14564W        W30748  15.978   0.620   3.822 -0.3721 -0.3858 -0.1529
14565W        W30749   6.655   8.084  12.430 -0.4061 -0.0581  0.1012
14566W        W30750  17.491   7.105  12.554 -0.2212  0.4492 -0.0518
14567W        W30751  15.640  16.365  14.398 -0.1522  0.0001  0.1561
14568W        W30752   5.067   2.460   0.434 -0.1968  0.0456  0.0644
14569W        W30753   3.983  11.699  10.815  0.1970 -0.1263  0.1021
14570W        W30754  14.251   4.457  11.107 -0.1840 -0.2402  0.1037
14571W        W30755  13.707  16.798  13.233 -0.2767 -0.0289  0.2845
14572W        W30756  14.060  19.131  11.015 -0.1988  0.0965  0.2604
14573W        W30757  17.417   9.837  12.258 -0.0607 -0.1450  0.3052
14574W        W30758  10.854   6.954  10.409  0.0915 -0.1121 -0.3338
14575W        W30759   2.482   4.028   0.220  0.0213 -0.0101 -0.4322
14576W        W30760   4.532  16.513   2.456  0.0211 -0.2610 -0.0778
14577W        W30761  18.177  10.477   2.604 -0.0898  0.2428 -0.0912
14578W        W30762   6.387   4.918   3.427  0.1342 -0.2810  0.0116
14579W        W30763  15.961   1.316   3.877 -0.1229  0.1088 -0.2822
14580W        W30764   4.824  14.104  11.846 -0.3478 -0.0381 -0.3302
14581W        W30765   8.279   4.363  12.299 -0.2927  0.0528  0.0219
14582W        W30766  18.204  12.975   2.285 -0.0137 -0.0325  0.4464
14583W        W30767   5.754  15.762  13.820 -0.1195  0.1452  0.2503
14584W        W30768  18.665   1.990   5.086  0.1679 -0.1600  0.0537
14585W        W30769   7.224  11.180   0.614  0.2792  0.1262  0.0111
14586W        W30770   2.496   3.712   4.440  0.1954  0.1778 -0.3387
14587W        W30771  14.057   6.713  10.868  0.2149  0.0814 -0.0573
14588W        W30772   3.621  17.921   2.552 -0.1047 -0.2075  0.2709
14589W        W30773   1.482  17.178  10.367  0.0520  0.0986  0.0036
14590W        W30774  12.917   8.826  10.998 -0.0379 -0.1969  0.2952
14591W        W30775   3.600   0.645  12.580  0.3286  0.0756 -0.1077
14592W        W30776   9.096   5.718  10.011  0.5672 -0.1044 -0.1965
14593W        W30777   0.787  13.106   2.937  0.0566  0.0828  0.3662
14594W        W30778   0.861  17.284  13.405 -0.1221  0.0898  0.1128
14595W        W30779   4.763  16.922  12.045  0.2267  0.1648  0.1195
14596W        W30780  15.634  14.613  11.756  0.2969 -0.1101  0.4030
14597W        W30781   0.557   0.715   1.971  0.2452  0.1477 -0.0927
14598W        W30782  16.133   1.362  12.024  0.0500 -0.2305 -0.0308
14599W        W30783   3.790   6.736  13.695 -0.1037 -0.0019 -0.2079
14600W        W30784  10.911  13.543  10.912  0.2250  0.0289 -0.0777
14601W        W30785   8.028  16.466  11.329  0.0193  0.2015  0.0147
14602W        W30786  11.289  16.085  14.722 -0.0742  0.0979  0.0388
14603W        W30787   6.361   7.249   4.615 -0.1474  0.1364 -0.0707
14604W        W30788   7.909   7.035   2.540 -0.3934 -0.5219  0.3488
14605W        W30789   6.701   7.630  11.663  0.1120 -0.1555 -0.2150
14606W        W30790  10.079   5.927   0.818  0.2495  0.2138  0.0836
14607W        W30791  11.813   1.379   5.072 -0.0888  0.2108  0.2221
14608W        W30792  13.796   0.406  14.825 -0.2690 -0.1995  0.0093
14609W        W30793   5.509   2.072   0.826  0.2683  0.1062 -0.0895
14610W        W30794   2.851   5.431  12.694  0.0566  0.3153 -0.1745
14611W        W30795   5.365   2.196   1.279  0.0755  0.0349  0.1434
14612W        W30796   4.312   1.918   9.402 -0.1361 -0.0553  0.0900
14613W        W30797  13.355  18.088  13.117 -0.1120  0.0317 -0.0452
14614W        W30798  18.546  14.948  13.265 -0.0079 -0.1572  0.1624
14615W        W30799  11.993  18.489  12.179  0.4876  0.0077  0.1150
14616W        W30800  10.017  10.180   5.082  0.0251  0.1385  0.2456
14617W        W30801   4.736   8.788   3.500  0.2773  0.2044 -0.1767
14618W        W30802  13.921  12.168   4.700  0.0038 -0.2846 -0.0085
14619W        W30803   6.359  14.550   4.010 -0.4754  0.1878 -0.0789
14620W        W30804  14.881  12.669  12.588  0.1332 -0.1583 -0.1278
14621W        W30805  13.469  14.084  14.194  0.0993 -0.0534 -0.1006
14622W        W30806  18.787  18.528   4.912  0.0107  0.2097  0.1418
14623W        W30807   1.578  10.032  11.807 -0.2276 -0.0791 -0.5896
14624W        W30808   6.782  10.943   4.008  0.1451  0.2820  0.0778
14625W        W30809  10.811   0.525  14.829  0.2064 -0.1964 -0.1084
14626W        W30810   4.845  18.104  13.202 -0.0317 -0.0832 -0.0045
14627W        W30811   2.772  13.587   5.147  0.3477 -0.1053 -0.2009
14628W        W30812  18.822   2.747   0.519  0.3114  0.0544  0.0143
14629W        W30813   7.601   9.178   4.298 -0.1289 -0.1992 -0.3402
14630W        W30814  13.121  18.980   2.343  0.1254  0.1944 -0.3652
14631W        W30815  16.385  15.552  14.211 -0.1054  0.0057 -0.0837
14632W        W30816  11.302  13.832  14.285  0.1404  0.2628  0.0817
14633W        W30817   9.715   3.319  13.266 -0.0497  0.3655  0.1269
14634W        W30818   2.412  10.674   1.462  0.0165  0.0474  0.3619
14635W        W30819   2.463  11.022  13.374 -0.1989 -0.2315 -0.0792
14636W        W30820  10.647  14.914  14.136  0.3696 -0.1485  0.1848
14637W        W30821  12.267   5.321   0.149  0.0895 -0.2657 -0.0398
14638W        W30822  17.006  10.137  12.219 -0.0471 -0.0732  0.2822
14639W        W30823  12.286  14.108  14.066 -0.2945 -0.0878 -0.0527
14640W        W30824  17.394  15.915   5.689  0.1484  0.0216  0.2232
14641W        W30825  15.695   7.840  14.551  0.0607 -0.1645  0.0394
14642W        W30826  15.408   4.540   1.765 -0.2727 -0.2452 -0.0736
14643W        W30827  16.822   5.212  11.359 -0.0787  0.4310  0.0331
14644W        W30828  16.655  10.438  10.093 -0.1833  0.2849 -0.1476
14645W        W30829  12.220   0.015  11.939 -0.0368 -0.1950 -0.1370
14646W        W30830   0.753  15.646  14.332 -0.2297 -0.1104  0.2999
14647W        W30831  18.277   0.333   3.517  0.1132 -0.1281 -0.2326
14648W        W30832  13.201  10.813  14.436 -0.2160  0.0630 -0.2177
14649W        W30833  13.792  16.655  12.727  0.1113 -0.1553 -0.0413
14650W        W30834  18.447   9.637  12.582  0.2966 -0.2401  0.0189
14651W        W30835   9.391   5.787  12.721 -0.2323 -0.1694 -0.5172
14652W        W30836  12.498  10.468   1.683 -0.1783  0.1033 -0.2718
14653W        W30837  13.007  17.992  10.574 -0.0887  0.3946  0.1687
14654W        W30838  14.519  15.606  11.189  0.1386 -0.0663  0.0099
14655W        W30839   1.087   8.868   1.107 -0.4114  0.0988 -0.2467
14656W        W30840   5.217  18.486   0.445  0.2051 -0.2474  0.0039
14657W        W30841  18.235  10.331   1.405 -0.2781 -0.2897 -0.0091
14658W        W30842  15.920  18.086   4.941  0.1830 -0.0467 -0.2196
14659W        W30843   3.960  15.326  10.510  0.0215 -0.1065 -0.2573
14660W        W30844   4.501  13.009  12.603 -0.0509 -0.0198 -0.3007
14661W        W30845   9.687  18.615   5.375 -0.1705  0.4001 -0.0816
14662W        W30846  16.197   8.905  11.524 -0.0564  0.2621  0.0070
14663W        W30847  12.658  17.939   0.939  0.1955  0.3261 -0.0271
14664W        W30848   8.080  19.039  14.177 -0.1734  0.1232  0.1058
14665W        W30849  19.182   2.372   3.867  0.1362 -0.0232  0.0815
14666W        W30850   0.539   1.955  14.724  0.2315  0.1280 -0.1214
14667W        W30851  10.878   3.696   5.031  0.2672 -0.1320 -0.1263
14668W        W30852   5.543  17.930  14.447  0.2017  0.1586 -0.1162
14669W        W30853   2.310   4.958   1.684  0.0730 -0.5702  0.0365
14670W        W30854   3.465   3.895   2.061  0.2996  0.0527 -0.2247
14671W        W30855   0.670  14.962   4.793  0.0858 -0.2908 -0.1684
14672W        W30856   8.802  11.506  14.830 -0.0445 -0.0338 -0.0472
14673W        W30857   9.338   4.736  11.258 -0.1532  0.2565  0.2147
14674W        W30858  17.355  16.932   2.173  0.3138  0.1277 -0.1526
14675W        W30859  14.072   7.164  11.101  0.1318  0.1846 -0.1279
14676W        W30860  16.094  12.542   4.812  0.0504  0.1795 -0.2760
14677W        W30861  12.222  16.329  14.510  0.1230  0.1026  0.1076
14678W        W30862   3.384  18.193   0.106 -0.0737 -0.1245  0.2468
14679W        W30863  13.790   2.058   0.828  0.0150  0.2628 -0.0209
14680W        W30864   4.683  15.337  13.174  0.0592  0.0182  0.0888
14681W        W30865   7.504   7.106  11.838  0.1918  0.0065 -0.2584
14682W        W30866   5.384  15.999  10.619 -0.0746 -0.0088 -0.2693
14683W        W30867   4.673   0.843   1.569  0.0788  0.1266  0.2963
14684W        W30868   6.366   8.647   9.938 -0.0510  0.1390 -0.1894
14685W        W30869   9.875  18.279   1.109  0.0847  0.1778  0.1110
14686W        W30870  11.026  12.813  13.286  0.1946 -0.0905  0.0021
14687W        W30871   8.476  11.746   1.627 -0.2866 -0.3484  0.1610
14688W        W30872  15.444   2.358   1.437  0.1584  0.2695 -0.0860
14689W        W30873  17.368  18.352  10.456 -0.1598 -0.2634  0.3089
14690W        W30874   8.999  17.124  12.072  0.2550  0.1522  0.3238
14691W        W30875  16.284   6.667  13.829  0.0918  0.2220 -0.0716
14692W        W30876  10.603  18.748  10.596  0.0724  0.1519  0.2581
14693W        W30877  15.732  14.751  13.202  0.2790 -0.2274  0.0823
14694W        W30878  14.193   2.984   2.934  0.0887 -0.3401 -0.2070
14695W        W30879   2.076   2.613   5.725  0.3036  0.0990 -0.4418
14696W        W30880   7.072  10.964   2.630  0.3630  0.3308  0.1052
14697W        W30881   3.490   8.508   0.639 -0.0068 -0.0857  0.1674
14698W        W30882  12.083  15.759  12.526 -0.3473 -0.3710  0.1328
14699W        W30883  18.742  18.282  11.707  0.2213 -0.2593 -0.1867
14700W        W30884  18.243  16.975  12.011 -0.1176 -0.1016  0.0873
14701W        W30885  13.136   1.821   4.644  0.1087  0.0569  0.0154
14702W        W30886  10.691  19.247   5.523  0.0116  0.0619 -0.1318
14703W        W30887   5.190   5.421  14.811 -0.3020  0.0669 -0.0933
14704W        W30888   4.113  16.383   2.935 -0.3287 -0.2303 -0.2383
14705W        W30889  17.146  19.196  13.767  0.0032  0.1612 -0.0528
14706W        W30890  14.012   4.058   2.729  0.0655  0.0788 -0.1263
14707W        W30891   4.358   2.412   4.719 -0.3202 -0.1208 -0.0489
14708W        W30892  16.403   7.473   0.953 -0.4070 -0.1954  0.2095
14709W        W30893  14.483   9.554   3.047  0.0044 -0.0510 -0.1674
14710W        W30894  14.537  10.865  12.627  0.1047 -0.1341 -0.0521
14711W        W30895   5.739   7.187   3.773  0.1394 -0.0351 -0.2246
14712W        W30896  11.440   3.406  13.087 -0.0765  0.2773  0.1043
14713W        W30897   3.263   2.272  10.735 -0.2211  0.4036  0.0215
14714W        W30898  18.363   6.797   4.456 -0.1767 -0.0978  0.1512
14715W        W30899   1.202   8.789  12.723 -0.2545 -0.0613 -0.0412
14716W        W30900  10.604   9.857   0.883 -0.1738 -0.0006 -0.0646
14717W        W30901   8.394   9.263  13.561 -0.0274  0.2211  0.1332
14718W        W30902  12.729  11.820  12.690 -0.0692 -0.2261  0.0392
14719W        W30903   5.221  13.177   1.169  0.1552 -0.2389  0.0633
14720W        W30904  18.392   8.357   4.187 -0.1410 -0.1233 -0.0467
14721W        W30905   4.774   3.712  11.221  0.0384 -0.3592 -0.1647
14722W        W30906   2.716   8.782   5.070 -0.1037 -0.1649  0.3276
14723W        W30907   6.222  10.248   3.915  0.1499  0.2776 -0.1382
14724W        W30908   2.715   4.802   2.493  0.1710 -0.1718 -0.0871
14725W        W30909  18.304   7.417  14.913  0.1457 -0.2132  0.0391
14726W        W30910  14.807  16.788   2.162  0.2232  0.1109 -0.0621
14727W        W30911  18.432   2.257  14.743 -0.2434  0.2998 -0.0397
14728W        W30912   9.786   1.188  14.224 -0.0903  0.0612 -0.1925
14729W        W30913  13.540   5.696   1.493 -0.3544 -0.4986  0.0655
14730W        W30914   5.458  15.776   0.148 -0.1463  0.2531  0.2779
14731W        W30915  18.189  14.349  11.453  0.0043 -0.0348 -0.3384
14732W        W30916  10.652   7.388  14.858  0.1746 -0.3404  0.0002
14733W        W30917   6.687   2.284   2.897  0.2107 -0.3503  0.0106
14734W        W30918  17.038  13.476  10.312 -0.2056  0.1404 -0.2229
14735W        W30919   5.372   6.879   1.024  0.2063 -0.3955 -0.1115
14736W        W30920   9.495   3.430   3.792  0.0221 -0.1861  0.0734
14737W        W30921   8.809  18.419  10.848 -0.2346 -0.1961  0.1597
14738W        W30922  17.708   1.040  14.327 -0.0815 -0.1359 -0.1335
14739W        W30923  19.378   9.128   4.063  0.2250 -0.1800  0.1821
14740W        W30924   1.528  16.775  11.626 -0.0156  0.0497 -0.2617
14741W        W30925   5.141  14.622  10.218 -0.0349  0.0144 -0.1334
14742W        W30926   5.417   7.173  10.979 -0.2172  0.3914 -0.3159
14743W        W30927   3.602  19.380  13.850 -0.1766 -0.1217  0.0935
14744W        W30928  12.178  18.739  13.061 -0.0060  0.0528  0.0740
14745W        W30929   9.469  14.861   1.335  0.2917 -0.1964  0.2929
14746W        W30930  13.043   5.847   1.178  0.1501  0.1450 -0.1896
14747W        W30931   0.042  13.191  13.180 -0.3341 -0.0574 -0.1101
14748W        W30932   3.603   8.799  13.717 -0.0398 -0.0881 -0.2552
14749W        W30933  15.242  11.433  13.156  0.0559  0.1014  0.2467
14750W        W30934   0.583  16.390   1.661 -0.0316  0.1286  0.1255
14751W        W30935   6.099  14.558  11.072  0.1833  0.3678  0.2376
14752W        W30936  13.677   0.292   3.629  0.0497  0.1661  0.0139
14753W        W30937  14.501  14.249   4.532  0.0569  0.1166 -0.1902
14754W        W30938  18.172  11.732   4.788  0.1451  0.0633 -0.0377
14755W        W30939   8.518  12.232   1.602 -0.1649 -0.2486  0.0338
14756W        W30940  12.464  11.197   2.595  0.0921  0.3593 -0.0685
14757W        W30941  16.946   8.236   0.638 -0.1478  0.0019  0.0650
14758W        W30942  16.216   6.478   5.400  0.3792  0.1786 -0.0859
14759W        W30943  11.598   3.186   0.395  0.0051  0.2065  0.2089
14760W        W30944  17.345  10.677  11.754  0.3959 -0.0504 -0.0143
14761W        W30945  16.767  15.241  13.351 -0.1206 -0.2092 -0.0421
14762W        W30946  11.294   0.125   5.157  0.0150 -0.1187  0.1243
14763W        W30947   6.943   2.915  10.006 -0.1451 -0.1197 -0.1959
14764W        W30948  10.032  18.359   1.970  0.4150  0.2857  0.0284
14765W        W30949   3.699  17.564   1.767  0.0636  0.2689 -0.4303
14766W        W30950   2.421  18.536   3.754  0.1465  0.0607 -0.0897
14767W        W30951   2.307  10.414   3.300  0.1531 -0.0291  0.0702
14768W        W30952  10.107   8.580   9.927 -0.1402  0.0059 -0.1821
14769W        W30953  13.391   4.768   4.241  0.0415 -0.2459  0.0723
14770W        W30954   3.371   1.293   2.295 -0.4654 -0.0987  0.1432
14771W        W30955  10.201  10.217  10.959  0.1765 -0.1031 -0.2782
14772W        W30956  12.902  17.000   4.422 -0.0362 -0.0703  0.0370
14773W        W30957  13.119   1.176  12.546  0.0389 -0.1611 -0.3331
14774W        W30958  10.600   2.442  14.395  0.0010 -0.3955 -0.2436
14775W        W30959  11.001  15.678   3.722 -0.0528  0.0597  0.1049
14776W        W30960   4.273   4.010  14.892 -0.0881  0.0789  0.3117
14777W        W30961  10.832  16.108  13.851  0.1449  0.1437  0.1117
14778W        W30962   3.310   5.340   2.869  0.0072  0.1677  0.0053
14779W        W30963  10.461  13.545   5.031  0.2567  0.0395  0.0314
14780W        W30964   3.726   3.791  12.717 -0.1816  0.1437  0.0593
14781W        W30965   2.646   5.067  14.309 -0.0003  0.0219  0.2430
14782W        W30966  14.273  18.154   1.801 -0.2678 -0.3655  0.0854
14783W        W30967  12.824  10.432  12.407  0.2132  0.1347  0.2132
14784W        W30968   1.176  15.454  11.037 -0.0964  0.3136  0.2992
14785W        W30969   4.322  12.154  12.118 -0.0535 -0.3048  0.1430
14786W        W30970   3.309  11.658   1.377 -0.2669 -0.0535 -0.0511
14787W        W30971   9.650   4.350  11.041  0.3355 -0.1349  0.1082
14788W        W30972   5.068   8.413  14.769  0.0299  0.1123  0.2293
14789W        W30973  16.494   2.315   3.321  0.3034  0.1762 -0.1853
14790W        W30974  18.961  10.178   0.823  0.0835 -0.0318 -0.1367
14791W        W30975  13.032   6.887   9.579  0.0004 -0.0321  0.0192
14792W        W30976  14.556  13.996   2.130  0.1739 -0.0929  0.1082
14793W        W30977  17.633  15.784   0.047  0.1025 -0.0412  0.0070
14794W        W30978  10.578  12.695   3.936  0.1278 -0.1585 -0.1092
14795W        W30979   5.377   5.384   3.615  0.2764 -0.1124  0.0003
14796W        W30980   8.318   9.955   5.238  0.2123 -0.2945  0.0443
14797W        W30981   3.316  17.194  13.328 -0.1019 -0.0504  0.2916
14798W        W30982   9.238   8.204   0.658 -0.1492  0.1262  0.3390
14799W        W30983   7.357  19.248   0.536 -0.1102  0.0626 -0.0145
14800W        W30984   0.367   6.300   2.619 -0.0706  0.1667 -0.1011
14801W        W30985   9.154   3.165   2.277  0.1871 -0.3509 -0.0702
14802W        W30986  13.320  15.109  12.910 -0.0388 -0.5099  0.0746
14803W        W30987   7.785  18.728   4.554  0.0345 -0.2990 -0.1842
14804W        W30988   1.396  10.924   4.355 -0.2701  0.3989  0.1624
14805W        W30989  17.118  10.673   0.365  0.1447 -0.0233  0.2063
14806W        W30990   5.220   2.593   3.767  0.0991 -0.1000 -0.3003
14807W        W30991   7.129   1.226  12.178 -0.3903 -0.2662 -0.2422
14808W        W30992   3.914  12.461   0.319  0.0756 -0.1201 -0.1348
14809W        W30993  13.418   4.850  11.074  0.1518  0.4408 -0.3006
14810W        W30994   5.986   8.155   1.608 -0.0944  0.1136  0.0196
14811W        W30995   3.637  16.575   1.379 -0.0552 -0.0655  0.4767
14812W        W30996   6.267   4.383  10.983  0.0543  0.2070 -0.5489
14813W        W30997  16.438  13.537  13.349  0.1141 -0.2233 -0.3253
14814W        W30998   4.212  10.389  14.310 -0.1851  0.2417 -0.1373
14815W        W30999  15.274   5.275  11.431  0.0366 -0.2592 -0.1459
14816W        W31000   5.280  16.138  13.054 -0.0790 -0.0297  0.0498
14817W        W31001   5.752  16.234   1.860 -0.0667 -0.0903  0.1131
14818W        W31002   9.354  16.314  13.730  0.2024 -0.2609  0.0976
14819W        W31003  12.277   6.943  14.324 -0.1288  0.0206 -0.1675
14820W        W31004  14.590  13.670   1.149 -0.1480  0.0545 -0.3247
14821W        W31005  18.803  18.847  14.290  0.0220  0.1379  0.1758
14822W        W31006  13.255   9.166  13.779 -0.3166  0.0434 -0.1025
14823W        W31007   2.954  16.616  14.560  0.3118 -0.0831  0.0002
14824W        W31008   9.318   7.039   4.367 -0.0994  0.0886 -0.6082
14825W        W31009   2.246   2.564  10.747 -0.0579 -0.2930 -0.2331
14826W        W31010   0.418  13.522   3.672  0.2169  0.3059 -0.2008
14827W        W31011   4.750   8.545   1.148  0.2581 -0.4492  0.0967
14828W        W31012   8.353  13.742   1.815 -0.0213  0.1988  0.1503
14829W        W31013   5.300   1.320  14.628 -0.0402 -0.1126 -0.1636
14830W        W31014   1.280   9.482   4.240 -0.0839  0.0497 -0.2143
14831W        W31015   7.263  14.032   0.031 -0.1210  0.0670 -0.0948
14832W        W31016   4.175  15.172   1.726 -0.1163 -0.3212 -0.1548
14833W        W31017   8.220  12.156   0.289 -0.0968 -0.0009  0.1222
14834W        W31018   7.659  15.532   4.541 -0.1260 -0.0814 -0.3070
14835W        W31019   1.672  17.021  11.142  0.1206  0.3887  0.2317
14836W        W31020   5.276  10.623  12.415 -0.0082  0.0624  0.2111
14837W        W31021   6.333  16.931   1.502 -0.0906  0.2122  0.2641
14838W        W31022   6.659  10.263  12.025  0.2792 -0.0339  0.0744
14839W        W31023   8.980   9.053  12.401  0.3896  0.1203 -0.1673
14840W        W31024  18.891   9.630  14.770 -0.0167  0.0820 -0.0196
14841W        W31025  17.728  11.919  11.136 -0.1087 -0.1187  0.1034
14842W        W31026   8.241   7.985  12.194  0.1594 -0.4203  0.2526
14843W        W31027   3.449  18.386   1.966 -0.1020 -0.1986  0.3125
14844W        W31028   0.587   0.990   1.545  0.0171 -0.1211  0.1684
14845W        W31029  16.729   2.332  10.308 -0.0182  0.0372 -0.1137
14846W        W31030  19.239  17.694   5.850 -0.1634 -0.2391 -0.0999
14847W        W31031   6.802   3.214  10.946 -0.0185  0.0996 -0.1311
14848W        W31032  18.589  11.063   5.796  0.1826  0.2021  0.4189
14849W        W31033   4.227  16.326   3.808  0.0431 -0.5310  0.2656
14850W        W31034   7.722   2.228   4.369  0.0224  0.1574  0.1858
14851W        W31035   9.591  17.009  13.267 -0.0561  0.2230 -0.1344
14852W        W31036  11.706   4.010   2.137  0.4946 -0.0678  0.2013
14853W        W31037  12.386  11.553   0.677 -0.2808  0.4798 -0.0741
14854W        W31038   1.740   5.382  14.541 -0.4376 -0.0244 -0.1935
14855W        W31039   9.501  13.660   2.687 -0.4063  0.2876 -0.3142
14856W        W31040   2.678  10.066   2.434  0.0083  0.0577  0.1198
14857W        W31041  14.345  17.972   0.948  0.3887  0.0603  0.1022
14858W        W31042   7.261   9.021  12.764  0.2013 -0.4430  0.1682
14859W        W31043   1.773  11.381   1.363  0.0350  0.0381  0.0451
14860W        W31044   4.429   7.298   5.355  0.0545  0.1182  0.1496
14861W        W31045   2.672   1.052   1.043 -0.0529 -0.0212 -0.3859
14862W        W31046  17.754   3.668   2.862  0.1828 -0.2252 -0.1791
14863W        W31047   9.892  15.349   4.194  0.0034 -0.2359 -0.1652
14864W        W31048  11.491   7.857   1.161  0.0808 -0.0400 -0.0355
14865W        W31049   0.348   9.291  10.905 -0.1608 -0.0876  0.0870
14866W        W31050  11.751   1.968   4.549  0.0872  0.0153  0.1716
14867W        W31051  13.100   7.436  13.277 -0.3126  0.3528 -0.2029
14868W        W31052   2.916   9.579  10.955  0.0289  0.0903 -0.0052
14869W        W31053  12.511   8.113   1.238 -0.2199 -0.0599  0.1034
14870W        W31054   5.638  17.834  11.938 -0.0218 -0.0506  0.0482
14871W        W31055  13.052   5.326  14.018 -0.0260 -0.3151 -0.1731
14872W        W31056   8.409   2.799   0.162  0.1031 -0.1393  0.2234
14873W        W31057  15.745   9.621  10.652 -0.2734 -0.0329  0.0552
14874W        W31058  16.176  12.450  12.754 -0.1422  0.0244 -0.1564
14875W        W31059   9.153  13.930   2.469 -0.0048 -0.1587 -0.0067
14876W        W31060  10.717  12.431   4.450 -0.0297  0.1921 -0.2943
14877W        W31061  16.946   2.373  14.154 -0.3066 -0.3565 -0.1411
14878W        W31062  17.387   8.920  14.529 -0.0496  0.0135  0.1775
14879W        W31063   0.173  11.906  14.589 -0.1876 -0.1108  0.0219
14880W        W31064  10.178   2.167   3.991  0.0878  0.0396  0.2127
14881W        W31065  18.062  14.349   4.846  0.0572 -0.0963 -0.0667
14882W        W31066  12.052  15.688   2.038  0.2109 -0.1963 -0.0846
14883W        W31067  11.666  13.304   0.795 -0.4143  0.0445 -0.0583
14884W        W31068   8.288   4.859  14.345  0.0409  0.0182  0.1783
14885W        W31069   5.857   1.998   4.685 -0.3373  0.1626  0.1108
14886W        W31070   6.727  16.396  10.592 -0.2107  0.0555 -0.1831
14887W        W31071   6.261   0.395   4.691  0.4017 -0.0110 -0.1751
14888W        W31072   5.873  16.075  11.659  0.2120  0.3682  0.0515
14889W        W31073   4.260   3.807  14.400 -0.0676 -0.1991  0.0194
14890W        W31074   2.473   3.052  10.968 -0.0631  0.2139  0.1114
14891W        W31075   1.604   6.529  11.724 -0.2122  0.0653  0.2015
14892W        W31076  10.746   7.705   3.205 -0.0250 -0.3145 -0.1589
14893W        W31077   8.740   5.920  11.846  0.0935 -0.3749  0.2053
14894W        W31078   7.647  14.383  11.028 -0.1719 -0.0555  0.2497
14895W        W31079   4.383   9.519   9.521 -0.1085 -0.0994  0.2783
14896W        W31080   4.765   0.344  13.200 -0.0210 -0.1195 -0.0604
14897W        W31081   6.544   3.076  13.742  0.2643 -0.1511 -0.0211
14898W        W31082   6.197  14.874  12.179 -0.1392  0.1101 -0.1268
14899W        W31083   7.277  14.850  10.380 -0.1891 -0.1047 -0.0272
14900W        W31084  16.243   7.508  13.147  0.1356  0.4942  0.0300
14901W        W31085  18.261   1.424   0.738 -0.0937  0.2430 -0.2824
14902W        W31086  10.330   6.983  10.388 -0.4627 -0.1242  0.2696
14903W        W31087  10.281   2.215   3.355  0.1102 -0.3605 -0.1006
14904W        W31088  17.856   0.021   0.051 -0.2074 -0.3356 -0.1034
14905W        W31089  11.204  15.138   1.104 -0.1876  0.0745 -0.0800
14906W        W31090   3.722  13.218   0.338 -0.0338 -0.0918  0.1525
14907W        W31091   0.146  12.872   4.849  0.3476  0.1524 -0.1178
14908W        W31092   1.199   3.278   1.714 -0.1861  0.0642 -0.0118
14909W        W31093  19.065  14.713   3.898 -0.0127 -0.3910  0.1773
14910W        W31094   0.959  16.554   4.728  0.1855 -0.4391 -0.0425
14911W        W31095   2.291   3.613  10.075 -0.1593 -0.1394  0.0019
14912W        W31096   3.461   3.611   3.830  0.4798  0.0558 -0.1884
14913W        W31097   0.628   7.305  10.882 -0.2291  0.0496 -0.3326
14914W        W31098   8.360  15.986  10.684  0.4647  0.0339 -0.0505
14915W        W31099  12.343  18.432   4.636  0.2272 -0.0956  0.2746
14916W        W31100  11.222   2.272   3.915  0.0328 -0.1233  0.2696
14917W        W31101   2.288   0.477   3.340 -0.2934 -0.2755  0.1972
14918W        W31102   3.449   8.030   0.511  0.1512 -0.4967 -0.0482
14919W        W31103  10.068  18.646   4.006  0.0772  0.2917 -0.2794
14920W        W31104  13.829  16.901   2.425  0.2161 -0.1007 -0.0715
14921W        W31105   0.080  10.917  11.792 -0.1552 -0.0958  0.3982
14922W        W31106  17.322  17.066  11.818  0.3663  0.0715  0.1357
14923W        W31107   7.257  16.656   2.738 -0.1008 -0.2188 -0.1433
14924W        W31108   7.145   5.568   3.389 -0.0979 -0.1900 -0.1330
14925W        W31109   0.982  14.077   3.959  0.0861 -0.2878  0.1473
14926W        W31110  11.586   2.295  10.835 -0.0226 -0.2442 -0.0207
14927W        W31111   2.011   4.357   9.626 -0.0066  0.1188  0.1778
14928W        W31112   3.199  16.142  14.540  0.1644 -0.5105 -0.3147
14929W        W31113   0.235   2.948   1.521  0.0117  0.0591 -0.1915
14930W        W31114   3.552  11.924  13.401  0.1112 -0.1494 -0.1702
14931W        W31115  13.228   9.422   1.339  0.2832  0.2947 -0.3541
14932W        W31116   0.840  16.499   5.204 -0.0034  0.0277 -0.0562
14933W        W31117   3.061  17.403   3.103 -0.0179 -0.2257  0.0559
14934W        W31118   4.789   3.957   3.888  0.3181 -0.1817 -0.0999
14935W        W31119   3.765  14.091   4.213  0.0500 -0.1220  0.3396
14936W        W31120   6.627  12.616  13.669  0.0867 -0.0477 -0.0435
14937W        W31121  13.906  18.316   3.567 -0.0330 -0.1110 -0.1111
14938W        W31122   8.920   7.814  14.709 -0.0653 -0.4446 -0.0355
14939W        W31123  12.754  12.959   2.382  0.0230  0.0708  0.0364
14940W        W31124  14.343   5.073   2.441  0.2051  0.2451  0.0313
14941W        W31125   1.893  13.907  11.967 -0.3419  0.0496 -0.0703
14942W        W31126   4.677   7.532   2.423  0.0071 -0.1472  0.2671
14943W        W31127  13.957   9.632   3.173 -0.2551 -0.0777 -0.1872
14944W        W31128  11.110   2.681  11.368 -0.0192  0.0714 -0.0202
14945W        W31129  16.098   6.091  13.966  0.1438 -0.2717  0.0740
14946W        W31130   3.743   8.758  12.563  0.1977  0.1483  0.2169
14947W        W31131  17.795  16.100   0.367  0.1180 -0.2056  0.0317
14948W        W31132   9.380   7.692  14.659  0.1865 -0.1026 -0.1645
14949W        W31133   3.081   5.384   4.595 -0.0195 -0.1453 -0.0482
14950W        W31134   8.923  16.596  13.894 -0.1606  0.0936 -0.2750
14951W        W31135   6.940  12.264   2.120 -0.0745 -0.0050 -0.3789
14952W        W31136  13.031   1.215   3.937  0.1647 -0.0297 -0.0577
14953W        W31137   7.482  17.625  11.244  0.1380  0.3732  0.1758
14954W        W31138   8.986   2.702  14.381  0.1258  0.2719 -0.1431
14955W        W31139   5.389  10.432   1.875  0.0627 -0.0981 -0.0500
14956W        W31140   7.536  18.130   2.429 -0.4226  0.1902  0.0546
14957W        W31141   9.041   9.573   2.507 -0.1227 -0.1413 -0.0707
14958W        W31142   3.652  11.444  13.847 -0.2489 -0.0954  0.0625
14959W        W31143   8.354   4.691   0.892 -0.1924  0.0618 -0.1717
14960W        W31144  13.653   9.315  11.078  0.0112  0.2364  0.0662
14961W        W31145  19.065  16.077  11.665  0.1782  0.1493  0.0500
14962W        W31146   1.595   5.688  12.104 -0.1110  0.2454 -0.3140
14963W        W31147  17.491  19.111   4.928 -0.1000  0.2872  0.0527
14964W        W31148  15.742  15.022   3.472  0.0818  0.0192  0.1430
14965W        W31149   6.852   3.252  10.465 -0.4169  0.3456 -0.2068
14966W        W31150   9.971   6.550  11.727  0.3730  0.0399  0.3511
14967W        W31151  18.672  18.747   0.510  0.0157  0.0067  0.2706
14968W        W31152   5.722  18.975  12.470  0.0693  0.2028  0.0359
14969W        W31153  17.325  15.108  12.397  0.1165 -0.1900  0.2486
14970W        W31154  19.066  18.543  11.302  0.0865 -0.1071  0.1125
14971W        W31155  19.099   0.380   3.093  0.0452  0.0010 -0.0361
14972W        W31156   4.690   0.151   4.489  0.1609 -0.0301 -0.1107
14973W        W31157  17.803  18.064   0.566  0.1361 -0.1281  0.0130
14974W        W31158   3.888   0.213   3.943 -0.1517  0.1327  0.0772
14975W        W31159   2.947   9.314  13.166 -0.2873  0.1334 -0.0651
14976W        W31160   8.620   4.340  10.515 -0.0210  0.0547 -0.1597
14977W        W31161   0.800  14.735  14.183  0.0283 -0.1933  0.1802
14978W        W31162  15.265   8.920   1.928  0.0447 -0.0780 -0.0312
14979W        W31163   7.444   8.526  10.951  0.1735  0.2141  0.0862
14980W        W31164   5.592   5.588  13.677  0.0693 -0.0291  0.0109
14981W        W31165   0.770   8.006   3.603  0.5228  0.1338 -0.3774
14982W        W31166  14.151  15.202  13.279 -0.0049  0.1704 -0.0301
14983W        W31167  12.017  12.774  11.155 -0.2157 -0.1442 -0.2024
14984W        W31168   2.600   5.138   4.808 -0.0309  0.0124 -0.3257
14985W        W31169   0.405   0.263  12.408  0.2514  0.0287 -0.0292
14986W        W31170   5.175   1.953  13.457  0.0637  0.0814 -0.1159
14987W        W31171  10.999  12.077   3.408  0.1699 -0.0543 -0.1898
14988W        W31172   4.609  12.272   4.053 -0.0228  0.0507  0.0765
14989W        W31173  17.955   2.064   2.432  0.2030  0.0016  0.0178
14990W        W31174   4.547   3.989   0.325 -0.3085 -0.0818 -0.2261
14991W        W31175  10.003   5.249   0.283 -0.0136 -0.1738 -0.2212
14992W        W31176  18.272  14.023  12.769 -0.3742 -0.0111  0.2352
14993W        W31177  10.193  16.629   2.606  0.0070 -0.1013  0.2358
14994W        W31178  13.734  15.176   6.033  0.3185 -0.2655 -0.3446
14995W        W31179  10.027  17.223  13.157  0.0369 -0.3866 -0.2090
14996W        W31180  14.831   5.128  14.544  0.1487  0.0076 -0.1675
14997W        W31181   7.131  15.680   4.550  0.0890 -0.0641  0.2453
14998W        W31182   6.351   5.707   3.907 -0.2894  0.2729  0.3015
14999W        W31183   0.737  18.002   5.220  0.2648  0.0078  0.1531
15000W        W31184   3.868   6.855  12.345 -0.2446  0.1058  0.1254
15001W        W31185   3.730  11.272   3.317 -0.0246 -0.2464 -0.0541
15002W        W31186   6.308   1.834   4.408  0.0904 -0.2915  0.0699
15003W        W31187   3.712   1.531   4.732 -0.2105 -0.1442  0.0049
15004W        W31188   2.848   9.816  11.422 -0.1780  0.0982  0.1170
15005W        W31189  13.392   5.912   2.100  0.1102  0.0492  0.5141
15006W        W31190   0.654  13.451   0.121  0.3325 -0.3871 -0.2754
15007W        W31191  17.457   0.939  11.298 -0.0373 -0.2426  0.0113
15008W        W31192  17.240  16.276  13.275 -0.0480  0.0920  0.0585
15009W        W31193   7.970   3.389  13.672  0.0558  0.2645  0.1779
15010W        W31194   8.778   4.040   9.178  0.1174  0.0543  0.1078
15011W        W31195  16.806   9.209   5.079  0.2460  0.0105 -0.0291
15012W        W31196   1.306  18.139   2.399 -0.0382  0.2065 -0.2089
15013W        W31197   3.928   6.761   4.701 -0.0948 -0.2976 -0.2810
15014W        W31198   1.589   3.469  12.166 -0.0742  0.1669 -0.0186
15015W        W31199   2.917   0.642  14.573  0.0146  0.1601 -0.0944
15016W        W31200  18.551   7.979  12.921  0.1740 -0.0222  0.2636
15017W        W31201   2.052   9.401   1.727 -0.2617  0.2215  0.0241
15018W        W31202   9.029  17.618   4.337  0.0782 -0.3230 -0.5823
15019W        W31203   7.179  10.386  12.270  0.1365  0.0605 -0.1514
15020W        W31204   6.109  10.980   2.382  0.1992 -0.0181  0.0137
15021W        W31205   1.174  15.969  14.487 -0.1580  0.1586  0.0184
15022W        W31206  13.256   7.443   3.985 -0.2023  0.1196 -0.4913
15023W        W31207   7.519  15.543   3.032  0.0443 -0.1509 -0.1318
15024W        W31208   1.940  19.203  10.100 -0.1548 -0.2185 -0.1001
15025W        W31209  12.623  14.502  12.988 -0.1093 -0.0431  0.1247
15026W        W31210   7.113  12.396   3.880 -0.0062  0.1218 -0.0228
15027W        W31211   4.075  17.142  12.637 -0.2323 -0.2063 -0.2151
15028W        W31212  14.565   5.174  10.982  0.1987  0.1373  0.3563
15029W        W31213   7.788  16.931   0.633 -0.1297  0.0642 -0.0948
15030W        W31214  14.140   9.698  10.530  0.0672  0.0036  0.1033
15031W        W31215  18.887  14.744   1.847 -0.0482  0.2780  0.2547
15032W        W31216  15.562   0.787   0.185 -0.2237  0.0723  0.4595
15033W        W31217   4.964   6.594   2.723  0.0916  0.2041  0.0680
15034W        W31218  17.419   6.843  13.074  0.0889 -0.5568  0.2582
15035W        W31219  11.603   6.722   4.405 -0.0927  0.0645 -0.0688
15036W        W31220  18.007  14.555  13.204 -0.1646 -0.1194 -0.0616
15037W        W31221   6.220  13.792  10.472 -0.2460  0.0476  0.1015
15038W        W31222  17.741   8.847  11.916  0.3067  0.0544  0.2345
15039W        W31223   8.908   3.790   0.931 -0.0330  0.1826  0.0243
15040W        W31224   4.080  12.850   2.004  0.3308 -0.0991 -0.2365
15041W        W31225   5.919   4.587   2.568 -0.1540  0.0483 -0.1465
15042W        W31226   9.835  15.879  11.639  0.0683 -0.1371  0.1891
15043W        W31227   7.507  10.875  14.831  0.2434  0.2091  0.2282
15044W        W31228   4.092   8.672   5.252  0.1815 -0.0289  0.0485
15045W        W31229  18.991   4.386   0.400 -0.1845  0.3252 -0.0740
15046W        W31230   4.686   9.236   3.641  0.0594  0.0254 -0.0959
15047W        W31231  11.613  11.481  12.501 -0.1214  0.2046  0.1866
15048W        W31232  12.877  13.596  11.204 -0.1528 -0.0168  0.0375
15049W        W31233   3.028   1.260  11.724 -0.3090  0.0784 -0.0931
15050W        W31234   9.689  19.039   0.693  0.0825  0.0608  0.0370
15051W        W31235  12.335  18.153   3.059 -0.0126 -0.1747 -0.2529
15052W        W31236   8.808  18.795   2.238 -0.3566  0.0473 -0.2592
15053W        W31237  17.189  15.285   3.500  0.0200 -0.0507  0.3135
15054W        W31238   9.654   1.599  14.547 -0.0951  0.0299 -0.0308
15055W        W31239   4.984  16.633  13.066 -0.1130 -0.1263  0.1192
15056W        W31240  15.248   6.181   9.220 -0.2405  0.0982  0.0203
15057W        W31241  18.204   8.330  10.636 -0.3262  0.0017  0.2414
15058W        W31242  11.462  10.202   2.431 -0.0464 -0.0805  0.2452
15059W        W31243  13.682  17.036  13.769  0.1564  0.1257 -0.2591
15060W        W31244  15.584   0.373   3.956 -0.1387 -0.1119 -0.0278
15061W        W31245   6.822  14.365   4.660  0.0184 -0.1172 -0.1473
15062W        W31246   8.258  14.726   3.353  0.1468  0.0414 -0.1028
15063W        W31247   8.221   3.506  10.551  0.0369  0.0194 -0.2038
15064W        W31248   5.829   7.354  14.411 -0.0361  0.3776 -0.1247
15065W        W31249   1.092  18.207  13.362 -0.1726 -0.0985 -0.2838
15066W        W31250  10.558  16.563   3.027  0.1909  0.2614 -0.0221
15067W        W31251  11.438  18.393  11.598  0.2001  0.0300  0.0039
15068W        W31252  18.857   5.359   1.858 -0.2062 -0.1648 -0.1424
15069W        W31253   6.372  14.289  13.477  0.1742 -0.3412 -0.1052
15070W        W31254  11.938  11.595   1.886  0.2262 -0.1089 -0.1470
15071W        W31255   5.000  16.099  11.536 -0.0352 -0.0015 -0.1036
15072W        W31256  14.634   5.857   3.585  0.2402  0.0058 -0.3275
15073W        W31257  17.360  10.007   3.938 -0.1165  0.1056  0.2253
15074W        W31258   2.436  10.189  12.247 -0.1656  0.1209  0.5223
15075W        W31259   6.470   2.305  12.271  0.1339 -0.0198 -0.0606
15076W        W31260  17.826  12.916   1.189 -0.3639  0.1264  0.1160
15077W        W31261  14.973   7.038  13.693 -0.2036  0.2460 -0.3013
15078W        W31262  12.175  16.432   0.125 -0.2403  0.3695  0.0764
15079W        W31263  14.758   8.807   3.771 -0.0504 -0.2433  0.0427
15080W        W31264  15.639  15.789  12.617 -0.3219  0.2235 -0.1743
15081W        W31265  14.517   8.603  11.222 -0.2954 -0.0055  0.0884
15082W        W31266   2.957  13.089  13.154 -0.3629  0.1252  0.2282
15083W        W31267  12.877   4.704   3.372 -0.2219 -0.0770  0.0942
15084W        W31268   8.069  10.498   4.882  0.2185 -0.2364 -0.1340
15085W        W31269   8.320  10.401   0.598 -0.0997  0.1033  0.2463
15086W        W31270  17.011   0.777   9.933  0.1105 -0.0553  0.0457
15087W        W31271  11.736   4.402   8.991  0.0676  0.0932 -0.3436
15088W        W31272   5.689  11.337  14.010 -0.0364  0.3830  0.3894
15089W        W31273  14.112  11.001   1.351  0.1119 -0.2415  0.3937
15090W        W31274  12.822  13.205   3.920 -0.0188 -0.1791  0.1071
15091W        W31275  16.047   6.718   4.060  0.2448  0.1480  0.2336
15092W        W31276   8.284   1.774  12.124  0.5562  0.4379  0.0047
15093W        W31277  17.593  18.987  13.867 -0.3472 -0.0555 -0.0274
15094W        W31278  15.611   0.031   3.080  0.4626 -0.0356  0.1875
15095W        W31279  16.216  15.910  13.002  0.0999 -0.0249  0.1801
15096W        W31280  17.128  18.706  14.421  0.0400  0.3435 -0.0384
15097W        W31281   7.159  10.019  12.689  0.4726 -0.3112  0.0587
15098W        W31282   6.251  16.369  12.952 -0.2488 -0.3172  0.3634
15099W        W31283   8.188   5.175   4.365 -0.1828 -0.1050  0.0608
15100W        W31284  12.216   5.240  13.625  0.2030 -0.3413  0.1840
15101W        W31285  15.513  11.668   2.088  0.1639 -0.0894  0.2356
15102W        W31286  18.015   9.109   4.617  0.0756  0.0570 -0.1376
15103W        W31287   5.908  18.301   3.577 -0.0416  0.1501  0.1456
15104W        W31288   4.416   7.819   4.058 -0.3584 -0.2745  0.0235
15105W        W31289   9.589  17.577   5.415  0.1360  0.0289  0.2571
15106W        W31290  15.193   7.703  14.835 -0.0815 -0.2722 -0.0760
15107W        W31291  15.549  11.144  13.523  0.0398  0.4455 -0.0671
15108W        W31292  15.880   6.662   4.754 -0.0400 -0.1621  0.1458
15109W        W31293   5.016   4.266   1.935  0.2607  0.2166 -0.1395
15110W        W31294  11.580   0.900  10.792  0.0421 -0.2521 -0.0463
15111W        W31295  16.707   6.162  13.237 -0.1226 -0.0988  0.2179
15112W        W31296  10.286   7.888  14.783 -0.3224 -0.0998  0.0626
15113W        W31297   7.396  13.629  13.129  0.0161  0.6286  0.4985
15114W        W31298  17.954   3.254   3.716  0.1014  0.0397  0.1987
15115W        W31299  13.536   6.144  11.352  0.1471 -0.3208  0.0157
15116W        W31300  16.615  18.109  12.875 -0.0244  0.1910 -0.0434
15117W        W31301  16.777   1.297   4.565  0.1337 -0.3975  0.2367
15118W        W31302   3.870  14.922   0.835  0.1526  0.1718 -0.3916
15119W        W31303   9.481   0.156  11.684  0.0653 -0.0408  0.0612
15120W        W31304  18.392   0.447   1.441 -0.1951  0.0784  0.0232
15121W        W31305  18.459   4.177   0.165  0.0229 -0.2509 -0.2246
15122W        W31306   2.031   7.899   3.300 -0.1773 -0.3005  0.3202
15123W        W31307   7.462   6.980   2.118 -0.0080 -0.2218 -0.0858
15124W        W31308  14.114   9.076   3.381  0.0470  0.2361  0.1828
15125W        W31309   9.046  10.951  10.940  0.0177  0.1861 -0.0008
15126W        W31310  15.773   5.432   1.293  0.1023 -0.0216  0.0867
15127W        W31311  11.669   0.638  13.254  0.3293 -0.4286  0.3742
15128W        W31312  18.638  10.471  12.686  0.0741  0.1655  0.0005
15129W        W31313  19.348  16.278  12.968 -0.1643 -0.2593  0.3798
15130W        W31314   2.856   5.040   9.994 -0.2755 -0.2747  0.3165
15131W        W31315  16.566  14.684  10.434 -0.0471  0.1989  0.3207
15132W        W31316  13.085   6.962   0.499  0.2318  0.0925  0.2007
15133W        W31317   3.864   1.673  10.864  0.3805 -0.1701  0.0018
15134W        W31318   2.738   2.622   5.027  0.0460 -0.0244 -0.1270
15135W        W31319   2.097  12.837   1.860 -0.3953  0.0510 -0.0199
15136W        W31320   0.640   2.035  13.459  0.2427  0.2563  0.2383
15137W        W31321   0.891   5.391  11.044  0.5304  0.2893 -0.0424
15138W        W31322   1.930   7.026   4.302 -0.2172 -0.0485 -0.0169
15139W        W31323   6.803   6.879   3.307 -0.0502 -0.4295  0.1453
15140W        W31324  16.127   2.924  10.736  0.0293 -0.0910 -0.0016
15141W        W31325   0.108  15.616   4.178 -0.0594  0.0228 -0.0329
15142W        W31326  11.131   0.591  13.181 -0.2957 -0.2915  0.0867
15143W        W31327   2.513  18.775   2.030  0.0942  0.3335  0.0354
15144W        W31328   6.464   8.848  14.710  0.1754  0.0937 -0.2033
15145W        W31329   0.220  12.032  13.227 -0.2723  0.2640  0.1824
15146W        W31330   0.590   8.316  10.703  0.0788  0.0643 -0.0438
15147W        W31331  11.458   9.119  13.492 -0.1716  0.0933  0.1051
15148W        W31332   1.595  18.730   3.248  0.0791  0.1761 -0.0530
15149W        W31333   0.507   5.891  13.036 -0.0687  0.4083  0.0573
15150W        W31334  15.529   2.622   3.651 -0.0621 -0.1102  0.1921
15151W        W31335  13.651  15.919  13.355 -0.2867  0.1358  0.2375
15152W        W31336  18.407  12.299  14.076  0.0823 -0.0613 -0.0099
15153W        W31337  18.363   0.144  11.342 -0.0569 -0.0256  0.1310
15154W        W31338   3.596   5.944   0.288  0.0953  0.0067  0.2501
15155W        W31339  16.881   8.099   2.353  0.4079 -0.2986  0.1899
15156W        W31340   7.451   0.159  14.863 -0.2215 -0.0287 -0.0198
15157W        W31341   5.502  16.982   1.341 -0.0624  0.2105 -0.1565
15158W        W31342   0.171  12.717  10.721  0.0485  0.1510 -0.0117
15159W        W31343  17.160  10.641  10.620  0.3223 -0.0429 -0.0133
15160W        W31344   3.062   1.144   3.684 -0.3024  0.0630 -0.5223
15161W        W31345   6.961   2.726   0.055 -0.0213  0.0220  0.1381
15162W        W31346   7.627   3.596   2.233  0.3258  0.2485  0.0495
15163W        W31347   5.799  12.640   0.986 -0.0632 -0.1676 -0.5421
15164W        W31348  14.331  14.706   4.462  0.1352  0.1677  0.0322
15165W        W31349   4.060   4.445   0.124  0.1496  0.1314  0.0348
15166W        W31350  15.923  18.994  10.383 -0.2900 -0.1425  0.1501
15167W        W31351   6.672  16.616   3.250 -0.0391  0.1302  0.0644
15168W        W31352  18.290   9.288  11.050 -0.1076  0.2072 -0.0408
15169W        W31353   3.991   1.419  11.815 -0.1506 -0.0181  0.2168
15170W        W31354  13.328  12.512   2.540 -0.1735  0.1575  0.0658
15171W        W31355  16.981  15.842   5.293  0.1779  0.2398 -0.1675
15172W        W31356  12.938  16.582   0.856 -0.4612  0.0479  0.1784
15173W        W31357  10.256  18.025  12.260  0.1264  0.1682  0.2951
15174W        W31358   1.315  18.746   5.126  0.5374 -0.2126 -0.4781
15175W        W31359   4.046   0.256  13.962 -0.0459 -0.0171  0.1416
15176W        W31360   6.904  18.483   0.433 -0.2609  0.1696  0.0233
15177W        W31361   4.997   3.018   1.027 -0.0281 -0.0039 -0.1663
15178W        W31362   4.164   1.690   2.076 -0.1892  0.2061  0.4536
15179W        W31363  19.057  13.021  10.874 -0.0972 -0.0301  0.1628
15180W        W31364  12.096  13.458   3.940 -0.1398 -0.0691 -0.3386
15181W        W31365   3.197   9.183   0.360  0.3336 -0.1148 -0.0127
15182W        W31366  16.195   8.357  13.284  0.0703 -0.0711 -0.2009
15183W        W31367  18.054  16.147   2.533 -0.2371  0.0618 -0.2654
15184W        W31368  12.825   6.612  12.339 -0.2520 -0.0481 -0.1907
15185W        W31369   0.094  16.091   1.526  0.1590 -0.0764  0.2282
15186W        W31370  16.861  16.324  14.068 -0.0268  0.4126 -0.0855
15187W        W31371  14.532   1.037   4.323  0.0783 -0.0383  0.1520
15188W        W31372  13.142  13.327  12.703 -0.4536 -0.2947 -0.2485
15189W        W31373  18.038   4.757   0.806 -0.2450 -0.0558  0.0426
15190W        W31374   4.181   1.563   4.858 -0.2388  0.2673  0.1702
15191W        W31375  12.980   8.131   0.753 -0.1984  0.0533 -0.0169
15192W        W31376  10.590   1.886  10.881  0.1458  0.1173  0.2438
15193W        W31377   4.383  12.364   1.875  0.1134 -0.2366 -0.1693
15194W        W31378   4.581   2.864  10.591  0.1644 -0.1725 -0.1084
15195W        W31379   2.536  14.302   0.125 -0.1964 -0.2634  0.0307
15196W        W31380   3.726   0.968  14.963 -0.1613 -0.2531  0.0635
15197W        W31381  19.084   0.954   1.950  0.2436  0.0600  0.1478
15198W        W31382   0.361  16.661   1.981  0.3422  0.1210 -0.0076
15199W        W31383   0.335  11.101   3.750 -0.0608 -0.3011  0.1877
15200W        W31384  14.959  15.180   2.805  0.2228  0.0186  0.0028
15201W        W31385  18.762  14.170   0.324  0.2745  0.3062 -0.3096
15202W        W31386   2.211  17.286  12.614 -0.1592 -0.3663 -0.0928
15203W        W31387  11.786  11.483   3.280  0.1256  0.1126 -0.2202
15204W        W31388   8.279   9.430  12.755 -0.0606 -0.1238  0.1681
15205W        W31389   5.991  14.397  13.897 -0.0151  0.0859 -0.3274
15206W        W31390  18.249   7.571   9.714 -0.0454 -0.4045  0.0351
15207W        W31391  18.127  18.778   3.612  0.0865  0.1143 -0.1284
15208W        W31392  13.066   2.905   4.066  0.2781  0.1109 -0.2782
15209W        W31393  16.899  13.106  13.554  0.2156  0.2846  0.1041
15210W        W31394  18.365  18.362  12.982  0.0506  0.0366 -0.0464
15211W        W31395  16.518   4.967   2.466 -0.1589  0.2396  0.2621
15212W        W31396  12.585   4.251  11.783  0.0748  0.2526  0.2975
15213W        W31397  18.214  19.023   0.316  0.0896 -0.4837  0.1292
15214W        W31398   3.934  18.881  11.747  0.1235  0.0699 -0.3217
15215W        W31399  15.324  14.091  12.616 -0.1946 -0.0577 -0.3587
15216W        W31400  15.037  18.413   0.434  0.0528 -0.1192  0.2327
15217W        W31401  12.896  10.697   1.389  0.0459  0.0462 -0.1367
15218W        W31402  12.397   8.627  13.498  0.0152  0.1533 -0.1046
15219W        W31403  17.665  11.558   1.951 -0.3962 -0.1172 -0.0899
15220W        W31404   3.750   9.590  11.095 -0.0374  0.2626  0.0143
15221W        W31405  18.349   1.899   5.417 -0.0119 -0.2167 -0.1383
15222W        W31406  15.281   6.901   1.705  0.1700 -0.1122 -0.2686
15223W        W31407  12.842   2.082   1.976  0.1495 -0.1252 -0.1820
15224W        W31408   8.271   0.073  13.990  0.3052  0.1085 -0.3021
15225W        W31409   3.086   3.952   0.884 -0.3940  0.0057 -0.3275
15226W        W31410   0.518   3.531  12.405  0.1603 -0.0054  0.0014
15227W        W31411   8.666   9.928  12.715 -0.1828 -0.0598  0.3437
15228W        W31412   4.298   1.451  10.818 -0.3346  0.1104  0.2963
15229W        W31413  12.195  17.801   0.992 -0.2459  0.0690 -0.1622
15230W        W31414  17.487  15.541  14.470 -0.1225 -0.3658  0.2080
15231W        W31415   6.834  11.095  11.316  0.0363 -0.6213 -0.2259
15232W        W31416   0.682   3.725   5.357  0.1307 -0.5041 -0.5938
15233W        W31417  16.440   6.667   1.042  0.2980  0.0635  0.0458
15234W        W31418  18.728   0.693  13.464  0.0170  0.0421 -0.0629
15235W        W31419   8.840  17.319  10.198  0.1570  0.0806 -0.1626
15236W        W31420   6.564   1.462   5.309  0.1124  0.0843 -0.3171
15237W        W31421  15.681   1.127  10.179  0.0480  0.4259  0.0057
15238W        W31422  18.873  17.951   2.635 -0.3980 -0.0804  0.1822
15239W        W31423  12.794   4.501  12.222 -0.3499 -0.1791  0.2567
15240W        W31424  14.370   1.917   3.764  0.0728 -0.2040  0.1565
15241W        W31425   0.587   2.127  11.569 -0.0687  0.0742  0.3002
15242W        W31426  15.304   4.669   0.814  0.0990 -0.0877 -0.0783
15243W        W31427  11.154  13.126  11.355  0.2607  0.2091  0.3565
15244W        W31428  16.379   9.341   0.259 -0.1856  0.0939  0.2110
15245W        W31429   0.735  18.634  12.312 -0.1154 -0.1236 -0.0649
15246W        W31430  11.284   5.808  10.744 -0.0103  0.1255 -0.0403
15247W        W31431   1.391   5.704   0.285 -0.1176 -0.0855  0.2414
15248W        W31432   7.616   8.445  14.094 -0.0393  0.3169 -0.2716
15249W        W31433   6.434  12.674  13.121 -0.2214  0.1060 -0.0408
15250W        W31434  19.045   2.974   2.411 -0.0736 -0.1447  0.0748
15251W        W31435   2.307   5.732   0.438 -0.2407 -0.1793 -0.0624
15252W        W31436  18.188  14.412   5.360  0.2566 -0.0047  0.0663
15253W        W31437  16.685  11.246   4.289 -0.1927  0.3197  0.2377
15254W        W31438   1.085  18.217  12.352  0.2894 -0.1447  0.1551
15255W        W31439  15.861  12.010  14.508 -0.2732 -0.1688  0.0315
15256W        W31440   3.237  10.963   4.216  0.0242  0.2373  0.1759
15257W        W31441   9.512  14.312   2.604 -0.0592 -0.0307 -0.1796
15258W        W31442  11.789   5.849   0.932  0.0833  0.1640  0.1540
15259W        W31443  16.261  14.115   0.407 -0.2838 -0.1112  0.2003
15260W        W31444  13.196  18.154   4.813 -0.0471 -0.0179 -0.0034
15261W        W31445  16.845  16.528   1.355  0.1965  0.0049  0.0231
15262W        W31446  17.655  15.330  12.698  0.1303  0.0741  0.1216
15263W        W31447   8.701  14.834   0.683 -0.0619 -0.1283 -0.3833
15264W        W31448   8.330  18.771  13.209 -0.1452  0.1665 -0.2685
15265W        W31449  14.711  15.533  13.765  0.0450 -0.4381 -0.2682
15266W        W31450   0.741  12.391   2.303 -0.1459 -0.0941  0.0216
15267W        W31451   3.755   2.622  11.326  0.3867  0.3253 -0.1971
15268W        W31452  19.363   8.877   4.625  0.2056 -0.4202  0.2060
15269W        W31453  12.199   4.367   2.890 -0.0779 -0.0383 -0.1588
15270W        W31454   4.583   8.947   2.428 -0.1265  0.2629 -0.0969
15271W        W31455  13.364  13.519  11.203  0.3300 -0.0269  0.2637
15272W        W31456  18.378   7.482   0.728 -0.0712 -0.1220 -0.0249
15273W        W31457  14.588  12.466  12.079 -0.0121 -0.3084  0.1823
15274W        W31458  14.789   7.305   1.186 -0.0643 -0.0490  0.1315
15275W        W31459  18.398  13.825  14.107 -0.1263  0.1483  0.1747
15276W        W31460   0.138  18.762   4.397 -0.0443  0.1236  0.1005
15277W        W31461  12.856   7.048  14.966  0.2738  0.4850 -0.3390
15278W        W31462   0.313   8.406  11.526 -0.2469 -0.0495 -0.0370
15279W        W31463  13.531   3.750   2.535 -0.2978  0.2932 -0.0380
15280W        W31464  16.673  10.113  14.906 -0.0523  0.1180  0.1119
15281W        W31465   8.729   5.525  13.026 -0.2553  0.0037  0.0004
15282W        W31466  10.347   5.776   1.310  0.1050 -0.2136  0.1643
15283W        W31467   1.207   7.824  12.073 -0.1197  0.0190  0.1549
15284W        W31468  11.048  19.041   5.216 -0.3930 -0.4075  0.1169
15285W        W31469   3.236   7.450   1.749 -0.2009  0.1209 -0.2546
15286W        W31470   7.180   9.473   2.549 -0.3497 -0.2573  0.0235
15287W        W31471   0.677   8.657  13.429 -0.2109 -0.1722  0.3794
15288W        W31472   6.945   9.647   0.148  0.1150 -0.0420 -0.4234
15289W        W31473  16.966  15.928   0.269  0.0862 -0.2807  0.1388
15290W        W31474  15.998   9.374   9.735  0.0402  0.0754  0.2520
15291W        W31475  17.434   9.005   0.245 -0.1415 -0.0364 -0.0979
15292W        W31476  14.749  10.247   3.936 -0.0374  0.0444 -0.1977
15293W        W31477   3.841  17.490   0.061  0.2605  0.1307  0.0485
15294W        W31478  13.222  12.958  13.624 -0.2320 -0.0480 -0.2426
15295W        W31479  12.751   4.077  13.353  0.3591  0.0219  0.3078
15296W        W31480   2.399  12.535   0.968 -0.1122 -0.3051 -0.3315
15297W        W31481   0.534  12.704  14.555 -0.0171  0.0917  0.0026
15298W        W31482  17.449   8.703   4.797  0.1015  0.2855  0.0028
15299W        W31483   5.815   7.732   0.363 -0.5276 -0.2208 -0.2649
15300W        W31484  11.948   0.131   1.987  0.2919  0.4213  0.1104
15301W        W31485   8.427   0.824   4.191 -0.1885  0.1111  0.4741
15302W        W31486  11.210   7.270  11.313 -0.1971 -0.2375  0.0302
15303W        W31487  18.188  15.244   1.999  0.0092  0.2705 -0.1428
15304W        W31488  17.260   2.617  11.769 -0.1795 -0.0729 -0.0775
15305W        W31489   2.577   5.222  13.837 -0.1642 -0.0246  0.2650
15306W        W31490  15.218   9.967   3.947 -0.2866  0.1649  0.0003
15307W        W31491   9.599   4.464  12.491 -0.1752  0.2921 -0.4067
15308W        W31492   5.518   2.882  10.215  0.3784 -0.1603  0.1643
15309W        W31493   3.256  18.516  13.163  0.1618 -0.0226 -0.0255
15310W        W31494   3.153   6.407   1.517 -0.0363 -0.0869  0.0461
15311W        W31495  16.291   0.974   2.464  0.4019  0.0855 -0.0936
15312W        W31496  18.452  14.930  12.370 -0.1471  0.0615 -0.1485
15313W        W31497  14.775   3.741   1.547  0.1523 -0.2953 -0.1680
15314W        W31498   2.133   4.115   1.105  0.0057  0.0471  0.1091
15315W        W31499  16.606   9.704   0.726  0.0346 -0.0468 -0.1730
15316W        W31500  12.786  14.110  13.944 -0.3907  0.0349  0.1128
15317W        W31501   1.409   6.010  11.742 -0.1196 -0.1260  0.0397
15318W        W31502  14.269  13.239   0.428 -0.4768  0.2232 -0.2086
15319W        W31503  15.882  17.024  11.118  0.1419 -0.0922  0.4844
15320W        W31504   6.853   7.125  12.249 -0.2479 -0.1761 -0.1386
15321W        W31505  11.680  16.175  12.249  0.1240  0.0930 -0.0395
15322W        W31506  11.324   7.949   1.664  0.0790  0.0292 -0.0151
15323W        W31507   1.993  14.848  13.001 -0.0159  0.1747 -0.2264
15324W        W31508   5.915   2.428   3.166  0.2546  0.4581 -0.3320
15325W        W31509   6.625  13.364  10.936 -0.0515 -0.0079  0.1241
15326W        W31510   5.311  11.470   0.268  0.0332  0.2334  0.0369
15327W        W31511   0.451   3.071  12.129  0.0467 -0.1074 -0.2785
15328W        W31512  12.171  11.054   0.120  0.0178 -0.0762 -0.0499
15329W        W31513  14.747   9.351   4.653  0.0918  0.0005 -0.0551
15330W        W31514  16.623   0.950  12.590  0.1365  0.0660 -0.0819
15331W        W31515  15.482   2.608  14.138 -0.1557 -0.2047 -0.3202
15332W        W31516  17.588   6.608  11.032 -0.0382 -0.2209  0.0664
15333W        W31517   0.960  18.461   1.464 -0.2200  0.1686 -0.0348
15334W        W31518  15.628  15.834  10.225  0.4895  0.0922  0.3999
15335W        W31519  19.144  14.048   4.663 -0.0017 -0.2821  0.0552
15336W        W31520   4.443   9.839   0.030 -0.0122 -0.3397  0.1573
15337W        W31521  18.691   2.220   4.631 -0.1239 -0.1714  0.0253
15338W        W31522   5.723   6.707  14.662  0.0255  0.4129 -0.0087
15339W        W31523   4.385  12.254  10.354  0.4529  0.0796 -0.1025
15340W        W31524  10.204  12.857  14.802 -0.0457  0.1123  0.1274
15341W        W31525   0.863  11.084   3.737  0.0880  0.0002 -0.3551
15342W        W31526   0.641   7.095  13.901 -0.0881  0.3483  0.1252
15343W        W31527  11.922  13.511   2.618  0.0738  0.1258  0.2142
15344W        W31528   5.218  14.214  13.533  0.0210 -0.3000 -0.0566
15345W        W31529  15.743  12.934   1.486  0.0720 -0.3405  0.3277
15346W        W31530   2.442   4.015  12.851  0.0485  0.0352  0.0216
15347W        W31531   3.099   2.527   3.063 -0.0109  0.4086  0.1075
15348W        W31532  18.923   2.551  12.535  0.0930  0.1353  0.3017
15349W        W31533   2.464   8.827  13.218 -0.3495 -0.0431 -0.1513
15350W        W31534  19.208   2.497  12.026 -0.2602  0.3263  0.4420
15351W        W31535   9.348  17.063   1.837  0.0092 -0.1194 -0.0036
15352W        W31536  10.081  12.705   5.070 -0.2304  0.3224  0.0691
15353W        W31537   4.277  11.236   0.407 -0.1163 -0.0440  0.0676
15354W        W31538   0.863  12.085   2.844  0.0934 -0.0431 -0.4429
15355W        W31539   9.366   8.447  13.743 -0.3828  0.1780 -0.3709
15356W        W31540  10.678   3.192  12.473  0.3663 -0.2526  0.0110
15357W        W31541   2.443  15.422   2.235 -0.1848 -0.5996 -0.0829
15358W        W31542   9.706  18.408   3.688 -0.2111  0.0635  0.1957
15359W        W31543   0.992  17.301   9.978 -0.0861 -0.0175 -0.0524
15360W        W31544   9.909   8.339   3.482 -0.0701 -0.3281 -0.2757
15361W        W31545  14.988  15.444  12.042  0.0139  0.2122 -0.1542
15362W        W31546   0.318   4.994  14.852 -0.2376  0.0196 -0.1990
15363W        W31547   8.692   3.124  14.219  0.1499 -0.1471  0.2541
15364W        W31548   9.126  17.884   0.476  0.1021  0.3954 -0.1483
15365W        W31549   3.317   5.271   1.869 -0.1563 -0.4518 -0.1018
15366W        W31550  14.796   6.053  11.361 -0.0625  0.0148 -0.3215
15367W        W31551   2.529  13.854  14.894 -0.0720  0.0153  0.0039
15368W        W31552  16.532  11.521  13.855  0.1314 -0.0294  0.0214
15369W        W31553   5.164   2.781  12.074  0.4334 -0.0955  0.2685
15370W        W31554   3.704   4.385  13.689  0.1460  0.0649 -0.0343
15371W        W31555   5.045   4.610  14.971 -0.1536 -0.0341 -0.0575
15372W        W31556  12.032   4.609  10.342  0.3305  0.2471 -0.2371
15373W        W31557  16.292   3.042   4.856  0.0669  0.1751 -0.1287
15374W        W31558  17.706   9.382  12.995  0.0774 -0.0448  0.4798
15375W        W31559  10.472   8.386  12.453  0.1140 -0.2986 -0.0490
15376W        W31560   5.388   6.063  12.454  0.1080  0.0125 -0.0333
15377W        W31561  16.910  15.668   0.758 -0.0569  0.1438 -0.0409
15378W        W31562  16.510   8.289  13.644  0.0051  0.0326  0.1647
15379W        W31563  11.004   9.421   9.168 -0.0681  0.3401 -0.1284
15380W        W31564   6.542  14.412   3.584  0.0460 -0.0693 -0.0218
15381W        W31565   3.138  13.861  13.576  0.0596 -0.1958 -0.0107
15382W        W31566   2.509   7.165  11.650 -0.0013  0.0081 -0.2857
15383W        W31567   2.782   3.468  11.405  0.2553 -0.0030 -0.0101
15384W        W31568  13.209  11.403  11.575  0.0583 -0.0025  0.0166
15385W        W31569  10.909  15.101   2.451 -0.2947  0.0208 -0.0639
15386W        W31570   1.700  18.077   0.939  0.0264  0.0446  0.0097
15387W        W31571   9.456  18.956  13.093 -0.2313  0.0234  0.1732
15388W        W31572  15.356  16.501  12.101 -0.0351 -0.0805 -0.0565
15389W        W31573   2.372  15.744  10.782  0.3707 -0.3061 -0.0518
15390W        W31574   9.603  11.558   1.537  0.0388 -0.0125  0.0086
15391W        W31575  10.566   4.862   3.499  0.0293 -0.1223  0.0198
15392W        W31576  10.635  15.873   1.151 -0.0855  0.0496  0.4014
15393W        W31577  12.797  18.296  10.897 -0.1668 -0.1371 -0.1794
15394W        W31578  13.825   1.922  13.141  0.2700  0.0994 -0.4811
15395W        W31579   1.307  15.780   5.281  0.0610 -0.0780  0.5725
15396W        W31580  15.616   2.618   0.872 -0.0954 -0.2722 -0.0236
15397W        W31581   6.331  15.278   5.165  0.2593  0.1168  0.0238
15398W        W31582  14.237   6.810  12.681  0.1728  0.1215 -0.2119
15399W        W31583   3.797  19.089   0.006  0.0338  0.1690 -0.2085
15400W        W31584  14.550   0.609   1.331  0.1202 -0.0568 -0.3528
15401W        W31585  15.284  16.270   4.380  0.1779 -0.2189 -0.3335
15402W        W31586  12.512   0.617  14.511  0.2673  0.3516 -0.0819
15403W        W31587  15.067   4.356  11.354  0.3151 -0.1736  0.2110
15404W        W31588   0.699  11.262  12.354  0.0535  0.3566 -0.2970
15405W        W31589  10.027  11.066  11.526  0.1673 -0.0107 -0.1611
15406W        W31590   7.339   2.808   1.050  0.0322 -0.1056  0.1562
15407W        W31591   6.565   9.237  11.091  0.0542  0.0182  0.2216
15408W        W31592  12.506  16.878   4.198  0.0015  0.0945  0.2765
15409W        W31593   1.702   4.757  13.814  0.2934  0.0876  0.0002
15410W        W31594   4.328   4.294   3.723  0.0944 -0.0650  0.4161
15411W        W31595   3.090   7.706  11.364 -0.1983 -0.3326 -0.0625
15412W        W31596   6.212  19.325   3.863 -0.6975  0.2830 -0.1002
15413W        W31597  16.474  13.487  14.794  0.3168 -0.1626 -0.2971
15414W        W31598  17.388   6.605   3.853 -0.2960 -0.0106 -0.2001
15415W        W31599  10.404  18.869  12.303  0.1388 -0.0052  0.1727
15416W        W31600  13.114  10.243  11.071 -0.0130 -0.1131  0.0501
15417W        W31601   8.048  18.065   0.479 -0.0024 -0.0241  0.2475
15418W        W31602  16.983  13.040  12.632 -0.0139 -0.1380 -0.3089
15419W        W31603  16.050   5.661  13.739 -0.2430  0.0148 -0.1919
15420W        W31604   7.999  13.990  11.092 -0.0421 -0.1930  0.0062
15421W        W31605   7.757   5.208  13.283  0.3057 -0.1410 -0.0717
15422W        W31606   7.223  14.470   9.985  0.2723  0.4419  0.2146
15423W        W31607   4.676  15.836  12.315 -0.0280  0.1036  0.1374
15424W        W31608   1.273   9.352  11.318  0.2631  0.0040 -0.0687
15425W        W31609   6.710   6.174   2.017  0.3551  0.3041 -0.0891
15426W        W31610  14.147   9.026  12.335  0.0123  0.1332 -0.0734
15427W        W31611   7.461  15.615   2.550  0.1824  0.2697  0.0624
15428W        W31612  10.406  13.286  10.837 -0.4701  0.1551 -0.0590
15429W        W31613   9.414   2.293  11.401 -0.1743 -0.1243  0.2188
15430W        W31614  17.576   5.437  12.147  0.0135  0.2092  0.1198
15431W        W31615   3.717  19.367  11.583 -0.2254  0.1293  0.1285
15432W        W31616   2.596  16.239   0.561 -0.3059  0.2582 -0.1080
15433W        W31617  12.609   6.959  11.537  0.5234 -0.0204 -0.1691
15434W        W31618   6.829  14.286  11.727  0.1218  0.0623 -0.0815
15435W        W31619  16.143  18.605   0.273  0.0532 -0.2577  0.0719
15436W        W31620  12.252   6.826  11.207 -0.0131  0.1120  0.0548
15437W        W31621  18.672   8.173   0.154 -0.1987 -0.2679  0.0669
15438W        W31622  13.038  11.414  14.344  0.3353 -0.1331 -0.1558
15439W        W31623  10.231   8.947   2.626  0.3470  0.3124  0.2284
15440W        W31624   3.191  13.996   1.746  0.0649  0.4669  0.1431
15441W        W31625   8.944   8.702   2.981 -0.4525 -0.2998 -0.1315
15442W        W31626   7.072  16.842   4.181  0.1575  0.0012 -0.0865
15443W        W31627  14.980   7.480  14.069  0.0665 -0.0436  0.0497
15444W        W31628  18.250  13.865  11.333 -0.1681  0.1299  0.3179
15445W        W31629  18.193  12.455  12.290 -0.2961  0.0330 -0.0297
15446W        W31630   3.056   8.466   2.476 -0.0121  0.0774  0.1077
15447W        W31631  18.781  10.622  14.438 -0.1414 -0.1160 -0.0576
15448W        W31632   0.579   2.939  14.697 -0.0504 -0.5340 -0.0576
15449W        W31633  14.813   4.140  12.726 -0.0342 -0.0528 -0.3863
15450W        W31634  14.533   5.087   3.964  0.2652  0.1075 -0.3683
15451W        W31635  17.017  14.248   3.714 -0.1371  0.2363  0.1181
15452W        W31636   2.358  12.199  14.217  0.1207  0.3099  0.2500
15453W        W31637   2.004   4.778   2.036 -0.0821  0.1579  0.0059
15454W        W31638  17.682   9.039  13.894  0.2126  0.0810  0.2449
15455W        W31639   6.765   4.072   0.518  0.0823  0.0428 -0.0592
15456W        W31640  10.825  17.724   2.235  0.0041  0.0976  0.0560
15457W        W31641  13.187   6.677   0.041  0.1809 -0.3068  0.0201
15458W        W31642  15.087   9.869   9.999 -0.2502  0.0482 -0.2125
15459W        W31643   4.660  11.743  14.346  0.4080  0.2126 -0.2009
15460W        W31644   6.600   8.171  12.921  0.4481 -0.0229 -0.0101
15461W        W31645  16.551   9.430   1.882  0.1728  0.1612 -0.1893
15462W        W31646   9.319  11.750  11.315 -0.1976  0.4497 -0.0765
15463W        W31647   9.795   9.531   4.401  0.0676  0.1946 -0.2056
15464W        W31648   2.632   7.344  14.965 -0.0130 -0.1028  0.4296
15465W        W31649   9.061   6.947  11.720 -0.4038 -0.1835  0.0582
15466W        W31650  11.142  13.285   5.738 -0.0531 -0.0066 -0.1271
15467W        W31651   9.905   6.909   3.568  0.0487  0.1299  0.2135
15468W        W31652  15.785  12.215   0.833  0.0319  0.0175  0.2918
15469W        W31653  17.753  16.887   1.339 -0.0497 -0.2475 -0.0925
15470W        W31654   4.631  14.831   4.084 -0.1804  0.2107  0.0842
15471W        W31655  15.118  12.795   0.903 -0.1242 -0.1934  0.0645
15472W        W31656   3.985   4.030  13.899  0.4077  0.0113 -0.1240
15473W        W31657   8.877  16.878   3.929 -0.0098 -0.0208 -0.0843
15474W        W31658  15.423   4.992  11.885 -0.1041 -0.2920  0.2294
15475W        W31659  18.516  15.677  12.316 -0.0005  0.2192  0.0005
15476W        W31660  14.852  13.422   4.044  0.1855 -0.2487 -0.3465
15477W        W31661  15.982   7.418   0.470 -0.1849  0.2813 -0.0445
15478W        W31662  12.529   9.013   0.063 -0.0514 -0.4046  0.2743
15479W        W31663   1.290  10.290   3.701 -0.1393  0.0824 -0.1162
15480W        W31664   5.512   6.459   0.561  0.1192 -0.1295 -0.0208
15481W        W31665   3.743   4.282  12.747 -0.0717 -0.1557 -0.0732
15482W        W31666   7.148  17.502  11.604  0.3398 -0.0331 -0.0991
15483W        W31667   5.829   0.299   0.309 -0.0833 -0.0888 -0.0355
15484W        W31668  16.762   2.978  12.572 -0.1892  0.1091 -0.2339
15485W        W31669  17.338  19.297   9.493  0.0700  0.0443 -0.1231
15486W        W31670   6.070   6.521  14.371 -0.0063 -0.1919 -0.0978
15487W        W31671  16.585   4.088  14.254 -0.0637 -0.0814 -0.2069
15488W        W31672  12.730   9.217  11.230 -0.1783  0.1069 -0.0380
15489W        W31673  10.466  16.365  14.202  0.1872 -0.0655  0.1248
15490W        W31674   1.149   3.024  14.811  0.1258 -0.1336 -0.1622
15491W        W31675  12.788  16.439   4.488  0.4148 -0.0840 -0.0647
15492W        W31676  14.591  19.202  13.711  0.0650 -0.1813  0.1270
15493W        W31677   4.265  17.626  12.561  0.0614  0.1951 -0.0099
15494W        W31678   7.577   1.280  12.773  0.0300  0.1922  0.4022
15495W        W31679   5.303   6.454  12.699 -0.3075  0.0475  0.4594
15496W        W31680   3.163  11.348  10.899 -0.1327  0.1036 -0.2315
15497W        W31681   4.420   8.154   2.917 -0.1569  0.2701 -0.0772
15498W        W31682   2.858   8.649   0.110 -0.2160 -0.0917 -0.0779
15499W        W31683  19.170  11.338  12.653  0.0239  0.1229  0.2140
15500W        W31684   8.951   5.750   2.558 -0.2983 -0.1535 -0.0797
15501W        W31685  18.000  12.388   3.079 -0.0055  0.1011  0.0763
15502W        W31686   8.261   8.468   0.343  0.0823  0.2850  0.0703
15503W        W31687   7.399  18.095  12.638 -0.0485 -0.0323  0.1362
15504W        W31688   2.662   3.910  12.028 -0.2219  0.3661  0.3661
15505W        W31689  14.180  17.159   4.864 -0.2013  0.2106 -0.1988
15506W        W31690   0.040  17.342  13.832  0.0788 -0.5072 -0.1225
15507W        W31691   5.342   7.417   2.162  0.4428 -0.1484  0.2802
15508W        W31692   6.788   0.701  14.588  0.1544  0.0754 -0.1963
15509W        W31693   2.447   3.236   4.924  0.1163  0.2291  0.3338
15510W        W31694   2.328  10.945  11.064 -0.0836 -0.1143 -0.0990
15511W        W31695   6.756   1.850  13.234  0.5377 -0.2780  0.1572
15512W        W31696   7.442  16.836  12.909 -0.1279 -0.0685 -0.1124
15513W        W31697   0.307   2.614  14.020 -0.0826 -0.3389 -0.1105
15514W        W31698   6.228   3.151   0.407 -0.1091  0.1519 -0.2058
15515W        W31699   9.065  18.784  12.080 -0.1495 -0.0347 -0.1235
15516W        W31700   9.391   2.993  11.335  0.3394 -0.4062 -0.1849
15517W        W31701   9.694  13.948  11.221 -0.5088 -0.0870  0.1530
15518W        W31702   3.978   9.086  11.720  0.1862  0.2158  0.0169
15519W        W31703   2.346  10.588  11.543 -0.1953  0.0028 -0.3286
15520W        W31704   6.063  16.372   0.830 -0.2398  0.1536 -0.2513
15521W        W31705   1.573  17.791   4.190  0.1272  0.0067  0.0850
15522W        W31706   1.942  18.762   1.947 -0.2006  0.0922  0.1266
15523W        W31707  16.051   8.442   3.185  0.3589  0.0449  0.3548
15524W        W31708  12.141  14.719  12.847 -0.1534 -0.1423  0.2173
15525W        W31709  11.240  10.615   0.789 -0.0202  0.2830 -0.2030
15526W        W31710  16.149   6.460  13.424  0.1560  0.1351 -0.1647
15527W        W31711   3.557  14.768  11.877 -0.0870 -0.0667 -0.7783
15528W        W31712  15.498   6.540   3.174  0.2093 -0.0676 -0.2556
15529W        W31713  18.311  16.165   4.972  0.0968  0.1369  0.0191
15530W        W31714  10.833   6.604  11.949 -0.3964  0.0583 -0.0908
15531W        W31715   4.984   6.035  12.195 -0.0519 -0.2560  0.0049
15532W        W31716  15.060  12.587  11.559  0.1008 -0.2052  0.2520
15533W        W31717   0.042   3.720   3.767 -0.1161  0.0394  0.2077
15534W        W31718   9.098  14.803   2.823 -0.2070  0.0078 -0.0716
15535W        W31719   4.155  14.016   1.136 -0.0307 -0.1141 -0.1436
15536W        W31720  14.116  17.267   2.219 -0.1637 -0.0757 -0.1074
15537W        W31721   8.853   1.123  10.512 -0.0387 -0.1366 -0.0422
15538W        W31722   9.933   4.962   2.250  0.2111  0.2613 -0.6201
15539W        W31723  16.712   6.653  14.099  0.1356  0.1732 -0.2184
15540W        W31724   6.750  13.094  13.278 -0.1570 -0.0316  0.1443
15541W        W31725  17.447   7.012   4.747  0.0628 -0.0236 -0.0214
15542W        W31726   3.191  12.129  12.970  0.0796 -0.0309 -0.1970
15543W        W31727  14.732  18.989  10.895  0.2577 -0.1832  0.4294
15544W        W31728   0.440  10.280   3.358  0.0498  0.1903  0.1590
15545W        W31729   7.908   1.553  10.275 -0.2042 -0.0200  0.1650
15546W        W31730   8.867  12.662  13.331  0.1917  0.3208 -0.2048
15547W        W31731   0.482  16.080  11.233  0.2099 -0.2659 -0.0363
15548W        W31732  12.238  13.865  12.236  0.2786 -0.1946 -0.0987
15549W        W31733  16.553  18.492  13.753 -0.1220 -0.0059  0.1114
15550W        W31734   4.601  12.711  10.217  0.1024 -0.1277 -0.0896
15551W        W31735  15.043   1.296  11.986 -0.1953  0.2225 -0.0326
15552W        W31736   5.849  15.172   1.184 -0.0759  0.0855  0.1610
15553W        W31737   5.604   2.633  13.693 -0.0902  0.0956  0.0064
15554W        W31738  14.427  14.302   1.656  0.0660 -0.0744 -0.0472
15555W        W31739  13.225  17.133  13.136 -0.1932 -0.1188 -0.0425
15556W        W31740   1.781   4.851   0.726  0.0663  0.0179 -0.2346
15557W        W31741   9.218   7.000   2.100  0.1958 -0.2349 -0.2066
15558W        W31742   9.833   0.818  13.241 -0.5148 -0.0869 -0.0581
15559W        W31743   7.578   5.018  10.783  0.2926 -0.2989  0.1689
15560W        W31744   4.284   3.489  11.044 -0.0074  0.1065  0.3134
15561W        W31745   9.268   1.731  13.024  0.0306  0.1183 -0.0630
15562W        W31746  16.309  12.320  10.805 -0.1495 -0.1191 -0.0950
15563W        W31747  14.726   1.594   3.300  0.1501 -0.3832 -0.0842
15564W        W31748   2.025  13.749   4.577 -0.3537  0.2489  0.3124
15565W        W31749  16.000   9.143  14.095 -0.1965 -0.0814  0.1527
15566W        W31750   5.607   6.574  14.195  0.1149  0.0606 -0.1916
15567W        W31751   6.785  15.550   1.271 -0.1490  0.0809 -0.2676
15568W        W31752   5.697   8.993  11.448 -0.0313 -0.3020 -0.0687
15569W        W31753  18.680  13.776  13.649 -0.1494 -0.2415 -0.1038
15570W        W31754   3.596   2.868   1.524  0.0551  0.2793  0.2930
15571W        W31755   7.976  12.161  10.296  0.1523 -0.1305 -0.0233
15572W        W31756  14.467  16.411   1.033  0.0449 -0.1270 -0.1778
15573W        W31757   7.032  10.981   0.146  0.4056 -0.0063 -0.1907
15574W        W31758   1.356   0.078   5.143 -0.3099 -0.0362  0.1389
15575W        W31759   1.582  18.918   2.244  0.0724 -0.0857  0.2120
15576W        W31760   2.313  16.971   5.585 -0.4528  0.2664 -0.3596
15577W        W31761   7.246   0.575   2.157 -0.2555  0.5084  0.0234
15578W        W31762   9.050  10.615   5.963  0.0111  0.3122 -0.1717
15579W        W31763   1.097   6.813   4.449  0.0393  0.3245 -0.0346
15580W        W31764  10.666   5.400  14.620  0.0495  0.0998 -0.1165
15581W        W31765  16.425   6.711   2.735  0.2597  0.2311 -0.0954
15582W        W31766  15.165   8.866   3.444 -0.1569 -0.0874  0.3092
15583W        W31767   9.748  14.317   3.524 -0.2570  0.0572  0.3376
15584W        W31768   6.613  13.232   4.089  0.2530 -0.0662 -0.2756
15585W        W31769   8.174   3.956  10.426 -0.2476 -0.0260  0.1997
15586W        W31770   2.591   0.594  12.799 -0.2439  0.1934  0.0112
15587W        W31771  18.341   8.906  10.330 -0.1124 -0.1776  0.0876
15588W        W31772   3.489  11.884   4.068  0.0129 -0.0681  0.0509
15589W        W31773   3.166   7.093   4.613 -0.0127 -0.0051  0.2912
15590W        W31774  15.019  14.505  14.574  0.1937 -0.1604 -0.0338
15591W        W31775   5.307   7.179  11.970  0.2831 -0.0950 -0.1307
15592W        W31776  16.980  11.532   2.505  0.1084 -0.0887  0.3871
15593W        W31777   2.949  19.201  10.201 -0.1591 -0.0478 -0.1182
15594W        W31778   0.228  11.074  14.532  0.0201  0.1715 -0.0703
15595W        W31779  16.347   3.747  11.043 -0.0986 -0.1279 -0.0041
15596W        W31780   9.786   0.865   2.924 -0.6130 -0.0460  0.0226
15597W        W31781  14.489   7.384  12.279  0.0249 -0.1769 -0.4440
15598W        W31782  13.466  18.204  10.692 -0.0060 -0.0508 -0.1327
15599W        W31783  15.311   9.511  11.585  0.2435 -0.0780  0.1129
15600W        W31784  14.224  15.550   5.857 -0.1613  0.3479 -0.1501
15601W        W31785  14.420  13.225  13.946  0.1201  0.1413 -0.0745
15602W        W31786  11.212  18.538   5.086 -0.0662 -0.0175 -0.0419
15603W        W31787  12.000  12.528   3.802  0.0989 -0.3169 -0.1146
15604W        W31788   5.451  13.088   3.273 -0.1102  0.0646 -0.0405
15605W        W31789   5.724  15.076   2.606 -0.3117 -0.1166 -0.1516
15606W        W31790   1.741  18.875   2.768 -0.0897 -0.2745  0.0017
15607W        W31791   5.056  18.279  12.367  0.1580  0.3052 -0.3561
15608W        W31792   8.679  10.103  10.632 -0.1650 -0.0983 -0.1844
15609W        W31793  18.706   6.206   0.613  0.0042  0.1515 -0.1240
15610W        W31794   3.884   8.569  14.694 -0.0758  0.2230  0.1617
15611W        W31795  14.366   2.312  14.932 -0.3603  0.1108 -0.5903
15612W        W31796   7.593   2.680   2.880 -0.0748  0.2777  0.3880
15613W        W31797  11.671   3.842   3.445  0.1216  0.0574  0.0977
15614W        W31798   2.557  11.056  14.473  0.1202  0.1669 -0.1988
15615W        W31799  18.431   4.285  10.907  0.3341  0.1511  0.3544
15616W        W31800  16.024   7.416  11.275  0.0192  0.2130  0.4409
15617W        W31801   3.114   7.332  13.746 -0.0615  0.0463 -0.1423
15618W        W31802  14.397  10.771   2.979  0.0966  0.2439 -0.1509
15619W        W31803  13.187   6.888  13.303 -0.0587 -0.1120  0.1467
15620W        W31804   0.209   2.830  11.823  0.1209 -0.0109  0.1689
15621W        W31805   1.179   1.781   0.470 -0.3307  0.2745  0.0597
15622W        W31806  18.541  10.333   4.233  0.0399  0.2001 -0.0638
15623W        W31807  14.130   8.980   0.567  0.2452 -0.2766  0.0703
15624W        W31808  17.856   9.359  13.558  0.0038  0.0473  0.0479
15625W        W31809   2.921   7.853   1.637  0.4803 -0.4017 -0.0298
15626W        W31810  13.065   7.511  12.586 -0.2591  0.2094 -0.2499
15627W        W31811  18.785   0.859  14.351 -0.1073 -0.0770  0.0324
15628W        W31812   8.217   1.986   2.965 -0.3897 -0.3217  0.0454
15629W        W31813  10.255  16.311   2.169  0.2769 -0.1323 -0.2931
15630W        W31814  17.333  17.891  14.021 -0.1898  0.1046  0.0676
15631W        W31815  13.940   4.127  13.358  0.2185  0.0494  0.2196
15632W        W31816  17.863   8.318   1.555  0.0150  0.2292  0.1456
15633W        W31817  10.990  11.674  14.111  0.1689 -0.1001  0.2702
15634W        W31818  16.451   1.898   2.784  0.2129 -0.0382 -0.0288
15635W        W31819   0.783  14.335   1.991 -0.1219 -0.0797  0.1953
15636W        W31820  17.141  11.934  10.866 -0.1224  0.0658  0.3000
15637W        W31821  16.801   0.458   2.483  0.2001 -0.3491  0.0091
15638W        W31822   8.787  11.329  14.279 -0.0553 -0.1947 -0.1929
15639W        W31823  17.147   1.280  12.220  0.0732 -0.1619 -0.3180
15640W        W31824   8.829  17.793  14.561 -0.1753  0.0990  0.0027
15641W        W31825  10.536  15.389   3.713  0.1310 -0.0114  0.0625
15642W        W31826  11.344  14.907   4.663 -0.1207  0.0305  0.0667
15643W        W31827   8.177  16.437  11.786 -0.2818  0.1164 -0.0291
15644W        W31828   3.894   8.029  14.516 -0.1105 -0.1680  0.2382
15645W        W31829   0.903  10.635  14.811  0.1736  0.0928  0.0102
15646W        W31830   7.833   8.018  13.836  0.0464 -0.2089  0.0822
15647W        W31831   4.725  13.983   1.006 -0.0053 -0.0708 -0.0803
15648W        W31832   2.636   2.390  14.278 -0.2352 -0.0426  0.0225
15649W        W31833   8.545  15.089   2.706 -0.1331  0.1453  0.0479
15650W        W31834  18.152  13.414   3.775 -0.0605  0.0668 -0.1285
15651W        W31835   1.267   1.119   4.201  0.0057  0.1604 -0.0343
15652W        W31836  12.841  12.635  11.430  0.0477  0.0139 -0.0044
15653W        W31837  18.748  16.970   2.059 -0.3486 -0.0499  0.0697
15654W        W31838  16.136   1.459  14.532  0.0311 -0.2582  0.3029
15655W        W31839   4.183  15.623   1.519 -0.0017 -0.0476  0.2201
15656W        W31840  13.129  15.473   0.413 -0.2524 -0.0683 -0.0366
15657W        W31841   6.293   9.198   1.411 -0.0119 -0.1015  0.3145
15658W        W31842   7.356   1.635   0.686  0.0227  0.1073  0.2789
15659W        W31843  15.443   8.601   0.481 -0.0880 -0.1211 -0.4333
15660W        W31844  16.063  11.779  12.759 -0.1210 -0.1341  0.0493
15661W        W31845   0.790  15.740   1.056 -0.4231 -0.0782 -0.1793
15662W        W31846  14.223  16.518   3.763 -0.1616  0.0786 -0.1603
15663W        W31847  12.781   1.221   1.678 -0.3472 -0.3140  0.1693
15664W        W31848  19.312   9.841   1.080 -0.4282  0.0536  0.1446
15665W        W31849  10.669   6.218   2.455 -0.2001  0.0868  0.1245
15666W        W31850   2.010  19.076  10.633 -0.1296  0.0857 -0.3380
15667W        W31851   4.456  10.684   2.052 -0.1619  0.1238  0.2619
15668W        W31852  16.479   7.796   2.410 -0.0088 -0.1447  0.1795
15669W        W31853  14.920   9.172  10.442  0.2144  0.0692  0.0451
15670W        W31854  14.944   4.132   2.583 -0.0416 -0.2245  0.1324
15671W        W31855  15.472   8.074  10.243  0.0484  0.3127 -0.0299
15672W        W31856   9.431   2.178   3.129  0.0276  0.1312  0.1350
15673W        W31857   8.400   9.276  12.254  0.0842 -0.0639  0.0075
15674W        W31858  16.082   0.872  10.866 -0.0826 -0.2709 -0.0275
15675W        W31859   7.805   3.589  10.871  0.0768 -0.1859  0.3622
15676W        W31860   8.737  18.316   3.203  0.0062  0.0156 -0.2754
15677W        W31861  17.480   2.770  11.227  0.1616 -0.2961 -0.1766
15678W        W31862  19.341  16.006  12.523 -0.0454 -0.0292  0.0025
15679W        W31863  13.638  18.816   4.290 -0.0753  0.2667 -0.0776
15680W        W31864   7.792   9.721  14.383  0.1466 -0.1427 -0.2508
15681W        W31865  19.197  16.029   1.019 -0.1479  0.0571 -0.0158
15682W        W31866   1.783   2.126  14.328 -0.1248  0.3232 -0.1549
15683W        W31867   5.447  18.573   2.347 -0.2566 -0.1135  0.1822
15684W        W31868   2.309  11.528   2.690 -0.0280 -0.0900  0.1593
15685W        W31869   9.601  10.376   3.209 -0.1813  0.0358 -0.1311
15686W        W31870   7.051  14.774   0.637  0.0849 -0.0738 -0.0561
15687W        W31871   9.337   6.950   0.121  0.1001 -0.0519 -0.0132
15688W        W31872   5.563  14.986   5.198  0.1118  0.1976 -0.0975
15689W        W31873  11.406  16.834   0.844 -0.0139 -0.1702 -0.0440
15690W        W31874  16.070  13.178   4.860 -0.1196  0.0468  0.3392
15691W        W31875  15.169  16.492   3.362  0.1197 -0.2256  0.1724
15692W        W31876  15.985   6.775  10.090 -0.1111 -0.1870  0.3641
15693W        W31877   9.995   4.774  12.472  0.1258 -0.0847 -0.1372
15694W        W31878   6.024   2.975   3.925 -0.1753 -0.2032 -0.1003
15695W        W31879  11.144   9.677   5.452 -0.1827 -0.1937  0.0634
15696W        W31880   8.104   9.896   2.842 -0.0238  0.0871  0.0705
15697W        W31881   9.436   8.192   3.458 -0.2837  0.0917 -0.0703
15698W        W31882  14.620   4.720  10.413 -0.3090  0.3352 -0.0517
15699W        W31883   7.796  10.301  12.416 -0.0632  0.0636 -0.1067
15700W        W31884   4.993  16.940   1.538 -0.3266  0.0981 -0.0258
15701W        W31885   4.540  17.169   1.620  0.0233  0.0906  0.0748
15702W        W31886  18.693  13.302   5.011  0.3231  0.0275 -0.1559
15703W        W31887   2.881  12.469   1.768  0.0553  0.1050 -0.1292
15704W        W31888  11.710  19.233   2.364  0.0133  0.0489  0.1891
15705W        W31889   1.617  10.639   4.671  0.0512 -0.5963 -0.0772
15706W        W31890  15.362   0.016  13.128 -0.0918  0.2200  0.3637
15707W        W31891  15.915   2.546   3.992  0.0283  0.2913  0.1161
15708W        W31892   7.200   7.402  12.882 -0.0857 -0.2397 -0.0476
15709W        W31893   8.733  12.806   0.458  0.1228  0.0442  0.0296
15710W        W31894   5.424  16.158  11.803  0.1642  0.0661 -0.0525
15711W        W31895   2.443   8.428   0.405 -0.3626  0.1059  0.1794
15712W        W31896  12.077  18.438   2.296  0.5168 -0.1551  0.0259
15713W        W31897  17.475   3.057  10.499  0.0330 -0.2410 -0.3710
15714W        W31898  18.795   6.390   3.317 -0.1929  0.3503  0.0328
15715W        W31899  11.367   2.136  10.388 -0.2933 -0.1705 -0.2903
15716W        W31900  11.705  17.276   5.946 -0.1670 -0.2418 -0.2631
15717W        W31901   7.016  12.225   4.664  0.2840 -0.1991  0.3001
15718W        W31902  10.460   0.156   4.233  0.0506  0.2704 -0.0596
15719W        W31903   6.741   6.307  11.531  0.1770  0.0417 -0.2641
15720W        W31904  11.892   3.909   0.112 -0.0965 -0.1568 -0.1115
15721W        W31905  15.938   6.524  11.898 -0.2222  0.0668 -0.0208
15722W        W31906   6.290  13.505  11.269  0.0281 -0.0168  0.2822
15723W        W31907  18.507  15.471  13.255 -0.0601 -0.2513  0.0058
15724W        W31908   4.018   5.859  13.627  0.2111 -0.0074  0.3287
15725W        W31909   9.487   6.928   5.139  0.1717  0.1398 -0.1330
15726W        W31910   2.974   9.643  13.611 -0.0601  0.2570 -0.0107
15727W        W31911  16.269   9.657  13.396  0.1454  0.3613  0.4295
15728W        W31912   8.677  15.083   3.602  0.1436 -0.1177  0.3323
15729W        W31913  17.397  14.678  14.472  0.0197 -0.0034 -0.2333
15730W        W31914   6.934  13.906   0.517 -0.1847 -0.1384  0.0221
15731W        W31915  11.846  15.260  11.037 -0.0143  0.1121  0.0324
15732W        W31916  16.967   6.007  14.315 -0.1075  0.0258  0.0981
15733W        W31917   5.580  13.539   1.362  0.1827  0.0334  0.1495
15734W        W31918   9.797   8.780   1.045 -0.1039 -0.0277 -0.0476
15735W        W31919   3.365   7.189  11.003  0.0552 -0.1382 -0.1174
15736W        W31920   0.358   8.719  14.731 -0.0416  0.3120 -0.0266
15737W        W31921  17.534  11.664   0.117  0.2590 -0.4724 -0.0067
15738W        W31922  14.036  18.380   2.621  0.0764 -0.1092  0.1233
15739W        W31923   2.528   4.514  14.236  0.2512  0.2086 -0.0818
15740W        W31924  13.379  18.840  10.386  0.0876 -0.4161  0.1193
15741W        W31925  15.871   1.587  11.698 -0.0497  0.1327  0.2900
15742W        W31926   3.500   7.358   9.627  0.1003  0.0826  0.4868
15743W        W31927  14.421   3.389  12.305  0.1369  0.1145 -0.1727
15744W        W31928  13.405  15.087   5.575  0.0116  0.1930 -0.1243
15745W        W31929   3.537  11.867  11.527 -0.3336  0.1807  0.0974
15746W        W31930  12.549  14.292   4.694 -0.1257  0.0213 -0.0138
15747W        W31931   0.782  11.429   2.004 -0.0927  0.1905 -0.1281
15748W        W31932   6.080  13.139   9.156  0.0125 -0.0156 -0.3901
15749W        W31933  14.013   2.463   1.937  0.2886 -0.3254  0.1276
15750W        W31934   2.732  11.396  13.915 -0.0715 -0.1147 -0.0628
15751W        W31935  13.317   0.153  12.300 -0.0203  0.0949 -0.1340
15752W        W31936  11.030  11.946   2.108 -0.1310 -0.0621  0.0930
15753W        W31937   6.382   6.558   1.431  0.0693  0.0789 -0.0415
15754W        W31938  19.044  19.342  11.897 -0.4050  0.3541  0.0047
15755W        W31939  18.338  17.717   2.323  0.0780  0.1015  0.1784
15756W        W31940   7.990  15.804   4.716 -0.1085  0.3682 -0.2514
15757W        W31941  15.028   0.713   2.058 -0.0162  0.1020  0.2250
15758W        W31942  10.472   3.735  14.933 -0.0249  0.1415 -0.0950
15759W        W31943  14.572   1.608  12.349  0.1721  0.2554 -0.0119
15760W        W31944   8.156   5.999   4.143 -0.2550 -0.1038 -0.1869
15761W        W31945   2.020  15.059   5.908 -0.3087  0.5227 -0.0539
15762W        W31946  11.936   9.061  13.623  0.2557 -0.0773 -0.1885
15763W        W31947   1.472   6.350   0.843 -0.1950 -0.1494 -0.1283
15764W        W31948   2.450   7.452  14.038 -0.0801 -0.0256 -0.1413
15765W        W31949   3.713  17.974   1.994 -0.0740  0.2327 -0.3991
15766W        W31950   9.361   0.571  11.907 -0.1681  0.3019  0.2784
15767W        W31951   8.900   1.705  10.389  0.0176 -0.0413 -0.0729
15768W        W31952  12.574   0.269  14.851  0.2374  0.0039 -0.1225
15769W        W31953   5.347   5.875   0.097 -0.0239 -0.0420  0.1359
15770W        W31954  15.643  17.688   1.893 -0.0120 -0.1053 -0.3059
15771W        W31955   7.785  12.247  11.856  0.2621  0.1851  0.1085
15772W        W31956   7.486  17.407  14.924  0.2188  0.2324  0.0848
15773W        W31957   3.918  12.249   3.201  0.0350 -0.1334  0.2588
15774W        W31958   6.938   0.137  14.701 -0.1746 -0.0606  0.5254
15775W        W31959   6.169  17.166   3.854 -0.5022 -0.1134  0.0240
15776W        W31960  13.255   3.815  14.741 -0.2196  0.0299  0.1314
15777W        W31961  12.425   2.563  14.661 -0.2228 -0.1023 -0.1017
15778W        W31962   1.360   0.847   3.277 -0.0548 -0.0485  0.0374
15779W        W31963  16.605  17.316   1.340 -0.0634 -0.2526  0.2651
15780W        W31964  17.254   4.712   5.120 -0.2856 -0.3889 -0.1003
15781W        W31965  16.827  19.268  10.315  0.0200  0.0265  0.3790
15782W        W31966  10.202   1.178   9.757 -0.1377 -0.3964  0.0184
15783W        W31967   4.216  19.018   2.201  0.0479  0.0945 -0.1394
15784W        W31968  16.858   2.769  14.472 -0.1731  0.0231  0.1387
15785W        W31969  15.829  10.419   4.446 -0.1283 -0.0257 -0.5184
15786W        W31970   0.306   7.789  14.592  0.3383  0.0066  0.0087
15787W        W31971  17.647   8.659   3.683  0.1104 -0.1657  0.1803
15788W        W31972  19.111  14.701   2.837  0.0248  0.0081  0.0265
15789W        W31973  15.592  11.182  11.864 -0.1299  0.2064  0.0823
15790W        W31974   4.852   0.560   2.025 -0.2182  0.0116  0.2101
15791W        W31975   6.609   4.553   2.079  0.0179  0.0237 -0.2350
15792W        W31976  16.423  15.414  12.562  0.0189 -0.1726  0.0433
15793W        W31977   2.551   0.473  14.271  0.0476  0.2064  0.2010
15794W        W31978  14.798   3.473  11.017 -0.1529 -0.2471  0.3548
15795W        W31979   6.613  12.393   1.749  0.0192 -0.0042  0.0683
15796W        W31980  13.352   7.658   1.707  0.0543  0.2090  0.0250
15797W        W31981  16.480   8.500  10.847 -0.0741 -0.0080 -0.1622
15798W        W31982   0.525   0.430   1.540  0.1755  0.0896  0.2125
15799W        W31983  12.130  17.565  12.550  0.0606 -0.2918  0.0023
15800W        W31984  14.784   1.997  12.534  0.1274 -0.3522 -0.0910
15801W        W31985   2.275  10.303  13.811  0.2330  0.0311 -0.0453
15802W        W31986   1.218   0.678  10.913 -0.1287 -0.0372 -0.1872
15803W        W31987   3.506   1.273  10.871 -0.1782  0.1874  0.0005
15804W        W31988   0.926   7.237   4.587  0.0320  0.0769  0.1901
15805W        W31989   8.995   7.433  12.077 -0.1083 -0.1402  0.0816
15806W        W31990   5.007   0.769   5.523  0.1670  0.0771 -0.3534
15807W        W31991   4.700  12.816   2.843 -0.0431 -0.2988  0.0715
15808W        W31992   1.506  18.044  12.723  0.1383  0.0485  0.0436
15809W        W31993  18.658   3.185   0.601  0.0115 -0.1465  0.1620
15810W        W31994   0.843   9.991   1.546 -0.1345 -0.0538 -0.2581
15811W        W31995  17.664   0.471   1.448  0.4424  0.1886  0.3076
15812W        W31996   3.433  17.825   5.291 -0.2732  0.0119  0.2607
15813W        W31997  17.070  17.448   0.596 -0.0999 -0.1660 -0.2099
15814W        W31998  18.057   2.328  12.287  0.0557  0.1798 -0.2117
15815W        W31999   4.519  16.221   4.633 -0.4266 -0.1132  0.1905
15816W        W32000   0.186  13.749   0.121  0.0665 -0.3266  0.4460
15817W        W32001  17.488  14.717   2.495  0.2031  0.1535  0.2010
15818W        W32002  17.182   3.896   1.130  0.0844  0.0367  0.0255
15819W        W32003  18.148  15.501   9.707 -0.1661  0.0613  0.2782
15820W        W32004  10.617   6.697  10.059 -0.3390  0.1157 -0.1116
15821W        W32005   7.319  18.788   0.373  0.1294  0.2103  0.1113
15822W        W32006   5.012   7.108   4.570  0.4241 -0.0604  0.1673
15823W        W32007   7.163   3.808  12.171  0.2612 -0.1483  0.0011
15824W        W32008  12.387  16.023  10.287 -0.2520 -0.0700 -0.0421
15825W        W32009   1.262  18.545   1.047 -0.2076 -0.0632  0.0973
15826W        W32010   1.578   8.194   4.138 -0.2999 -0.1959 -0.0354
15827W        W32011  17.020  11.308   3.402 -0.0471  0.2575 -0.2724
15828W        W32012  10.920  17.286  12.812  0.1107 -0.0600 -0.0994
15829W        W32013   2.104   0.483  13.135  0.2829  0.1426  0.0506
15830W        W32014  11.789  16.424   3.673 -0.1116 -0.2931  0.2213
15831W        W32015   0.935   5.898   3.059 -0.1267 -0.1718 -0.0938
15832W        W32016   4.089  10.676   0.591  0.0473  0.0894 -0.1238
15833W        W32017   2.655   9.238   4.460  0.2181 -0.1538  0.2135
15834W        W32018   7.202   4.212  14.052  0.1887 -0.0138  0.1393
15835W        W32019  16.436  12.914   4.584 -0.0937  0.1780  0.0470
15836W        W32020   4.973   2.735  11.589  0.0796  0.5318 -0.1895
15837W        W32021  19.141  12.770   0.593  0.1382 -0.1893  0.0229
15838W        W32022  10.362  17.552   2.397  0.1372  0.4690 -0.3378
15839W        W32023  16.302   4.830  11.484  0.0578  0.0685 -0.5537
15840W        W32024   1.397   7.598  11.564 -0.2449  0.0107  0.0599
15841W        W32025   4.185  15.112  12.750  0.0811  0.1381 -0.1698
15842W        W32026  11.338   9.279   5.035 -0.0328  0.0907  0.0907
15843W        W32027  12.055   9.295  12.379 -0.0199 -0.1658 -0.1305
15844W        W32028  11.632  16.509   0.021 -0.0109  0.1578  0.1340
15845W        W32029  18.112   5.700  10.742  0.2248  0.0299 -0.2044
15846W        W32030  10.280   2.542  13.125  0.2708  0.1436  0.0807
15847W        W32031  16.927  17.078  13.477  0.2196  0.2219  0.1083
15848W        W32032   3.299  19.108  14.158  0.0248 -0.0987  0.2063
15849W        W32033   9.853   6.968   3.012 -0.2267  0.0178  0.3153
15850W        W32034   2.456   3.701   1.126 -0.0218  0.0585 -0.0312
15851W        W32035   8.837  12.400   3.731  0.1282  0.1009  0.0117
15852W        W32036  10.093  12.928   9.651  0.0250 -0.1866 -0.2042
15853W        W32037  13.188   0.853   3.668 -0.1675  0.1070 -0.0858
15854W        W32038  14.715  19.171   1.538 -0.0732 -0.0328 -0.3542
15855W        W32039   9.480  17.585  10.235 -0.0753  0.0750  0.0106
15856W        W32040   6.384   9.474  13.044  0.0034  0.0247 -0.3504
15857W        W32041  15.563  17.061  11.928 -0.2505 -0.0520  0.0556
15858W        W32042  17.904  17.369  12.429  0.1514 -0.1627  0.0109
15859W        W32043   4.672  12.382  12.426  0.0234 -0.4004 -0.2358
15860W        W32044   8.129  11.370   4.446 -0.0263  0.0649  0.2075
15861W        W32045   1.576   6.814   4.712  0.1050  0.3959  0.0577
15862W        W32046  11.172   9.740   9.599 -0.0120  0.3829  0.1003
15863W        W32047  12.222   0.696   4.170 -0.2863  0.1662 -0.0669
15864W        W32048  13.655   6.361  13.370  0.2002  0.1064 -0.0822
15865W        W32049   9.522   5.607  14.145 -0.0453  0.1194  0.0765
15866W        W32050   4.020  11.283  11.120 -0.1020 -0.0756 -0.0699
15867W        W32051   3.113  18.962   9.637  0.4242 -0.1713 -0.0404
15868W        W32052   6.263  15.401   1.394  0.0818 -0.3369  0.0180
15869W        W32053   1.692  15.009   1.852 -0.4593  0.2237 -0.0253
15870W        W32054  13.096   4.748   0.755 -0.2429  0.4654  0.1792
15871W        W32055  15.348  16.063   3.114  0.0577  0.0957 -0.2496
15872W        W32056   9.291   4.787  12.258 -0.1209 -0.3131  0.0762
15873W        W32057  10.368   8.350  13.884 -0.2937 -0.0393  0.0902
15874W        W32058   4.597   6.522   0.225 -0.2044  0.1676  0.0657
15875W        W32059   2.534   2.222  11.578 -0.2550  0.1667  0.0885
15876W        W32060  12.176   7.274   2.985  0.2489  0.0998 -0.2187
15877W        W32061   7.995   9.382   3.540  0.0885 -0.0599 -0.2929
15878W        W32062  15.185  10.731  13.466 -0.1421  0.0813 -0.1537
15879W        W32063  13.034   4.447  13.123  0.2154 -0.3660  0.0249
15880W        W32064   4.936   1.180   4.260 -0.2120  0.1189 -0.0066
15881W        W32065   0.142   6.063  11.298 -0.3174 -0.0392 -0.0464
15882W        W32066  11.210   7.866   2.923  0.0577  0.2774 -0.1651
15883W        W32067   9.902   7.183  10.309 -0.1605 -0.2149 -0.1480
15884W        W32068   6.788   5.797  11.524 -0.4107  0.0279 -0.0493
15885W        W32069  18.085   7.697  12.742 -0.1090  0.0249  0.1840
15886W        W32070   9.740  15.597  12.206 -0.0588 -0.2015 -0.1890
15887W        W32071   1.405   5.012  14.736 -0.2334  0.2122  0.0286
15888W        W32072  12.666   1.374   1.161 -0.1034  0.1411 -0.0389
15889W        W32073   1.695   1.383  13.591  0.0648  0.4320  0.0756
15890W        W32074  11.335   8.111  14.197  0.1971  0.2133  0.1141
15891W        W32075   7.384   3.592   1.132 -0.1406 -0.3290  0.0341
15892W        W32076  19.285   4.636  14.820 -0.1082 -0.0256 -0.2879
15893W        W32077  16.031  10.079  13.338 -0.1447  0.1254 -0.1099
15894W        W32078  17.024   9.253   0.433 -0.0575  0.0915 -0.0519
15895W        W32079   9.298  18.115   4.469 -0.2649 -0.0481  0.2622
15896W        W32080  10.354   0.892   1.117 -0.2739  0.0082 -0.0835
15897W        W32081   7.732  16.418  12.576 -0.1142  0.0529 -0.0020
15898W        W32082  18.264   8.462  10.125  0.2857  0.0077  0.2294
15899W        W32083  12.989  18.978  11.438  0.3579  0.0777  0.0057
15900W        W32084  15.679   5.978  11.720 -0.1651 -0.1193  0.1036
15901W        W32085  18.757   0.000   1.177  0.3333  0.0989  0.1109
15902W        W32086   5.616  19.186  11.697 -0.1209  0.2843 -0.1207
15903W        W32087  10.117   9.565  11.795 -0.2001 -0.2644  0.0416
15904W        W32088  11.776  18.409  13.274 -0.0026 -0.1011  0.1178
15905W        W32089   5.690  14.127   1.539  0.0433 -0.0067 -0.0994
15906W        W32090   3.262   4.918   2.599  0.0249  0.2951  0.0537
15907W        W32091   2.293   6.107  13.002  0.1463  0.4113 -0.2413
15908W        W32092  10.312  13.032   1.127 -0.2288 -0.2671 -0.2167
15909W        W32093  11.165  17.717  13.641  0.2559  0.0992  0.0098
15910W        W32094   2.616  12.190  10.937 -0.1552  0.1100  0.0772
15911W        W32095  14.944  17.131   1.075 -0.0423  0.0142 -0.2895
15912W        W32096  17.816   2.255   1.974  0.0803 -0.1265 -0.2435
15913W        W32097   3.296   4.076   3.951  0.0067 -0.0413 -0.1360
15914W        W32098   6.304  10.388  14.903 -0.1189  0.0406 -0.0882
15915W        W32099  13.920   9.298   4.574 -0.1066  0.2693 -0.1288
15916W        W32100   8.780   5.399   9.705  0.2136 -0.0148 -0.1411
15917W        W32101   1.916   4.201   2.729 -0.1685 -0.1614  0.2258
15918W        W32102   4.131   7.183   4.928  0.0497  0.0329  0.4778
15919W        W32103   8.352   1.653   2.240  0.1799  0.1764  0.1375
15920W        W32104  12.993   0.814   2.874  0.3129  0.2498 -0.1693
15921W        W32105  16.624   6.227  13.970  0.2724 -0.2054  0.2666
15922W        W32106  14.500  12.736   0.927 -0.1134  0.2749  0.1503
15923W        W32107   1.382  10.795   1.079  0.0785 -0.0866  0.0977
15924W        W32108  14.059  11.667  13.790  0.2656  0.2041  0.0734
15925W        W32109   5.679   5.431  13.151  0.0704  0.0285  0.2766
15926W        W32110   6.951  14.883   3.447  0.2170  0.0303 -0.1026
15927W        W32111   9.897   3.878   1.993  0.0219 -0.1613 -0.0687
15928W        W32112   0.975  14.531   4.175 -0.0689  0.1652  0.1007
15929W        W32113  11.801  18.362  11.115 -0.0037 -0.2422  0.1746
15930W        W32114   9.560  10.041  12.530  0.2019 -0.0539  0.1417
15931W        W32115  18.818   9.250  14.164 -0.1392  0.0635  0.0087
15932W        W32116  10.972   3.765  13.590  0.4091 -0.0577 -0.0470
15933W        W32117   0.566  12.593   4.628 -0.2331  0.4230  0.0192
15934W        W32118   3.650  15.133  11.490  0.0395 -0.0951  0.0679
15935W        W32119  15.324   1.083   3.234  0.0562 -0.4693  0.1900
15936W        W32120  13.604   3.783  13.687  0.0098  0.2894  0.0403
15937W        W32121  13.462   1.535   5.001 -0.4866  0.0378 -0.1985
15938W        W32122  17.187  19.056   2.823  0.4829  0.2104 -0.0539
15939W        W32123  15.026  13.970  11.820 -0.1841  0.1925 -0.1879
15940W        W32124  13.984  16.760   0.186  0.0419 -0.3207 -0.3629
15941W        W32125  14.003   1.450   3.732 -0.0160 -0.5274  0.0354
15942W        W32126   3.533   6.481   4.497  0.3077  0.1252 -0.0253
15943W        W32127   4.296   5.765   1.436 -0.0795  0.0981 -0.1525
15944W        W32128  15.814   4.567   1.034 -0.1036 -0.0556 -0.1990
15945W        W32129   3.988   6.548   3.325 -0.0312 -0.0071  0.0164
15946W        W32130   2.807  16.462   4.297 -0.4957 -0.2030  0.1314
15947W        W32131  19.021  13.824  14.854 -0.3390 -0.2008 -0.0311
15948W        W32132  17.880   0.834   2.725  0.0879  0.3691 -0.1587
15949W        W32133   2.292  14.340   1.590 -0.0720  0.1001 -0.1266
15950W        W32134  19.379  14.054   5.066 -0.1908  0.0853  0.0140
15951W        W32135  18.246   8.398  12.260  0.0966 -0.1451 -0.4760
15952W        W32136  16.824   1.824   1.331  0.0527  0.1069 -0.0886
15953W        W32137  19.300   7.894  10.868  0.0312  0.0237  0.4553
15954W        W32138  15.950   2.211   1.974  0.3218  0.2060 -0.0436
15955W        W32139  14.943  18.379   1.016 -0.1399 -0.0865 -0.0392
15956W        W32140  11.024  17.956  11.354 -0.0408 -0.3154  0.1669
15957W        W32141   7.874   1.201   0.859  0.0752  0.1854 -0.0666
15958W        W32142   8.377  16.186   4.120 -0.2844 -0.0300  0.1805
15959W        W32143   3.540  15.394  13.973 -0.1742  0.2890 -0.5802
15960W        W32144  12.504  12.863  11.911  0.1048  0.4260 -0.0917
15961W        W32145  19.172  13.703  10.675  0.3873 -0.1938  0.0144
15962W        W32146   1.581  13.546  10.584 -0.1242 -0.1930 -0.1760
15963W        W32147   9.112  15.676  12.761 -0.1257  0.2920 -0.0014
15964W        W32148   5.625   8.213  12.722 -0.0053  0.3340  0.3030
15965W        W32149  18.065   1.307  13.548 -0.1812  0.2377  0.1298
15966W        W32150   4.615  10.090  12.534  0.2143 -0.3040  0.1182
15967W        W32151  10.386   3.663   1.739  0.1401 -0.1841 -0.1117
15968W        W32152   1.961  10.660   2.877  0.1640  0.1211  0.1592
15969W        W32153  15.639  13.859   3.888  0.0412  0.1271  0.0361
15970W        W32154   8.105   5.685   1.145 -0.1578 -0.3208 -0.2816
15971W        W32155  11.245  18.366  11.161  0.0617  0.2503 -0.1233
15972W        W32156  11.599  11.235  13.297 -0.1549  0.2793 -0.0298
15973W        W32157   7.752   5.430   3.413 -0.2265  0.0490 -0.0813
15974W        W32158  18.855  11.101  11.476 -0.1314 -0.2606 -0.0290
15975W        W32159  14.074   9.525   0.690  0.2293  0.1667 -0.2062
15976W        W32160   3.253   5.534   4.056 -0.1144 -0.0352 -0.0870
15977W        W32161  18.250  12.178   6.001  0.1967 -0.0993 -0.0328
15978W        W32162   8.890   8.195  14.356 -0.1119  0.0126  0.0416
15979W        W32163  11.455  10.597   3.487 -0.1289  0.0529 -0.4801
15980W        W32164  14.255   9.859   2.666  0.1517 -0.0383  0.1321
15981W        W32165   5.916   0.616   1.348  0.2785  0.1288  0.1570
15982W        W32166  11.083   6.072  10.331  0.1737  0.1844  0.2000
15983W        W32167  14.097  14.728   3.715  0.0593  0.4383 -0.0025
15984W        W32168  10.018   0.913   0.319  0.0521  0.4152 -0.2274
15985W        W32169  10.068  18.879   1.779  0.0469 -0.1929 -0.0063
15986W        W32170   5.762   1.396  14.911 -0.1092  0.1853 -0.2274
15987W        W32171   0.088   3.108   0.536  0.0622  0.1154 -0.2170
15988W        W32172  17.282   4.004  11.149 -0.0218 -0.2007  0.2559
15989W        W32173  15.351   6.249   0.219  0.1106  0.4180 -0.0014
15990W        W32174  14.377   2.188  10.528  0.1528  0.4432 -0.0703
15991W        W32175   5.369  11.995   3.945  0.2548 -0.0351  0.1630
15992W        W32176  17.545  15.248   2.435 -0.1639 -0.0619  0.1529
15993W        W32177  17.146   3.377   1.287  0.1557 -0.1780  0.2207
15994W        W32178   5.331  16.496  10.955 -0.1202  0.1489  0.2098
15995W        W32179  16.969   1.395  10.512 -0.1327 -0.2228  0.0671
15996W        W32180   9.395   4.813  14.075  0.0989 -0.4473  0.2234
15997W        W32181  16.674   2.306  13.750  0.1276  0.1795  0.5955
15998W        W32182   6.478   6.207  14.553  0.2293  0.1979  0.0659
15999W        W32183   2.457   2.124   0.314 -0.0219  0.0809 -0.0913
16000W        W32184  12.164   3.808  12.446  0.0653 -0.0076  0.0639
16001W        W32185   0.289   2.165  12.046 -0.0349 -0.2169  0.0407
16002W        W32186  10.515  19.239   3.060 -0.2140 -0.1863  0.3122
16003W        W32187   4.707   1.742  10.814  0.1431 -0.2925  0.1472
16004W        W32188  10.719  14.715   2.621  0.0003  0.1608  0.1261
16005W        W32189  15.053   2.457  11.212  0.0847 -0.3752 -0.2689
16006W        W32190   1.164   9.329   2.970  0.3770  0.2172  0.1819
16007W        W32191   1.066   6.217   9.649  0.0125  0.0566 -0.1704
16008W        W32192   6.976   9.673  13.496 -0.2430  0.3580 -0.4446
16009W        W32193   3.882  15.750   4.266 -0.0973  0.0083  0.0759
16010W        W32194   0.542  15.410   3.508  0.0666  0.3759 -0.1803
16011W        W32195  12.044   4.305   4.256  0.2602 -0.2354  0.1197
16012W        W32196   4.759   1.725  12.491 -0.0199 -0.1581  0.0285
16013W        W32197   6.252   2.584  10.450 -0.0155 -0.0780  0.2704
16014W        W32198   1.197  12.452  12.933 -0.3224  0.1369 -0.0556
16015W        W32199   4.180  13.625  11.760 -0.0358 -0.1343  0.1442
16016W        W32200   1.678  13.220  13.449  0.0340 -0.1660 -0.2672
16017W        W32201   6.709   6.559   2.404  0.1799  0.0712 -0.1486
16018W        W32202   1.038  19.370   9.854  0.0127 -0.1752 -0.0657
16019W        W32203   4.845   3.526   0.057 -0.0755  0.0925  0.0252
16020W        W32204  13.379  16.321  12.558 -0.0217  0.0500 -0.1691
16021W        W32205   5.690  13.179   3.792  0.0592 -0.0276  0.1468
16022W        W32206  12.360   4.241   1.679  0.3020  0.2115  0.3114
16023W        W32207  12.374  18.302   1.787 -0.3677 -0.0790  0.4515
16024W        W32208  12.856   4.994   1.702  0.0998 -0.0335  0.4903
16025W        W32209  13.186   2.455   9.830  0.1751  0.2735 -0.1386
16026W        W32210  12.736   4.792   9.623  0.0438  0.1127  0.1630
16027W        W32211  12.579  12.208   4.447  0.2226 -0.1184 -0.0735
16028W        W32212  13.099   4.933   1.269  0.1944  0.1633  0.3714
16029W        W32213   3.759   4.705   4.036  0.0507  0.0984  0.1804
16030W        W32214   6.005   9.867  10.508 -0.4037 -0.2909 -0.1166
16031W        W32215   6.651  16.814   4.546  0.2435 -0.1719 -0.0682
16032W        W32216  12.933   2.191  11.139 -0.1103 -0.2822 -0.0533
16033W        W32217   0.085   6.772   1.770  0.0017 -0.3019 -0.1330
16034W        W32218   6.436   5.734  11.049 -0.1108 -0.2114 -0.2496
16035W        W32219   5.651  18.896   1.442 -0.1126 -0.0063 -0.0992
16036W        W32220  11.019   5.240   0.053 -0.0054  0.0105 -0.1824
16037W        W32221  11.255  10.540   5.396 -0.1361 -0.2399 -0.3952
16038W        W32222  14.987   7.749  10.740 -0.1044  0.0510  0.2159
16039W        W32223  14.318  16.397   2.806  0.1050  0.0330  0.0314
16040W        W32224   9.813   6.246  14.867  0.2778 -0.1141  0.0197
16041W        W32225  19.265  10.659  12.771 -0.3279 -0.2577 -0.0255
16042W        W32226   4.176   7.679   2.354 -0.1984 -0.0595 -0.3111
16043W        W32227  10.628  17.283  14.722 -0.4885  0.0353 -0.2008
16044W        W32228   7.261   6.355   1.250 -0.1326  0.0888 -0.0220
16045W        W32229   5.368  11.343   5.719 -0.3431 -0.1743  0.1340
16046W        W32230  15.908   1.381   4.408 -0.2233  0.0034  0.1217
16047W        W32231  16.119  16.029   4.017 -0.3214  0.0966  0.2621
16048W        W32232   5.504  10.176   0.920 -0.2919  0.2379 -0.2464
16049W        W32233  12.870  10.025  13.366  0.1378 -0.0377  0.0539
16050W        W32234   7.919  16.925  13.941 -0.0621  0.0530  0.5804
16051W        W32235  10.139   5.793   0.332  0.1639 -0.2420 -0.0087
16052W        W32236  16.342   2.198  14.889  0.1611  0.4818 -0.2867
16053W        W32237  14.411  14.990  14.835  0.0446 -0.2632  0.1693
16054W        W32238   3.131   0.389  11.459 -0.1496  0.0707 -0.0635
16055W        W32239   4.035  13.784   2.338  0.0252  0.1937  0.0394
16056W        W32240  15.116  14.379   3.222 -0.3429 -0.0513  0.1689
16057W        W32241  11.477  14.966   1.558  0.4000 -0.0440 -0.3351
16058W        W32242   9.688  18.356   4.202 -0.1651  0.0405  0.0308
16059W        W32243   6.307   6.144  14.100 -0.2106  0.0467  0.4286
16060W        W32244  18.550   6.757  12.962 -0.0809  0.0525  0.1740
16061W        W32245   8.513   1.929  11.231  0.1802 -0.0692 -0.7379
16062W        W32246   6.101   0.474   2.513  0.0456  0.1037 -0.2265
16063W        W32247  15.973   8.369   2.542 -0.0120  0.0513  0.1194
16064W        W32248  12.312  10.255  14.651 -0.0352  0.2325 -0.0032
16065W        W32249   7.749  15.014  11.819 -0.0710  0.0038  0.1291
16066W        W32250   0.504   5.602  11.338  0.1536  0.3251 -0.0564
16067W        W32251  18.227   6.459   4.822 -0.0518 -0.2040  0.0344
16068W        W32252  17.669   6.502  13.926 -0.2018  0.0770 -0.0192
16069W        W32253   4.892  16.855  10.811 -0.1847  0.3151 -0.3970
16070W        W32254   8.611   7.710   2.101 -0.1388 -0.0816 -0.0585
16071W        W32255  14.994  15.684   3.094 -0.0703 -0.2053 -0.4255
16072W        W32256  10.647  16.867   0.150  0.2400 -0.2710  0.2096
16073W        W32257  16.657  17.313   3.535 -0.2349 -0.0499  0.3054
16074W        W32258   6.421   5.035  12.118  0.1348  0.0310  0.2631
16075W        W32259  14.394   6.060  11.899  0.1496  0.1141  0.1197
16076W        W32260   7.504  15.419   0.866 -0.1682  0.0325 -0.1855
16077W        W32261   5.589   5.649   1.349 -0.0500  0.1714 -0.2549
16078W        W32262  10.554   2.809  12.127 -0.1545 -0.1088  0.0687
16079W        W32263   6.735   3.083  12.488  0.3245 -0.1293  0.3481
16080W        W32264   9.203   2.616   4.038 -0.2436  0.0454 -0.0310
16081W        W32265   7.956  11.261   2.111  0.2629  0.0973 -0.1891
16082W        W32266  11.605  15.644   2.274  0.2661  0.1465  0.0180
16083W        W32267   4.860  13.663   0.596  0.0278  0.1442 -0.1138
16084W        W32268   9.780   8.740   2.610 -0.0741 -0.1756  0.0811
16085W        W32269   4.063  17.672   2.107 -0.1418  0.0652 -0.0318
16086W        W32270  19.051   1.945  14.907  0.2015  0.1778  0.0252
16087W        W32271  12.741  18.168   1.378 -0.1411 -0.0447 -0.1452
16088W        W32272   2.181   3.910  13.313  0.0570  0.1845 -0.0654
16089W        W32273   2.495   5.391   5.297  0.1906  0.0899  0.3055
16090W        W32274  17.354   5.062  13.582 -0.2407  0.1008 -0.0846
16091W        W32275   0.563   8.733   1.265 -0.1089  0.2985 -0.2387
16092W        W32276  17.989   9.493  14.676 -0.0578  0.1399  0.1514
16093W        W32277  17.194   0.691   0.594  0.2709  0.1995  0.2109
16094W        W32278   7.479   2.208   1.355  0.1255 -0.2393  0.0992
16095W        W32279  16.474  14.629  12.424  0.0311  0.0657 -0.3552
16096W        W32280  17.226   1.569   1.020  0.1762 -0.3070  0.0414
16097W        W32281   9.674  14.498   4.397 -0.4380  0.0488  0.0744
16098W        W32282  18.973   7.965  12.394  0.0411  0.0995  0.1481
16099W        W32283  12.622   2.265  13.002 -0.0827  0.2983  0.1955
16100W        W32284   8.129   5.728  10.071  0.1503  0.0242 -0.0701
16101W        W32285   1.349  12.751   1.533  0.0562  0.2524  0.1239
16102W        W32286   7.131   1.025  11.262 -0.1756  0.1553 -0.1512
16103W        W32287   2.171  11.473  13.162  0.1066  0.3244 -0.0775
16104W        W32288  13.679   9.218   1.869  0.3165 -0.0579 -0.2486
16105W        W32289   2.111   9.239   2.859  0.0257 -0.2201  0.1782
16106W        W32290   1.182   2.529   4.103  0.0593 -0.1671  0.0280
16107W        W32291  11.596  15.432   1.603 -0.1623 -0.1217 -0.0601
16108W        W32292   9.675   9.908   4.756  0.2132  0.1763  0.2419
16109W        W32293  11.422   1.375  12.618 -0.1026 -0.4181 -0.0692
16110W        W32294   8.236  13.597   3.803 -0.0925 -0.0120 -0.0424
16111W        W32295   7.216   8.611   4.842 -0.0456 -0.2601  0.1903
16112W        W32296   7.703  17.367   1.044 -0.3228 -0.2924 -0.4306
16113W        W32297   7.225  16.671  13.389  0.3171 -0.1577 -0.1526
16114W        W32298  18.951  17.386   1.867  0.0199 -0.1636  0.0998
16115W        W32299   1.285  12.949   3.041 -0.0404 -0.2803 -0.4268
16116W        W32300   4.560  10.312   0.128  0.2124 -0.2804 -0.2299
16117W        W32301   7.426   1.162  11.643  0.1497  0.1089 -0.0009
16118W        W32302   2.801  15.639  13.031 -0.1528 -0.3584  0.1808
16119W        W32303  15.216  18.819  11.968 -0.1646  0.0155  0.0613
16120W        W32304   0.462   3.261   2.275 -0.0472 -0.2088 -0.1237
16121W        W32305   8.910  14.539   3.309 -0.0456  0.1277  0.0923
16122W        W32306   6.006  18.099  12.212 -0.0235  0.0231 -0.2458
16123W        W32307  12.124   0.733  11.567  0.0193  0.0413  0.3111
16124W        W32308  11.271   8.469   3.652 -0.0928 -0.3154  0.1413
16125W        W32309   1.317  16.791   0.495  0.1423  0.2333  0.0017
16126W        W32310  14.409   2.779  12.796  0.1230  0.0859 -0.1494
16127W        W32311   8.112  13.353   3.167  0.0439 -0.1778 -0.2830
16128W        W32312  12.216   9.089   0.976  0.1846 -0.2766 -0.1194
16129W        W32313  15.525   5.688   2.098  0.3351 -0.0950  0.0444
16130W        W32314  12.391  17.564   3.539  0.0095  0.0258 -0.1325
16131W        W32315  13.528   5.752   4.095  0.0454  0.2590 -0.1891
16132W        W32316   9.932   1.819  11.694  0.1932  0.2305  0.0832
16133W        W32317   0.920  19.056  13.799 -0.0668 -0.1219 -0.2434
16134W        W32318  10.484   3.161   2.177  0.0935 -0.2700  0.1355
16135W        W32319   8.367   3.583   5.454 -0.0007  0.3128 -0.1090
16136W        W32320   8.625   4.300  11.031 -0.4546 -0.1483 -0.1047
16137W        W32321   3.271   2.553  11.166  0.1543 -0.2324  0.0361
16138W        W32322  11.788   3.977   1.026  0.0060 -0.0705 -0.2156
16139W        W32323   7.853   9.206  13.573 -0.4395  0.2631 -0.2297
16140W        W32324  15.998   3.982  11.758  0.0819  0.4390 -0.1803
16141W        W32325  10.951  12.424  12.733 -0.2671  0.0575  0.0420
16142W        W32326  13.630  17.612   0.508  0.0532 -0.4116 -0.4835
16143W        W32327   2.836   3.996   1.801 -0.3887 -0.1722  0.0981
16144W        W32328   2.677  15.088  12.009 -0.3257 -0.1067 -0.0247
16145W        W32329   5.109   1.194   3.121  0.0404  0.0195 -0.0161
16146W        W32330   2.950  14.740  11.688 -0.0951 -0.0827  0.1171
16147W        W32331   5.473  10.477   5.804 -0.1178 -0.2849  0.0589
16148W        W32332   4.191   1.403  12.580  0.0386 -0.0912  0.0946
16149W        W32333   2.209  17.178   2.291  0.0547  0.0286 -0.1102
16150W        W32334  11.375   0.578   0.359 -0.1582  0.0920  0.3777
16151W        W32335   7.245  11.400   2.339 -0.0064  0.0190  0.1646
16152W        W32336   2.411  14.451   4.501 -0.0882 -0.0254  0.0013
16153W        W32337   3.275   1.614   1.606  0.0000  0.0409  0.2925
16154W        W32338   3.654   7.602   3.675 -0.0122 -0.1046 -0.0343
16155W        W32339  10.079  10.040  14.350 -0.0704  0.4400  0.1837
16156W        W32340  10.327   1.115  14.106  0.3036 -0.0752 -0.1082
16157W        W32341  14.149   5.087   3.485  0.2149 -0.0449  0.0576
16158W        W32342   3.715   9.183   4.127 -0.1587 -0.1329 -0.3932
16159W        W32343   4.994   9.894   2.347  0.2259  0.2490 -0.2687
16160W        W32344   3.362   6.576  13.346 -0.1548  0.1381 -0.1287
16161W        W32345  17.024  17.028   2.590 -0.1231 -0.1566  0.0971
16162W        W32346   2.224   2.327  13.081 -0.4252 -0.3079 -0.1011
16163W        W32347  10.979   3.770  14.960 -0.0172  0.1759  0.3916
16164W        W32348  17.274  18.654   3.263 -0.1876  0.0946  0.0189
16165W        W32349   3.428   2.799  12.746  0.0264  0.2381  0.1245
16166W        W32350  18.775   4.888   9.697 -0.2496 -0.0329  0.0782
16167W        W32351   8.267  11.701   2.297 -0.2017 -0.1798  0.0761
16168W        W32352   7.776  17.592   0.579  0.2456 -0.3437  0.0361
16169W        W32353  18.185  13.340  12.182 -0.3027 -0.2029  0.0130
16170W        W32354   6.605  18.786  10.478  0.1317 -0.1799  0.3049
16171W        W32355  13.397  12.394   4.787 -0.0459  0.0168  0.1423
16172W        W32356  11.808  10.618   4.315 -0.1376  0.2836  0.1321
16173W        W32357   8.522   2.125  14.010 -0.1357 -0.1121 -0.0880
16174W        W32358   9.135   9.859   3.845  0.4052 -0.1617  0.1054
16175W        W32359  15.681   8.008  12.120  0.1068  0.2987  0.6568
16176W        W32360  12.121  10.151   1.889 -0.1031  0.0664 -0.1585
16177W        W32361  14.795  13.328   1.575 -0.0540 -0.0053  0.0253
16178W        W32362   4.891   0.788   2.928  0.4014  0.0849  0.1722
16179W        W32363   8.727   9.482  10.842 -0.3349  0.3856 -0.2673
16180W        W32364   6.373   6.576   2.739  0.0280  0.0964 -0.2442
16181W        W32365  11.069  14.502   4.628  0.0948 -0.0044 -0.0706
16182W        W32366   5.428   4.212  10.186  0.1102  0.5257  0.0201
16183W        W32367   2.667  16.019   1.363 -0.0323 -0.1016 -0.0359
16184W        W32368  15.733   5.976   3.761  0.0429 -0.2484 -0.1157
16185W        W32369   1.577  14.466  14.834  0.0387 -0.0134  0.0468
16186W        W32370  13.684  15.984   0.214 -0.0154  0.0839 -0.1475
16187W        W32371  12.581   4.674  12.640 -0.2085  0.0000  0.0059
16188W        W32372  12.528  16.726  12.171  0.1358  0.0601 -0.1730
16189W        W32373  13.586  16.943  14.957 -0.1767 -0.2076 -0.0275
16190W        W32374  15.345   1.329   1.397  0.1434  0.0207  0.0513
16191W        W32375   8.733  14.886  11.794 -0.0379  0.0434 -0.0655
16192W        W32376   8.419   6.152   2.677  0.2053 -0.0606 -0.1999
16193W        W32377  15.876   2.070  10.611  0.1493  0.1937  0.1805
16194W        W32378   1.954  14.331   4.338 -0.1331 -0.0160 -0.0630
16195W        W32379  19.066  16.783  14.155 -0.3859 -0.0793  0.2791
16196W        W32380   9.751   4.427   1.377  0.1018 -0.0160 -0.4237
16197W        W32381   4.789  15.473  13.740  0.2035 -0.0134  0.3571
16198W        W32382  18.138   1.836  12.305 -0.0289  0.1240  0.2443
16199W        W32383   9.569  12.016  14.918 -0.0991 -0.1175  0.2452
16200W        W32384  18.054   4.074  12.260  0.1110 -0.1328  0.2540
16201W        W32385   4.810  12.875  11.892  0.0130  0.2381 -0.2159
16202W        W32386   7.113   9.339   9.749 -0.0578 -0.1243  0.0178
16203W        W32387   2.777  18.082  10.768  0.1867 -0.0618  0.1380
16204W        W32388   2.176   4.100  10.093 -0.4852  0.1098  0.1438
16205W        W32389  12.017   2.049   4.956 -0.1147 -0.2465 -0.0808
16206W        W32390   9.867   0.708   0.767  0.0306  0.1722  0.2688
16207W        W32391  18.715  10.355   1.209 -0.0660 -0.0927 -0.1331
16208W        W32392   9.889   8.642   1.570  0.2401  0.1657 -0.1314
16209W        W32393   2.220  18.271  14.174  0.1196  0.0929 -0.1911
16210W        W32394   5.597  10.660   5.024 -0.0879  0.0014 -0.3815
16211W        W32395  14.747  10.792  11.105 -0.0233  0.0382 -0.1358
16212W        W32396   3.451  11.647   4.752 -0.0643 -0.0721  0.0241
16213W        W32397   2.422   6.873   2.560 -0.0798 -0.2137  0.0057
16214W        W32398   8.845   3.427  12.358  0.0170  0.1423 -0.0585
16215W        W32399   8.348   2.906  10.754 -0.5209  0.2050  0.0799
16216W        W32400   1.843   6.555   0.375  0.0981 -0.1323 -0.1170
16217W        W32401   7.533  12.656  10.679  0.1103  0.1592 -0.1741
16218W        W32402   7.482  13.777   0.440 -0.0509  0.1164 -0.1049
16219W        W32403  12.117  15.403  12.107 -0.0654  0.2347 -0.3303
16220W        W32404   2.102   6.354  11.553  0.1566 -0.0652  0.0698
16221W        W32405  14.479  18.141   2.803 -0.0508 -0.1178  0.1205
16222W        W32406   7.370   5.183   1.621 -0.1327 -0.1042 -0.0782
16223W        W32407   0.772  10.089   2.523 -0.0945  0.1400  0.0186
16224W        W32408   2.502  13.502   3.005  0.0504 -0.1067 -0.1792
16225W        W32409   8.394  15.532   3.772 -0.0461  0.2745 -0.1200
16226W        W32410   3.261  19.149   1.381  0.0936  0.0102 -0.3108
16227W        W32411  17.616   7.063  12.051 -0.1305 -0.1626 -0.0220
16228W        W32412  12.618   3.333   3.684 -0.0284  0.2857 -0.0597
16229W        W32413   6.080   2.700  12.944 -0.2444 -0.2483 -0.3490
16230W        W32414  14.405   2.116   0.569 -0.5435  0.2009 -0.0612
16231W        W32415  13.921  15.608  14.560  0.0286  0.0289  0.1084
16232W        W32416  13.722  16.556  12.214 -0.3466 -0.1692  0.0456
16233W        W32417  14.144   4.462   3.079  0.1370 -0.2463 -0.1354
16234W        W32418  10.357  14.170   0.348 -0.1627 -0.0086 -0.5764
16235W        W32419   8.886   0.932  13.346  0.0809  0.0017  0.3660
16236W        W32420  16.317  18.310   1.153  0.0272  0.3375 -0.0838
16237W        W32421   1.859  11.872  10.467  0.2306 -0.1123 -0.1106
16238W        W32422  15.344   6.379   2.697  0.0271 -0.1169 -0.0329
16239W        W32423   3.931  18.127  14.690 -0.0534 -0.0315  0.0994
16240W        W32424   8.178   6.191  11.985 -0.1073  0.1514 -0.0074
16241W        W32425  15.088  11.979   2.036  0.0508  0.1618 -0.1371
16242W        W32426  17.373  16.012  12.390 -0.4123  0.3417  0.0996
16243W        W32427  14.912  17.355   0.146  0.0193  0.1006  0.0490
16244W        W32428  17.747   8.552  12.522 -0.1097  0.0094 -0.0792
16245W        W32429   2.031   1.757   0.707  0.0140  0.2247  0.1730
16246W        W32430  12.324  16.249   2.355  0.0005  0.1292  0.1646
16247W        W32431  16.948  17.380   4.056 -0.2488 -0.2260  0.3017
16248W        W32432  10.922   8.604   0.003 -0.2305  0.0285  0.0754
16249W        W32433   4.034   2.235  11.455  0.0760  0.1477  0.1424
16250W        W32434  13.008  16.332   2.047 -0.1165 -0.4263 -0.0752
16251W        W32435   5.974  18.786  11.094  0.2458 -0.1816  0.1207
16252W        W32436   9.508  16.018  12.843 -0.1497 -0.1696 -0.3274
16253W        W32437   1.881   5.152  12.078  0.2654  0.2088 -0.3979
16254W        W32438   9.651   2.733   3.146 -0.3465 -0.2221 -0.0160
16255W        W32439  19.348   3.763  10.423  0.0893 -0.0311  0.1282
16256W        W32440  17.990  17.504  14.546 -0.3289 -0.1712  0.3262
16257W        W32441   5.548   3.889   1.498 -0.3119 -0.0267 -0.0397
16258W        W32442   5.607   9.780  10.941  0.0528 -0.1052 -0.1907
16259W        W32443   7.571   8.346   3.963  0.1787  0.0354  0.0019
16260W        W32444   7.248   7.492   4.296 -0.1696 -0.0059 -0.2886
16261W        W32445  11.313  17.545   3.777  0.1447  0.0319  0.0482
16262W        W32446  14.937  17.978   2.077 -0.2142 -0.1835  0.2627
16263W        W32447  11.862   4.542   1.795 -0.2809  0.2519 -0.2282
16264W        W32448   8.352  16.965   5.379  0.1178 -0.0413  0.0811
16265W        W32449   9.844  17.932   0.767 -0.0461  0.1789  0.3045
16266W        W32450  12.900  15.259   3.991 -0.0966  0.4153 -0.0160
16267W        W32451  18.050   9.354  12.543 -0.2368 -0.1190 -0.0699
16268W        W32452  14.402  18.444   5.778  0.2624 -0.3305  0.0672
16269W        W32453  15.593  11.224   3.049  0.0717  0.1890  0.0797
16270W        W32454   8.010   4.785   1.799  0.3912 -0.1821 -0.2037
16271W        W32455   5.881  10.124   0.107 -0.0197 -0.0654  0.1189
16272W        W32456   5.860  16.651   1.554  0.2611 -0.0983 -0.0365
16273W        W32457   5.773  13.130   0.974  0.2252 -0.1127 -0.0166
16274W        W32458   0.939  18.987   1.410 -0.1736  0.1177  0.1234
16275W        W32459   7.154   9.839  14.068  0.4006  0.3208 -0.2412
16276W        W32460   9.350   3.098   2.927 -0.2076  0.2069 -0.0894
16277W        W32461  18.158   7.300   4.494 -0.3205  0.3100  0.1264
16278W        W32462   0.502   3.384  13.822  0.0228  0.1792  0.0311
16279W        W32463   4.110   9.903   1.776  0.4944 -0.0935 -0.0416
16280W        W32464  14.436  19.018   2.302 -0.0491  0.0353  0.0779
16281W        W32465  15.179   7.186   3.703 -0.1456  0.2135 -0.1181
16282W        W32466   2.985  11.123   0.426 -0.0617  0.1438  0.2144
16283W        W32467  18.699   5.798   4.136  0.1451  0.1597 -0.0955
16284W        W32468  11.753  12.066   3.966  0.3327  0.0818 -0.0415
16285W        W32469  11.962  12.080  13.968 -0.0507 -0.2626  0.0480
16286W        W32470  13.203   6.654   1.569 -0.0141  0.0784  0.3789
16287W        W32471   9.469  14.360   2.088 -0.0356  0.1610  0.3396
16288W        W32472  15.368   2.958   1.899  0.0108 -0.1555 -0.0001
16289W        W32473   4.747  12.025   3.351  0.4952 -0.0352 -0.1863
16290W        W32474  12.489  12.075   1.166 -0.1968 -0.0743  0.2342
16291W        W32475  12.751   9.998  14.885 -0.1052 -0.1304  0.2085
16292W        W32476  11.600  14.363   2.224  0.0134  0.1436  0.0361
16293W        W32477  17.964   7.857   0.770  0.1211  0.2254  0.2248
16294W        W32478  17.719   0.331   3.339 -0.0867  0.3527  0.1745
16295W        W32479  18.777   9.732   0.777 -0.3699  0.1205 -0.1212
16296W        W32480   3.842  15.755  13.874  0.1522 -0.0126  0.0362
16297W        W32481   6.034   7.400   1.621  0.3924  0.0000  0.0477
16298W        W32482   0.332   3.415  14.691  0.2551  0.0215  0.3405
16299W        W32483   4.074  14.359   1.497 -0.2200  0.2013 -0.1234
16300W        W32484  12.249  13.872   4.776  0.1660  0.5028  0.1124
16301W        W32485  18.480  17.805   3.327  0.1402 -0.0351  0.1782
16302W        W32486  14.415  15.149   0.345  0.0631 -0.1189 -0.0444
16303W        W32487  10.228  18.467  10.381 -0.2450  0.0234 -0.2003
16304W        W32488  17.269   8.875   0.718  0.3900  0.2732 -0.3663
16305W        W32489   6.550   9.616   1.776 -0.2686 -0.0025 -0.0397
16306W        W32490  11.765  12.296  12.291 -0.1330  0.2217 -0.0553
16307W        W32491   5.629  14.694   3.861  0.0165 -0.2514 -0.1014
16308W        W32492  15.302   6.315  14.615 -0.0833 -0.0521 -0.0551
16309W        W32493   0.962  16.225   2.559 -0.3179 -0.0585 -0.0075
16310W        W32494   9.303  16.768  10.791  0.0073 -0.2199  0.0288
16311W        W32495  18.139   4.620   4.273 -0.4770  0.3849  0.3485
16312W        W32496  18.092  13.876  12.211  0.1294  0.0313 -0.1076
16313W        W32497   5.360  10.833   5.444 -0.0937  0.1749  0.0314
16314W        W32498  10.238   8.903  12.730  0.0630  0.0153  0.2312
16315W        W32499   6.765   5.325   0.358  0.0003 -0.0996  0.0994
16316W        W32500  17.867  19.097  12.644  0.0460  0.2634  0.1523
16317W        W32501  12.068  13.823   1.250  0.0428 -0.0284 -0.3099
16318W        W32502   6.859   1.057  14.939 -0.1061  0.5671 -0.2733
16319W        W32503  10.854  17.635   4.014  0.2068 -0.2266  0.1044
16320W        W32504  16.529  14.330   2.794 -0.1922 -0.0521 -0.1437
16321W        W32505   8.618   4.498   2.749  0.1390  0.3401 -0.2278
16322W        W32506  14.682   2.197  14.534  0.0716  0.0522 -0.0539
16323W        W32507   9.359   8.345  12.961 -0.1380  0.0214  0.2763
16324W        W32508  16.590   3.648   1.479 -0.0602  0.0399  0.0220
16325W        W32509   5.467   0.132  13.914 -0.0258 -0.1856 -0.0375
16326W        W32510   0.158  15.902   3.374 -0.1006 -0.3949 -0.2566
16327W        W32511  18.212  11.790  11.935  0.1786 -0.2475  0.0759
16328W        W32512   6.908  18.771  12.053  0.0912  0.3252  0.0383
16329W        W32513   0.687  14.726   0.320 -0.2900 -0.1455  0.3977
16330W        W32514  16.145  13.652  13.717  0.0367  0.3050 -0.2547
16331W        W32515  11.333   6.782  13.102 -0.0094  0.0567  0.1658
16332W        W32516   8.587   7.608  12.292 -0.0703 -0.1308  0.1516
16333W        W32517   0.813   4.849   3.242  0.1446  0.0464 -0.2677
16334W        W32518  10.852  14.860   3.048  0.0253  0.0731 -0.3789
16335W        W32519  16.573   4.664  12.131 -0.0311 -0.1899  0.6032
16336W        W32520   0.571  10.416   1.727  0.2659  0.0867 -0.0444
16337W        W32521  17.313   3.453   3.169 -0.1016 -0.0215  0.2216
16338W        W32522   9.348  10.874   1.971  0.1408 -0.1368 -0.3833
16339W        W32523   1.784   0.108   0.063 -0.3210 -0.4053  0.2857
16340W        W32524   9.091  15.639   5.131  0.0467 -0.0845 -0.0652
16341W        W32525  13.483   2.233   1.160 -0.2749 -0.0642  0.1187
16342W        W32526  11.248   2.124  11.179  0.0755 -0.1291  0.0010
16343W        W32527  16.715   1.931  10.657 -0.0197 -0.0991 -0.1045
16344W        W32528   0.052  16.418   1.112  0.2536  0.3563  0.0234
16345W        W32529  10.897  17.770  12.992 -0.4152 -0.2488 -0.2130
16346W        W32530   5.514  13.691   9.347  0.2288  0.4369  0.0058
16347W        W32531  10.553   5.419  14.071 -0.1900 -0.2637  0.3328
16348W        W32532   4.119   5.500   4.152 -0.0605 -0.3599  0.2259
16349W        W32533   3.753  13.321  13.631 -0.2427  0.2459  0.1000
16350W        W32534  15.100   7.709   0.949  0.0111 -0.1641  0.0978
16351W        W32535  11.928   7.442   1.225  0.2961 -0.0427  0.1187
16352W        W32536  14.996  17.902   0.700 -0.0438  0.3778  0.2249
16353W        W32537   5.052   3.850   0.428 -0.3827  0.3205  0.3202
16354W        W32538   7.660   1.040   5.115 -0.0083 -0.2125 -0.0042
16355W        W32539   9.519  17.562  14.020 -0.0032  0.1995 -0.0168
16356W        W32540  11.362   5.574   2.759 -0.0184 -0.0582  0.3176
16357W        W32541   7.687  11.515   1.287 -0.1997 -0.0042  0.2549
16358W        W32542  14.749   5.482   2.549  0.2641  0.0830 -0.0792
16359W        W32543   0.347  11.782   1.630 -0.3637  0.1386  0.1345
16360W        W32544   6.848  10.747  12.186  0.0880  0.1647  0.0777
16361W        W32545  12.696  10.852   0.150  0.4450 -0.3435 -0.3517
16362W        W32546  17.499   3.233   1.940  0.1026 -0.1838 -0.1650
16363W        W32547   9.111  17.984  12.166  0.1424  0.0037 -0.3181
16364W        W32548   8.296  13.753   2.771  0.0045 -0.1021 -0.0977
16365W        W32549   7.699  15.629  11.468 -0.0705 -0.0722  0.2377
16366W        W32550   0.803  12.930   3.428 -0.5238  0.2031 -0.3579
16367W        W32551  11.359   7.252   0.423  0.0173  0.0816  0.2297
16368W        W32552   5.186   4.220  14.652  0.1436 -0.1360  0.1635
16369W        W32553   1.251  10.723   3.410 -0.2951  0.2732  0.0850
16370W        W32554   9.936  12.702  12.077 -0.2749  0.1883  0.1272
16371W        W32555   4.195   7.711   0.314  0.1052  0.1336  0.2550
16372W        W32556  12.242   1.382   5.758 -0.1403 -0.1123  0.2486
16373W        W32557   4.499  11.829   4.250  0.2665  0.1379 -0.1579
16374W        W32558   8.864  16.395   4.032 -0.0382  0.1950  0.0329
16375W        W32559   1.772  12.889  10.160 -0.0880 -0.1359  0.2142
16376W        W32560  11.474   3.223  10.514  0.0137  0.0323  0.2150
16377W        W32561  13.150   6.175   4.164 -0.2950 -0.0577  0.1333
16378W        W32562  11.839   4.008  12.798 -0.1521  0.3675  0.0717
16379W        W32563  18.493  10.804  13.978 -0.0888 -0.4535 -0.0748
16380W        W32564   6.888   4.722  13.127 -0.2191  0.0064  0.1483
16381W        W32565   2.692  13.484   1.247  0.6462  0.0629 -0.0366
16382W        W32566  13.689   9.609   1.321  0.0956 -0.1339 -0.2493
16383W        W32567  18.978  15.797  13.083 -0.0956 -0.0085 -0.1524
16384W        W32568   5.662   6.395  10.501  0.1079  0.0901  0.1816
16385W        W32569   2.284   9.870  10.548 -0.0999  0.2092 -0.0345
16386W        W32570   6.811   1.770   0.708 -0.1774  0.0047  0.0669
16387W        W32571   8.048  18.357   2.712 -0.0829 -0.2265  0.0339
16388W        W32572   7.308   3.633  13.004 -0.0544  0.0875 -0.2415
16389W        W32573   5.172   2.879   3.293  0.3096  0.1059 -0.3915
16390W        W32574   3.009   5.243  10.435  0.0935  0.2072  0.1910
16391W        W32575   1.790  17.880   5.061  0.0304  0.2824 -0.3304
16392W        W32576  12.387  19.323   0.228 -0.0249 -0.3362  0.0548
16393W        W32577  15.509   4.991   4.626  0.0029  0.0616 -0.2332
16394W        W32578  13.641  10.505  10.502  0.0644  0.2582  0.1299
16395W        W32579  15.926  14.315   2.773 -0.0662  0.2829  0.0396
16396W        W32580  18.678  15.015   3.912 -0.2365  0.2406 -0.1566
16397W        W32581   0.521   6.184   1.973  0.2124 -0.1211  0.0076
16398W        W32582   2.923   7.484  10.889 -0.2622 -0.2777 -0.3114
16399W        W32583   3.422   5.124   4.948 -0.0265  0.1510  0.0070
16400W        W32584   2.148   1.662  13.640 -0.0151 -0.2966 -0.2205
16401W        W32585  14.960   9.683  14.776 -0.0736  0.0240 -0.2332
16402W        W32586   9.898  15.770   0.548  0.1447  0.1535  0.3330
16403W        W32587   9.921   7.663  11.721  0.1387  0.2334 -0.3221
16404W        W32588  17.603   9.771  13.257 -0.1321 -0.0759  0.0249
16405W        W32589   0.596   6.842   4.237 -0.3908 -0.0755  0.1743
16406W        W32590   3.376   9.180  14.861 -0.0062  0.3423 -0.1956
16407W        W32591   9.322   0.785   4.160  0.0232 -0.1177  0.2355
16408W        W32592  14.151  11.280   0.124  0.3645  0.0167 -0.0103
16409W        W32593  16.457  10.870  13.215  0.0772  0.3142 -0.1397
16410W        W32594   5.104   8.948  10.637 -0.7305  0.1027  0.4323
16411W        W32595  16.906  14.336   4.429  0.0484  0.0174 -0.1290
16412W        W32596   3.344  15.032   5.374 -0.4417  0.0993  0.0893
16413W        W32597  16.292  17.984  11.338  0.2703  0.2411  0.1176
16414W        W32598   7.114   9.435   5.076  0.0942  0.1343 -0.0049
16415W        W32599  13.630   7.544  14.285  0.3091  0.2370 -0.1428
16416W        W32600  16.391   1.004   3.161 -0.0437 -0.1757 -0.1768
16417W        W32601  15.592   0.151   0.767  0.1942 -0.2783 -0.2732
16418W        W32602  12.044  15.598   3.394 -0.1278  0.0742  0.0297
16419W        W32603  12.629   3.187   4.228  0.1847  0.2210  0.1573
16420W        W32604  17.156   1.354   4.201  0.2794  0.1308  0.2551
16421W        W32605   6.653   5.889   0.537 -0.2699  0.1619 -0.1000
16422W        W32606  17.084  11.168   0.628  0.0764 -0.3342 -0.2555
16423W        W32607  11.471   5.929  11.959  0.0915  0.0061  0.0504
16424W        W32608  17.839  15.294   5.177 -0.0334  0.2080 -0.0231
16425W        W32609   2.054  18.313   3.136 -0.1601  0.3260  0.1618
16426W        W32610   0.216  10.400   4.442 -0.1678 -0.1076  0.2592
16427W        W32611   0.226  13.605   0.983  0.1043 -0.1045 -0.0023
16428W        W32612   8.433  18.532  11.705  0.0009 -0.2910  0.0465
16429W        W32613   8.086  13.484  11.001 -0.2334 -0.2141  0.2256
16430W        W32614  19.328   4.562   2.097  0.1469  0.0081 -0.0347
16431W        W32615   2.212  13.879  13.641  0.1535  0.1755 -0.1990
16432W        W32616  12.119   2.371   2.793 -0.0556 -0.0321  0.1450
16433W        W32617  17.954  18.671  11.002 -0.0393 -0.3869  0.0643
16434W        W32618   4.188   4.196  10.678  0.2627  0.1316 -0.2291
16435W        W32619   1.355   6.260   0.378 -0.0891  0.4344  0.0076
16436W        W32620   4.579   2.378  13.709  0.0173 -0.4652 -0.1294
16437W        W32621   4.776   6.842  14.473 -0.1088 -0.2243 -0.1404
16438W        W32622   6.776   2.569  13.693  0.1762  0.0507 -0.1366
16439W        W32623  10.237   3.747  12.162  0.2046 -0.0405 -0.4075
16440W        W32624  13.789  14.876   4.236  0.0302 -0.1263 -0.2718
16441W        W32625   0.002  15.064   2.414  0.3510 -0.1281 -0.2740
16442W        W32626   5.283  11.600  11.422  0.0534 -0.2481  0.0580
16443W        W32627   1.897   5.296   0.966 -0.1990 -0.0128  0.2423
16444W        W32628  15.074  10.376   9.864 -0.2234  0.1892 -0.1728
16445W        W32629   2.260   6.022   4.345 -0.4184  0.2213 -0.2520
16446W        W32630   6.800  10.142  11.364 -0.1150 -0.4212 -0.0000
16447W        W32631   8.807   3.889   3.606  0.0601  0.3351 -0.2539
16448W        W32632  11.449   1.771   1.285 -0.3969 -0.0267  0.0142
16449W        W32633  17.451   3.899   4.821 -0.1286  0.0756  0.3636
16450W        W32634  19.353   7.167   0.992  0.0640  0.1219  0.1309
16451W        W32635   6.661  15.090   1.456 -0.1326  0.1191  0.0577
16452W        W32636  10.622   3.368  14.278 -0.2211  0.0559  0.1703
16453W        W32637   6.884   9.968   1.678  0.0375 -0.1375 -0.0766
16454W        W32638  13.201  15.884   0.070 -0.5042  0.4502 -0.0749
16455W        W32639   2.321   8.428  12.976 -0.1752  0.2230  0.1671
16456W        W32640  19.316   2.149   2.762  0.2169  0.0551  0.2782
16457W        W32641  10.183   2.438  11.164 -0.1221 -0.0926 -0.4131
16458W        W32642  17.420  13.913  13.965 -0.1850 -0.0988 -0.2346
16459W        W32643  13.416  14.513   4.365  0.0042  0.1889  0.0043
16460W        W32644  16.634  19.052   9.888 -0.3486 -0.3300 -0.0446
16461W        W32645   6.912  18.634  11.559 -0.3184 -0.1049 -0.1905
16462W        W32646   6.705  18.152   2.887 -0.0765  0.0241 -0.0254
16463W        W32647  18.554   0.582  11.432  0.0816  0.0104 -0.2914
16464W        W32648   9.832  16.257   1.953  0.1316 -0.0606  0.0903
16465W        W32649   5.019   3.590   3.258 -0.2010  0.4460  0.4173
16466W        W32650  15.586   9.760  12.442 -0.1195  0.0091 -0.2584
16467W        W32651   3.237  10.912  10.595 -0.1059 -0.1432  0.1658
16468W        W32652   4.148  11.197  13.852  0.1042  0.1466  0.1106
16469W        W32653   9.503  18.143   0.364 -0.1438 -0.2344 -0.1679
16470W        W32654   0.799  14.065   3.407 -0.3485  0.2226 -0.1645
16471W        W32655   9.387  15.794  13.803 -0.2457  0.1246  0.4176
16472W        W32656   9.757   7.210   0.080 -0.1941 -0.2861  0.1444
16473W        W32657  13.854  15.187  13.657  0.0487 -0.0642 -0.0181
16474W        W32658  15.158   3.020   2.349 -0.0334 -0.1355 -0.2557
16475W        W32659   8.058   6.799   9.276 -0.0800 -0.1283 -0.1374
16476W        W32660  13.048  18.503  12.879  0.1363 -0.3380  0.5358
16477W        W32661  18.519   7.911   2.221 -0.1092  0.1873  0.2027
16478W        W32662   4.624   4.856  13.028 -0.1337  0.0508 -0.0337
16479W        W32663  11.507   3.023  12.457 -0.1628  0.0887  0.1959
16480W        W32664   2.330   9.699   2.743 -0.2016 -0.0821 -0.0872
16481W        W32665  16.501  10.057  12.382 -0.0368  0.0855 -0.2014
16482W        W32666   0.350  11.944   5.319  0.1316 -0.0608 -0.0751
16483W        W32667   4.039  13.968   9.096  0.2363 -0.1666  0.1436
16484W        W32668   2.092   7.287   1.377  0.0260  0.0404 -0.2665
16485W        W32669   4.385   2.875  12.479 -0.2469  0.0666  0.0450
16486W        W32670   5.677  13.590   2.249 -0.1895 -0.1739  0.1137
16487W        W32671   1.359  11.871  10.575 -0.3777 -0.3313  0.0516
16488W        W32672  12.254  13.951   0.123 -0.0961  0.2536 -0.0815
16489W        W32673  12.799  12.695  14.189  0.1913  0.2000  0.2299
16490W        W32674   5.962   8.092  11.830  0.0550  0.2698  0.0273
16491W        W32675  12.805   2.475  11.529 -0.0920 -0.3121 -0.0555
16492W        W32676  13.229  18.010  11.608  0.0150 -0.0528  0.0156
16493W        W32677   0.386   6.356  13.497  0.0605 -0.1324 -0.1292
16494W        W32678   5.310  14.395  11.827  0.1168 -0.2548  0.0960
16495W        W32679   4.091   2.523  13.477 -0.1023 -0.0136 -0.0040
16496W        W32680   8.464  17.066   1.150  0.2100  0.3447 -0.1525
16497W        W32681   4.962   6.980  11.174  0.1916 -0.1638 -0.2470
16498W        W32682   5.464   2.524   0.077  0.0216  0.3116  0.0023
16499W        W32683   1.047  16.708  11.754 -0.1454 -0.3548 -0.3266
16500W        W32684  10.142   2.979  12.383 -0.3884 -0.0535  0.2591
16501W        W32685   3.293  11.764   2.758  0.2291 -0.2397  0.2218
16502W        W32686  16.466  18.564  13.232 -0.0363  0.2464 -0.3025
16503W        W32687  10.539  11.416   0.089  0.4265  0.1321 -0.1404
16504W        W32688  16.990   6.065   5.519  0.0565  0.1240  0.0459
16505W        W32689   7.971  11.430   3.429  0.0310 -0.0042  0.1065
16506W        W32690   0.427   6.173  10.605  0.2189 -0.0811 -0.4273
16507W        W32691  16.724   7.014   5.474  0.2630 -0.1317  0.0991
16508W        W32692   1.747  17.500  13.532  0.2420  0.1783 -0.0280
16509W        W32693   4.609   3.643  11.928 -0.2340  0.0325  0.0462
16510W        W32694   8.425   2.514  14.508  0.0194 -0.1436 -0.0524
16511W        W32695  16.948   2.315   1.602 -0.2289 -0.0453  0.0527
16512W        W32696  13.752  11.493  14.244 -0.1979  0.3322  0.1375
16513W        W32697  16.195  16.051  11.850  0.1158  0.0877  0.1073
16514W        W32698  11.637  16.211  13.409 -0.0600 -0.0739 -0.1584
16515W        W32699   5.352   9.817  12.510 -0.3233  0.0974  0.1736
16516W        W32700  13.076   2.121  13.995 -0.2895  0.0247  0.3755
16517W        W32701   3.377   9.691  14.897 -0.1031 -0.1049  0.2171
16518W        W32702   2.937   4.226  14.182  0.1604 -0.1566 -0.1559
16519W        W32703   9.497   2.509   4.446  0.1209 -0.2425  0.1321
16520W        W32704   0.885  17.281   1.151  0.2758  0.0837  0.1290
16521W        W32705   2.323  11.421  11.190 -0.0206  0.3191 -0.1427
16522W        W32706  11.076  11.883  11.236  0.0591 -0.0666 -0.0857
16523W        W32707   6.279   1.872  12.213 -0.0094  0.0288  0.1812
16524W        W32708   6.929   2.147  10.288  0.2512 -0.0832  0.0026
16525W        W32709  13.559   0.583  13.773 -0.1296 -0.1877 -0.0664
16526W        W32710   3.360   2.246   2.708  0.6157 -0.2454  0.1405
16527W        W32711   7.279   9.185   0.889 -0.0865  0.0654  0.0678
16528W        W32712  12.409   8.757  12.943 -0.0360 -0.0530  0.1666
16529W        W32713   3.836   8.925   0.138 -0.2495 -0.1671  0.1913
16530W        W32714  18.070   2.771   2.646  0.1860  0.1186  0.0467
16531W        W32715  19.190  11.955   4.410  0.1100  0.3586 -0.1114
16532W        W32716  11.075   8.206   1.317  0.2147 -0.0750  0.2729
16533W        W32717  17.794  12.483   0.340  0.2189 -0.3683  0.0043
16534W        W32718  15.694  14.187  12.944  0.0211  0.1278 -0.4417
16535W        W32719   3.454  11.724   0.547 -0.4467 -0.2081 -0.1232
16536W        W32720   9.814   6.045   2.037 -0.1076  0.1007  0.1867
16537W        W32721  15.410   5.286  12.938 -0.0434 -0.3218 -0.0553
16538W        W32722  16.870   6.564   3.775  0.0925 -0.0650  0.0458
16539W        W32723   9.702  11.177  14.607  0.0700 -0.1476 -0.0231
16540W        W32724   3.696  17.432  11.747  0.0556 -0.1655  0.0659
16541W        W32725   0.718  18.301   2.401 -0.0619  0.0530  0.1034
16542W        W32726  14.636  14.226  14.472 -0.1812  0.5153 -0.5557
16543W        W32727   7.168   1.205  10.743  0.1581 -0.1005 -0.0883
16544W        W32728   4.516   4.497   1.182  0.3656 -0.4911  0.2460
16545W        W32729  15.316  14.379  13.213 -0.0452  0.1504  0.4608
16546W        W32730  18.131  17.997   2.939  0.2432 -0.3045  0.1452
16547W        W32731   5.670  13.039  10.899 -0.0352  0.0687  0.0072
16548W        W32732  12.066   5.183   2.528 -0.0853 -0.2172  0.5879
16549W        W32733  18.818   3.119   5.277  0.0912  0.2398 -0.1912
16550W        W32734   4.087  18.901   0.511 -0.0273  0.2564 -0.0766
16551W        W32735   9.686   0.332   4.241  0.0360 -0.1460  0.2830
16552W        W32736  19.229  13.231   0.775  0.3654  0.2407 -0.1018
16553W        W32737  14.939   5.044  13.698  0.0852 -0.0964  0.1427
16554W        W32738  14.741  14.799   0.522 -0.0920 -0.1105 -0.1482
16555W        W32739  15.735   6.167  10.747 -0.5077 -0.0660  0.0129
16556W        W32740   0.075   1.049   5.498  0.0064 -0.1296 -0.0533
16557W        W32741  13.072   3.048  12.136 -0.2627  0.0229  0.0835
16558W        W32742   4.727   6.744  12.857 -0.6376 -0.0764  0.0667
16559W        W32743  17.560  12.957   3.312 -0.0884  0.2422  0.3279
16560W        W32744  17.477  18.634  14.809  0.1347  0.1967 -0.1804
16561W        W32745  11.824  11.106   4.176 -0.0146  0.1993  0.1558
16562W        W32746  17.827   3.501   2.379  0.0343 -0.1165 -0.2312
16563W        W32747  14.030  16.743   0.720 -0.0945  0.0848  0.0123
16564W        W32748   0.614  18.224  13.605 -0.2213 -0.0984  0.1306
16565W        W32749   2.297   6.041  14.091 -0.2877  0.0535  0.3376
16566W        W32750   7.748   9.771   3.751 -0.3731  0.2379 -0.1167
16567W        W32751   0.181   2.172  10.714 -0.2490 -0.0124 -0.1552
16568W        W32752   8.996  14.172  12.410 -0.1332 -0.1123  0.0957
16569W        W32753   7.414   4.483   1.036 -0.1704 -0.1224  0.0846
16570W        W32754  14.004   1.234   2.573  0.1137  0.4257 -0.0463
16571W        W32755  19.190  14.483   4.319  0.1153 -0.2024 -0.0330
16572W        W32756   5.010  10.356   1.008  0.3874  0.2522 -0.1481
16573W        W32757  18.825   8.294  12.052  0.1070  0.0475  0.0039
16574W        W32758  16.926   8.733  14.386 -0.2847 -0.2755  0.6446
16575W        W32759   1.480  15.337   0.167 -0.1879  0.0996 -0.1970
16576W        W32760  18.897   3.477  11.258 -0.0586  0.1310 -0.0297
16577W        W32761  12.277   0.994   3.487  0.0040 -0.2301  0.2291
16578W        W32762  15.189   2.002   0.690 -0.0304 -0.1365 -0.1739
16579W        W32763  17.021   6.506   2.306 -0.1331  0.0408 -0.0786
16580W        W32764  12.377   7.797   2.969 -0.0882  0.1897 -0.0286
16581W        W32765  11.489   7.648  14.194 -0.1145  0.0082  0.1759
16582W        W32766   1.079  14.683   2.798  0.1051  0.0545 -0.2547
16583W        W32767  14.741  19.022   2.745 -0.0702  0.1417 -0.1880
16584W        W32768  10.044  11.923  12.791  0.1137  0.0192 -0.1782
16585W        W32769   3.092  17.446   4.056  0.5092  0.1981  0.1566
16586W        W32770  14.287  15.487   3.821  0.0652  0.0283 -0.0230
16587W        W32771  13.551  12.455   5.325  0.1201  0.0067  0.1541
16588W        W32772   6.432   8.546   3.986  0.1328  0.3425  0.0498
16589W        W32773   2.820  15.349  10.790 -0.1584  0.0849 -0.3586
16590W        W32774  16.922   3.095  10.626  0.1981 -0.0162 -0.2702
16591W        W32775   3.446   6.418   5.365 -0.2857 -0.1479 -0.0656
16592W        W32776   0.738  16.474   2.946  0.2710  0.1668  0.1821
16593W        W32777   6.372  15.461   4.458  0.0068 -0.0728  0.0857
16594W        W32778  10.331  10.499  12.407  0.1858  0.0193 -0.0991
16595W        W32779   9.323  10.068   1.528 -0.0164  0.4494  0.1011
16596W        W32780   9.029   7.447   4.309 -0.1123 -0.0953  0.3091
16597W        W32781   6.053  10.441   5.091 -0.1764  0.2386 -0.0411
16598W        W32782  14.875   2.640  14.135 -0.1114 -0.0727  0.2697
16599W        W32783  16.067   0.293  12.958  0.0690  0.2343 -0.0768
16600W        W32784   0.716  16.752  13.233 -0.0327  0.0069 -0.0767
16601W        W32785   2.175  17.086   4.300  0.4384  0.0543 -0.1964
16602W        W32786  11.093   2.197  12.929 -0.1822 -0.1373  0.1311
16603W        W32787  19.380  11.674  11.694 -0.1999  0.2493  0.1994
16604W        W32788  10.366   7.823  13.120  0.2607 -0.2428 -0.1759
16605W        W32789  15.675  12.717   0.109  0.2258 -0.1208 -0.0663
16606W        W32790   8.806  13.265   0.270  0.3789 -0.0223 -0.2202
16607W        W32791  13.007   1.522   9.600 -0.1994 -0.1256  0.0698
16608W        W32792  13.214  10.760  13.131 -0.3570 -0.2092  0.3129
16609W        W32793  16.218   1.224   1.433  0.1220 -0.1612 -0.3746
16610W        W32794  11.584   4.132   0.610 -0.4046  0.1211 -0.1493
16611W        W32795   6.337  12.631  12.305  0.3983  0.2004  0.0291
16612W        W32796  11.399  10.149  10.577 -0.1294 -0.0858  0.1646
16613W        W32797  19.213   1.306  12.223  0.1179 -0.3091 -0.2037
16614W        W32798  13.803  17.834  11.100  0.0751  0.2118  0.0996
16615W        W32799  11.280   1.291   4.933  0.1723  0.0479 -0.0400
16616W        W32800  13.870   3.410   3.253  0.0536  0.0371  0.2421
16617W        W32801   0.522  11.002   5.632  0.0268 -0.3349 -0.0635
16618W        W32802  14.646   1.447  11.355 -0.0612  0.0644 -0.0122
16619W        W32803   5.419   2.372  12.230 -0.0547 -0.1761 -0.2302
16620W        W32804  16.255  15.120  13.363 -0.0341 -0.5077  0.0400
16621W        W32805   2.814  15.136   0.244  0.1508  0.0765  0.0293
16622W        W32806  19.303  19.352   5.511  0.2911  0.1648 -0.1438
16623W        W32807  10.166  10.461  13.441  0.0966 -0.2768  0.1575
16624W        W32808  10.537  11.923  14.129 -0.1669  0.1672 -0.3113
16625W        W32809  11.928   2.980  13.121  0.1317  0.0115 -0.1017
16626W        W32810  15.758  15.484   1.641  0.4810  0.0445  0.2587
16627W        W32811  13.135  11.872   5.004  0.1124  0.2872  0.1473
16628W        W32812   5.693   3.696  13.963  0.1614 -0.1917 -0.2263
16629W        W32813  15.284   6.344   1.765  0.3763 -0.0059 -0.3368
16630W        W32814   6.221  13.405   4.303  0.0514  0.1496  0.0636
16631W        W32815   5.422   7.893   0.692  0.2002  0.0927  0.0875
16632W        W32816   0.419  18.548   5.095  0.1125 -0.0067 -0.3439
16633W        W32817  17.743   4.933   1.536  0.4965  0.1642  0.0095
16634W        W32818  16.616  10.879   4.756  0.0450 -0.2097  0.1407
16635W        W32819  13.450  12.844   1.525 -0.0091 -0.0572 -0.2876
16636W        W32820  13.756   8.663   4.211 -0.0137 -0.1372  0.1142
16637W        W32821  17.723  11.194   0.166  0.1664  0.3460 -0.3160
16638W        W32822   2.103   7.184  12.072  0.1735 -0.4158 -0.1121
16639W        W32823  14.985  18.482  10.173 -0.4485 -0.2387  0.1772
16640W        W32824   5.638  17.512   4.920 -0.0490 -0.2358  0.3105
16641W        W32825  13.312   9.024  11.214  0.3369  0.1624 -0.1953
16642W        W32826  10.194  14.956   1.853  0.1482 -0.1803  0.2017
16643W        W32827  11.890   0.649  10.492  0.2610 -0.1688 -0.2386
16644W        W32828   4.452  12.899   3.249  0.1107 -0.0997 -0.1074
16645W        W32829   2.792   6.107   1.318 -0.1252  0.4384 -0.6130
16646W        W32830   6.274   5.797   5.093 -0.0465 -0.1868 -0.0309
16647W        W32831  15.157   5.314   4.734  0.1261  0.0209 -0.2157
16648W        W32832   9.386  16.516  11.436  0.0073 -0.3009  0.0268
16649W        W32833   2.355  19.274   9.420 -0.2801  0.0140  0.0752
16650W        W32834  15.114   0.201   4.526 -0.1872  0.1245  0.5175
16651W        W32835   4.176   5.516   1.971  0.2718  0.1985  0.1691
16652W        W32836   2.485  11.428   0.815  0.1294  0.2349 -0.3901
16653W        W32837  12.534   5.593  14.818  0.3090  0.3391  0.3791
16654W        W32838  15.881  13.041   4.037 -0.1357 -0.1667  0.0973
16655W        W32839  14.119  18.261   0.063 -0.1999  0.2119 -0.1931
16656W        W32840   0.801   2.681  11.411  0.0555  0.0076 -0.0085
16657W        W32841  17.444  10.338  12.332 -0.0115  0.2255  0.0803
16658W        W32842  17.203  19.173   9.985 -0.0922 -0.1655 -0.2075
16659W        W32843   4.658  17.367   2.689  0.2449  0.0680  0.2319
16660W        W32844  17.848   0.808   3.318 -0.0486  0.0435 -0.1341
16661W        W32845  17.896  14.186  13.874  0.2190  0.0108  0.1329
16662W        W32846  19.151   0.763   3.913 -0.1225  0.1777  0.0030
16663W        W32847   3.758  15.768   3.314  0.0028  0.1435  0.3122
16664W        W32848   0.257   9.686  11.257  0.2420 -0.1607 -0.2217
16665W        W32849   8.493  16.665   0.076  0.3488 -0.0983 -0.0649
16666W        W32850  14.822  14.300   1.265 -0.4133  0.0483 -0.2072
16667W        W32851   5.731  13.899   0.131 -0.1520  0.0767 -0.4888
16668W        W32852  10.323   4.937   0.941  0.2359  0.2888  0.1705
16669W        W32853  10.027  10.063  12.706  0.0378  0.2158 -0.1307
16670W        W32854   2.094  11.110   1.681 -0.1948  0.2204  0.1556
16671W        W32855   2.844  11.745  13.085 -0.3011  0.1669  0.0786
16672W        W32856  18.786  14.765   5.368 -0.0076  0.1361  0.3325
16673W        W32857  12.056  15.491  12.934  0.1814 -0.0848  0.1574
16674W        W32858   1.953  14.218   1.301 -0.0127  0.1872  0.5040
16675W        W32859   1.259   6.057  10.675 -0.1011  0.1738  0.0819
16676W        W32860   9.115   1.527  11.785 -0.1827  0.2788 -0.0984
16677W        W32861  10.539   0.330   2.602 -0.2525 -0.1332 -0.0176
16678W        W32862   1.624  18.589  10.862  0.0298  0.0206 -0.3902
16679W        W32863  15.018   3.738  14.188  0.2377 -0.7486  0.1500
16680W        W32864  17.375  13.623   0.994  0.2289 -0.1222 -0.3581
16681W        W32865   9.798   7.143  12.359 -0.2981  0.0899  0.1082
16682W        W32866   7.309  11.048  11.482 -0.1791 -0.1124  0.3817
16683W        W32867  17.372  17.188  13.240 -0.0741  0.0673  0.1576
16684W        W32868  12.035  19.200   3.144  0.0855 -0.1935  0.5990
16685W        W32869   3.164   7.724   3.629 -0.0829  0.3338  0.2913
16686W        W32870   0.667   8.188   5.203 -0.1951 -0.1485  0.2861
16687W        W32871  11.772   6.207   9.319  0.0626  0.2104 -0.6200
16688W        W32872   8.622   9.434  14.381 -0.0623  0.4769 -0.3402
16689W        W32873  16.259  10.101   4.159  0.2008  0.0218  0.0263
16690W        W32874   0.412   6.389  11.053 -0.0107 -0.0496  0.2562
16691W        W32875  14.466  16.489   4.651  0.0485 -0.1531  0.0458
16692W        W32876   6.148  18.946  11.783  0.1243 -0.0017  0.0402
16693W        W32877   8.515   7.348  11.669  0.2394  0.3650  0.3403
16694W        W32878  17.726  15.844  12.678 -0.0585 -0.0680  0.1183
16695W        W32879   9.811  18.877  13.527  0.3225 -0.0899 -0.0222
16696W        W32880  11.906  18.520   4.987  0.0071 -0.1551  0.4047
16697W        W32881  16.242   4.822  10.527 -0.1572  0.2071  0.1069
16698W        W32882   5.431  14.223   4.790 -0.2365 -0.1190  0.0138
16699W        W32883  11.437   2.942  14.415 -0.0537  0.0927  0.0072
16700W        W32884  13.329  10.025  13.011  0.0886 -0.2453 -0.2540
16701W        W32885  10.056   4.444   3.652  0.0397 -0.2179  0.0403
16702W        W32886   5.582   2.049  11.326  0.0077  0.0690  0.1184
16703W        W32887   8.597   7.647   4.717  0.0037 -0.0384 -0.2855
16704W        W32888  11.479  15.444   4.817 -0.0018  0.2321 -0.0376
16705W        W32889  10.444   6.324  11.632 -0.0035  0.2055 -0.0526
16706W        W32890  18.340   2.108   4.323  0.4760 -0.2003 -0.1915
16707W        W32891  14.498  16.643   4.134  0.3024 -0.1992  0.0811
16708W        W32892  14.760   8.944   5.083  0.0300  0.0862  0.0249
16709W        W32893  16.910  14.817  12.581 -0.1733 -0.3173  0.0999
16710W        W32894   1.260  18.734  14.951  0.0746 -0.1016  0.1388
16711W        W32895  14.322  13.740  10.994 -0.0587  0.0146 -0.3231
16712W        W32896   3.319  18.391   3.777  0.2626 -0.5516  0.0749
16713W        W32897   3.368  10.074  12.628  0.0545 -0.0242 -0.1888
16714W        W32898   3.202  15.782  13.287  0.0536 -0.1208 -0.5694
16715W        W32899  16.740  14.247   3.234  0.4113 -0.1959 -0.0021
16716W        W32900  11.924  18.984   1.353  0.0649  0.0442 -0.1931
16717W        W32901   7.832   0.681   0.937 -0.0173  0.0960 -0.1128
16718W        W32902  16.339  13.894   0.840 -0.0480  0.0449  0.3845
16719W        W32903   6.940  12.891  11.598 -0.0782 -0.2048  0.1911
16720W        W32904   4.542  10.467   1.334 -0.0871 -0.2208 -0.0274
16721W        W32905  17.173  14.405  12.685 -0.2949  0.3462 -0.0849
16722W        W32906  16.186   3.898   3.953 -0.1422 -0.0928  0.5842
16723W        W32907  15.613  11.325  11.398  0.0318  0.0335  0.2737
16724W        W32908   3.904   1.249   2.119  0.0726  0.0229 -0.0150
16725W        W32909   3.611  17.463   5.045 -0.1601 -0.2670  0.0421
16726W        W32910   1.340   2.683   3.663  0.0866  0.2850  0.0374
16727W        W32911  14.245  14.568  14.092 -0.0855 -0.0298  0.1681
16728W        W32912   8.902  12.716  12.081  0.0787 -0.0945 -0.4434
16729W        W32913  12.591  14.798  12.556  0.0845  0.1318 -0.0188
16730W        W32914   9.235  17.386   1.323 -0.1417  0.2297 -0.0630
16731W        W32915  17.983   9.989   2.730 -0.0789  0.0698 -0.0717
16732W        W32916   1.119  13.605  11.423  0.0717  0.0768 -0.3454
16733W        W32917   8.168  12.934   1.939  0.0010 -0.1377 -0.0797
16734W        W32918   1.391  12.502   4.696 -0.1388  0.1530  0.0651
16735W        W32919  18.822   2.702  14.577  0.0312 -0.0539 -0.3104
16736W        W32920   4.358  14.566  10.528 -0.1628  0.3031 -0.1020
16737W        W32921  18.468   9.306  10.594 -0.2748 -0.0404 -0.0532
16738W        W32922  12.374  18.451  10.910 -0.0131 -0.0963 -0.0390
16739W        W32923  11.607   5.484  12.859  0.1675  0.0759 -0.0630
16740W        W32924   0.913  17.709   0.934  0.2636 -0.2981  0.0783
16741W        W32925  10.754   3.475   4.372 -0.1287 -0.3589  0.1793
16742W        W32926   9.740   1.436   5.288  0.0109 -0.3348  0.0650
16743W        W32927   4.506   8.857   0.742 -0.0527 -0.0322  0.2246
16744W        W32928   5.794   8.662   1.866 -0.0649  0.3541  0.0505
16745W        W32929  14.445  18.994  11.354 -0.0218 -0.3502  0.1258
16746W        W32930   5.058  13.686   4.250 -0.0493  0.1415 -0.2472
16747W        W32931  11.708  17.349   4.105  0.0188  0.0085  0.3078
16748W        W32932   3.113  18.623  10.694 -0.0997 -0.0583 -0.2023
16749W        W32933  18.952  13.526   3.105 -0.0223 -0.0302  0.1765
16750W        W32934   3.812  16.592  14.179  0.2159 -0.0166 -0.0415
16751W        W32935  10.371  13.656   1.058  0.3480  0.0467  0.2295
16752W        W32936  18.981  18.179  13.558 -0.0368  0.1392 -0.4458
16753W        W32937   3.351  14.021  10.428  0.0280 -0.2340  0.0631
16754W        W32938  10.726  18.817  11.888 -0.1107 -0.1124  0.0110
16755W        W32939   4.208  13.608   3.816  0.1033 -0.2351  0.1834
16756W        W32940   6.410   7.120   2.588 -0.0920  0.0365 -0.1225
16757W        W32941   0.145  18.942  13.079  0.0298  0.2944 -0.2586
16758W        W32942   3.554   4.979  14.663  0.0058 -0.2286 -0.0114
16759W        W32943   1.438   8.748  14.363 -0.1923  0.0977  0.0455
16760W        W32944   1.563   8.082  10.208  0.3376 -0.3694  0.0150
16761W        W32945   4.814   1.648   3.122  0.0702 -0.0255  0.2787
16762W        W32946   7.552   7.497   1.997  0.3955  0.1077  0.3307
16763W        W32947   7.970  13.255   3.677  0.0530 -0.1484 -0.2881
16764W        W32948   8.688   5.303   1.433 -0.0555 -0.2443 -0.0166
16765W        W32949   4.522   7.745  11.126 -0.2450  0.0600 -0.3529
16766W        W32950  12.943   7.499  11.662  0.1904 -0.0184  0.1783
16767W        W32951  17.070  15.654  14.016  0.1199 -0.0844  0.1341
16768W        W32952  11.656   6.810  13.683  0.0422  0.5393  0.0954
16769W        W32953   1.568   2.723  12.985  0.1349 -0.1758 -0.0326
16770W        W32954   2.758   2.417  12.141  0.0294 -0.2431  0.0930
16771W        W32955   8.315   3.057   4.386 -0.0201 -0.2634  0.0103
16772W        W32956   8.268  12.613   0.303  0.0602 -0.4095 -0.2080
16773W        W32957  17.142  13.745   0.549  0.0374 -0.2233 -0.0902
16774W        W32958   6.186   5.002   1.780 -0.1893 -0.0633 -0.2407
16775W        W32959  15.791  15.624   2.194  0.0442  0.2883  0.0950
16776W        W32960   4.499   2.525   1.609  0.2278  0.3230  0.0162
16777W        W32961  14.937  11.452   3.004  0.0865 -0.2607  0.1861
16778W        W32962  10.514   6.043  14.042 -0.0930 -0.1166 -0.3032
16779W        W32963  15.978  13.188  13.709 -0.1845  0.0675 -0.2158
16780W        W32964   0.460  14.097   1.126  0.1067  0.2029 -0.1027
16781W        W32965  15.827   1.268   0.281  0.1985 -0.1088 -0.0278
16782W        W32966   7.009   4.049  14.532  0.2267  0.3753  0.3066
16783W        W32967   1.632   2.287   2.848 -0.0259 -0.0254  0.0564
16784W        W32968   0.808   8.361   3.333 -0.0637  0.1532  0.2192
16785W        W32969  12.043  15.882  10.649 -0.1660  0.2935  0.0433
16786W        W32970  11.128   1.917   0.288  0.3253  0.1439  0.1539
16787W        W32971  13.019   8.130  14.067  0.0140 -0.2348 -0.3111
16788W        W32972  17.716   9.032   0.779  0.2151 -0.0575  0.2171
16789W        W32973  12.525   7.529  12.852  0.0237  0.3851 -0.2986
16790W        W32974  17.141   2.995   2.967 -0.0432  0.2307  0.1503
16791W        W32975   1.675  11.659  12.240 -0.1839  0.1795 -0.0056
16792W        W32976  15.012  17.538  13.414 -0.0128  0.0035 -0.1325
16793W        W32977  16.807   3.596  10.987  0.1532  0.0447  0.0349
16794W        W32978   3.052   1.602  13.902 -0.3339  0.2214  0.1366
16795W        W32979  12.164  12.890   3.239 -0.0544  0.0852 -0.0570
16796W        W32980  17.416   8.370   5.158 -0.0294  0.5011  0.0098
16797W        W32981   3.348  10.640  14.766  0.2817  0.2995  0.0825
16798W        W32982  15.801  11.842  11.433  0.1295  0.0445  0.0177
16799W        W32983   0.176   7.033   5.235  0.0300  0.1881 -0.2598
16800W        W32984   1.545  19.252   3.214 -0.1034 -0.2512  0.1761
16801W        W32985   6.372   8.712   1.632 -0.2559 -0.3649  0.2050
16802W        W32986  19.055  11.881   2.667  0.0641  0.0411  0.1813
16803W        W32987   0.442   1.782  10.429 -0.0413  0.2347 -0.1021
16804W        W32988   1.907  16.867   5.205  0.1016  0.2347 -0.1814
16805W        W32989   2.371   0.024  14.193  0.0402 -0.0467  0.0942
16806W        W32990  16.030   9.558   1.968  0.0168 -0.2213 -0.1214
16807W        W32991   0.553  17.308   4.768  0.1589  0.0974  0.1020
16808W        W32992  18.160   7.591   3.175 -0.4541 -0.0320 -0.0707
16809W        W32993   1.042  11.405   5.006  0.0767 -0.0483  0.4163
16810W        W32994   7.905  18.562  11.378  0.0509 -0.1874  0.0861
16811W        W32995   4.349   3.450   0.096 -0.1025 -0.2140 -0.2345
16812W        W32996  18.603  12.041   4.854  0.0477  0.4410  0.3686
16813W        W32997  16.690   7.679  14.975  0.4218  0.0400  0.1056
16814W        W32998   1.870  10.993  12.952 -0.3989 -0.1438 -0.0864
16815W        W32999   1.056   5.783  13.894 -0.3725  0.1654  0.2664
16816W        W33000  13.464   2.571  11.910  0.0636 -0.0124  0.1336
16817W        W33001  15.565  18.674  12.855 -0.0303  0.1550 -0.0576
16818W        W33002  11.321  14.276   5.005  0.0480  0.4984 -0.1181
16819W        W33003  16.725  14.676   3.455  0.1079  0.1445 -0.0170
16820W        W33004  12.181   4.087  11.973 -0.0511 -0.1601 -0.1817
16821W        W33005   8.412   4.449  10.016  0.1546  0.0373 -0.4846
16822W        W33006  16.267   9.159   2.175 -0.1666 -0.1076  0.0961
16823W        W33007   5.152   7.517   4.793 -0.1457 -0.2662 -0.0975
16824W        W33008  14.724  17.991   1.603 -0.1569 -0.2961 -0.1454
16825W        W33009   4.211   8.414  14.288  0.0371 -0.2462  0.0035
16826W        W33010   1.780  10.565  11.014  0.0288  0.1025  0.0896
16827W        W33011   9.533  11.790   3.598 -0.2439  0.1375  0.0768
16828W        W33012   9.635  19.284   2.593  0.0396 -0.0147 -0.1716
16829W        W33013  12.035  17.994  13.671  0.2170 -0.2849  0.0632
16830W        W33014   7.660  15.966  12.348  0.1916  0.3424 -0.0855
16831W        W33015  16.766   2.322   0.402 -0.2207 -0.1668  0.1257
16832W        W33016   6.218  15.031   2.435 -0.0857  0.3184  0.0416
16833W        W33017  10.282  18.729  14.713 -0.1924  0.1967 -0.0129
16834W        W33018  16.525  13.239   0.229  0.3168  0.1827 -0.3263
16835W        W33019   3.630  14.519   1.227  0.2080  0.0642  0.3974
16836W        W33020  12.176   1.144   4.366 -0.3058  0.1216  0.4383
16837W        W33021   8.413   4.106   4.571 -0.0500  0.0039 -0.1318
16838W        W33022   5.806  18.709  11.514  0.2856 -0.2278  0.2759
16839W        W33023   8.980  10.462   3.201  0.0879  0.4438  0.0456
16840W        W33024  14.236  15.057   1.777 -0.0186  0.0346  0.1109
16841W        W33025  17.280  19.087   0.490 -0.1224  0.0392 -0.1492
16842W        W33026  19.109  16.913   1.290  0.0353 -0.0983 -0.1011
16843W        W33027   7.059   0.734   5.027  0.1038 -0.0263 -0.0730
16844W        W33028  18.025   7.426  11.052  0.0159 -0.0123  0.1011
16845W        W33029   4.210   4.946   3.168 -0.0386  0.2895 -0.2928
16846W        W33030   5.404   9.183   4.724 -0.0983  0.0970 -0.0334
16847W        W33031   5.664  13.717  12.793  0.1041  0.0295  0.2351
16848W        W33032  15.026   9.590  11.082 -0.0870 -0.2456 -0.0555
16849W        W33033  10.180   0.977   3.373  0.3118  0.2716 -0.0835
16850W        W33034  15.849  19.382   3.505 -0.3427  0.3670 -0.0680
16851W        W33035   3.499   0.260  11.035  0.0285 -0.1341 -0.0545
16852W        W33036  14.718  15.636  12.649 -0.2556  0.0468 -0.1300
16853W        W33037   0.547  15.089   3.017 -0.1206 -0.0829  0.0187
16854W        W33038   8.542   0.860   4.987 -0.1109 -0.1377 -0.1803
16855W        W33039   0.985  13.041   5.407  0.3261  0.3690  0.1526
16856W        W33040   0.952  13.263  11.782  0.0696  0.2217  0.1826
16857W        W33041   0.464  18.457   1.496 -0.4828  0.0589  0.0423
16858W        W33042   5.482   2.940  10.738 -0.3191  0.1251 -0.0834
16859W        W33043   2.232   2.478   4.205 -0.2295  0.1285  0.0480
16860W        W33044   5.340  19.093  14.123  0.2547 -0.0957 -0.4030
16861W        W33045  16.351   3.583  11.475  0.0859  0.0398 -0.1466
16862W        W33046  15.177  15.162   1.185 -0.1203 -0.0878  0.1780
16863W        W33047  16.483  13.778   3.297  0.3358 -0.2995  0.0174
16864W        W33048   0.213  14.229   5.517 -0.0027  0.2031  0.1488
16865W        W33049  18.775   7.493  10.927 -0.1312 -0.1563 -0.0164
16866W        W33050   7.788   3.693  14.465 -0.2425 -0.0249  0.1969
16867W        W33051   6.331   4.583   1.220 -0.4004 -0.1809  0.0778
16868W        W33052  16.366   8.585   9.844 -0.1015 -0.2633  0.3773
16869W        W33053   9.747   8.828   5.252 -0.2544  0.0782 -0.2786
16870W        W33054  13.608  16.498  13.605 -0.1710  0.0868 -0.2105
16871W        W33055   4.420   1.731  11.832  0.3666  0.1148  0.0932
16872W        W33056   6.523   1.327   0.472 -0.0284  0.0175 -0.2938
16873W        W33057  10.809  15.052  14.562  0.1132 -0.1311 -0.0698
16874W        W33058  17.681   0.836   0.814  0.0382 -0.0401  0.0029
16875W        W33059  13.921   6.494   3.623 -0.1235 -0.1533  0.0046
16876W        W33060  14.570  16.483   9.816 -0.0679  0.0685  0.4401
16877W        W33061  14.433   5.932   1.353  0.0957  0.0748 -0.1306
16878W        W33062   4.912  17.595  11.640 -0.2973 -0.2374 -0.1062
16879W        W33063  10.998  10.998   3.312  0.0845 -0.1041  0.0065
16880W        W33064   1.172   0.556  13.130 -0.0083  0.3889  0.0721
16881W        W33065   6.553  18.632  12.930 -0.0125  0.0461 -0.0477
16882W        W33066   7.797   0.094  13.338  0.2766  0.3369  0.0837
16883W        W33067   1.208  14.641  14.540  0.1331  0.0611 -0.0021
16884W        W33068  14.765   7.096  10.897 -0.1274  0.0385  0.0306
16885W        W33069   0.131   5.438  12.359 -0.0834  0.1851 -0.2345
16886W        W33070   0.770   1.908   3.754  0.0696 -0.4230  0.0776
16887W        W33071   6.994   2.390   0.540 -0.0137 -0.1816  0.1742
16888W        W33072   3.874  11.447  14.286 -0.1085  0.0911  0.0343
16889W        W33073  11.669  13.264  12.088  0.1000  0.1191 -0.0363
16890W        W33074   3.044   3.217  10.439 -0.1411  0.1680 -0.1078
16891W        W33075  12.997   6.192  14.369  0.1223 -0.2490  0.4044
16892W        W33076   3.362  13.036  10.931  0.0455  0.1648 -0.1401
16893W        W33077   8.840  18.605  13.149 -0.4175  0.0828 -0.3383
16894W        W33078   9.749  11.973  11.623 -0.0365 -0.3821 -0.2099
16895W        W33079   3.882   5.599   0.647 -0.0202  0.0318 -0.0070
16896W        W33080  16.170  15.887  12.512 -0.0825 -0.1019  0.0843
16897W        W33081  11.871   9.489   0.805 -0.1328  0.2078 -0.0603
16898W        W33082   3.667   6.485   0.292  0.1073 -0.4907 -0.6453
16899W        W33083   6.818  10.342   0.953  0.3697 -0.1093  0.2883
16900W        W33084  17.299   2.944   2.371 -0.1778 -0.0488 -0.0029
16901W        W33085  13.121   3.545  12.787  0.0918 -0.3940  0.3020
16902W        W33086   0.225  16.092  10.809 -0.2821  0.0931  0.0401
16903W        W33087  14.979   8.581   3.053  0.0719  0.0931 -0.1350
16904W        W33088   5.421  12.854  11.346 -0.4084  0.2596  0.2411
16905W        W33089   7.430  16.069   2.817 -0.0244  0.2534  0.2701
16906W        W33090  12.385  14.372   1.594  0.0465  0.2294  0.3562
16907W        W33091   0.237  18.455  12.944 -0.3040  0.0298 -0.0434
16908W        W33092   6.985   6.693  11.302 -0.3488  0.0770 -0.0920
16909W        W33093   6.861  15.302   4.423  0.1015  0.0476  0.0655
16910W        W33094   7.187  14.782   1.468  0.2765  0.0517  0.1688
16911W        W33095   9.162   9.356   1.688 -0.0147  0.1460  0.2022
16912W        W33096  11.705  15.042   3.525  0.0494 -0.1761  0.0143
16913W        W33097  17.828  12.664   2.674  0.3901 -0.1428 -0.0297
16914W        W33098   1.810   4.945  11.133 -0.4276  0.2523  0.3514
16915W        W33099  11.730  18.794   3.113 -0.0205  0.4240  0.1969
16916W        W33100   1.130  16.806   3.264 -0.0290  0.2000 -0.1740
16917W        W33101  12.861   0.529   0.798 -0.1352 -0.2755 -0.0613
16918W        W33102   6.693   3.557  12.265  0.1959  0.0007 -0.1703
16919W        W33103   1.927   7.093   2.382  0.1392 -0.0353  0.0819
16920W        W33104  13.472  16.017  13.829 -0.0575 -0.1484  0.0859
16921W        W33105  19.059   3.558   1.759 -0.0071  0.3448 -0.0438
16922W        W33106  19.307  14.390  13.602  0.0413 -0.0757 -0.2297
16923W        W33107   7.192   6.590   0.757 -0.2968 -0.2323  0.0662
16924W        W33108  13.667   7.784  12.034 -0.2413  0.0196 -0.0243
16925W        W33109  15.325   8.102  13.067 -0.3776 -0.0153 -0.3155
16926W        W33110  10.972   9.232  12.171  0.0996  0.0549  0.0316
16927W        W33111  16.834  10.729  12.824 -0.2583  0.1560  0.1017
16928W        W33112  17.451   9.424  10.792 -0.2156 -0.0762  0.0056
16929W        W33113   5.305   5.917  11.331 -0.0433  0.1590 -0.0633
16930W        W33114   4.824  17.364  10.700  0.1181  0.1871  0.5085
16931W        W33115  14.263   3.914   9.815  0.1022  0.0245 -0.0504
16932W        W33116  10.927  12.156  13.232 -0.2438 -0.1158  0.0240
16933W        W33117  10.784  11.303  12.959 -0.5768 -0.1210 -0.3223
16934W        W33118  17.830   8.280  11.987 -0.0718  0.1277  0.0069
16935W        W33119   0.430  13.627   9.996  0.2749  0.0019  0.1099
16936W        W33120  19.032   4.064  10.725  0.0017  0.1801  0.0924
16937W        W33121   6.557  15.727   9.648  0.1386  0.0831  0.0345
16938W        W33122  14.990  18.893   0.652 -0.0912 -0.3489  0.1918
16939W        W33123   1.521  13.920   3.853  0.0630 -0.1315  0.0729
16940W        W33124   4.138  12.658   2.893 -0.2859  0.2398  0.3017
16941W        W33125   3.086  10.819  12.093  0.2065  0.3754  0.1226
16942W        W33126   9.675   6.579  13.791  0.1758  0.0579 -0.0368
16943W        W33127  17.583  17.923  11.187 -0.2596  0.0179 -0.2643
16944W        W33128  10.889  11.590   4.280  0.0897 -0.0861 -0.1912
16945W        W33129  18.451  13.899   5.260  0.2295 -0.1690 -0.2201
16946W        W33130  14.521   9.227  13.447 -0.1489  0.0117  0.0652
16947W        W33131  15.741   3.459   3.283  0.0628  0.2667  0.0496
16948W        W33132   5.691  12.694   3.604  0.2665  0.2175  0.6047
16949W        W33133   6.370  18.723  12.359 -0.0520  0.2574 -0.3643
16950W        W33134  17.877   5.500   0.664 -0.1711  0.0403 -0.0152
16951W        W33135   0.421  14.542  14.557 -0.0541 -0.6474 -0.0199
16952W        W33136   2.284  12.268  14.691  0.3856 -0.0547 -0.2164
16953W        W33137   9.327   8.110   9.457  0.0524 -0.2063 -0.5132
16954W        W33138   6.866  14.356   5.571  0.1307  0.2107 -0.0113
16955W        W33139  15.046  18.752   2.421 -0.0380 -0.1483  0.1378
16956W        W33140  15.714   7.311   2.274 -0.1822 -0.4802  0.0761
16957W        W33141  12.718  10.932   3.129  0.0759  0.0353 -0.2987
16958W        W33142  15.913  17.762  12.731 -0.0182  0.2561 -0.0937
16959W        W33143   9.382   1.444  10.170 -0.0674  0.0444 -0.1177
16960W        W33144  15.467   3.251  11.896  0.0369  0.2001 -0.0415
16961W        W33145   9.425  19.083  12.354 -0.0928 -0.1057  0.1354
16962W        W33146   1.829  14.638  12.561  0.0058 -0.0444  0.1596
16963W        W33147   7.039   5.714   2.655  0.0326 -0.0577 -0.3061
16964W        W33148  18.175  12.044  11.057  0.0199 -0.1451  0.0223
16965W        W33149   8.021   0.120  12.075 -0.1848 -0.1635  0.1141
16966W        W33150   7.839   6.251  11.657 -0.3277 -0.0462  0.1178
16967W        W33151  10.318  17.472  12.400  0.2043 -0.1513 -0.1218
16968W        W33152  13.038   1.623  14.197  0.0923  0.0406 -0.0926
16969W        W33153  12.243  11.213  13.234 -0.0626  0.1017 -0.1573
16970W        W33154  13.956   9.052   1.045 -0.0775 -0.1383 -0.0417
16971W        W33155   1.599  13.330   0.104 -0.1603 -0.0623  0.0828
16972W        W33156   2.143   8.857  10.075  0.2725  0.2485  0.2656
16973W        W33157  18.745   0.705  12.960  0.1071 -0.2576 -0.0284
16974W        W33158   3.997   3.355   0.482 -0.2182  0.0580  0.0519
16975W        W33159   0.889   4.967   0.840 -0.1553 -0.2320  0.3365
16976W        W33160  10.961  13.303   1.561  0.0106 -0.1378  0.0838
16977W        W33161   4.385  10.734  14.030  0.1768  0.0298 -0.1722
16978W        W33162   1.538  15.946   2.835  0.1653  0.0508 -0.0622
16979W        W33163  16.207   4.644   4.592 -0.0257  0.2026 -0.1389
16980W        W33164  10.966   1.678  10.551  0.0009 -0.1784  0.3014
16981W        W33165   2.769   1.989   1.826  0.1499  0.0887  0.2479
16982W        W33166  14.816  11.813  14.749 -0.0356 -0.0459  0.1773
16983W        W33167  17.414   4.301   0.911 -0.0884 -0.1057  0.1422
16984W        W33168   9.504  16.944   0.269 -0.1404  0.1505  0.3954
16985W        W33169  15.959   8.201   1.315  0.0203  0.3138 -0.3528
16986W        W33170  15.215  12.730  12.165  0.2818  0.3646  0.2372
16987W        W33171   2.721  17.368  13.960  0.1734 -0.2814 -0.1067
16988W        W33172  15.301  11.979   3.542 -0.0228 -0.1577  0.0052
16989W        W33173  19.301  14.616   2.132 -0.0734  0.0293 -0.1815
16990W        W33174   6.254   0.214   5.253  0.0052 -0.0994  0.0506
16991W        W33175   9.864  10.083   9.627  0.0583  0.3148 -0.0649
16992W        W33176   8.583  16.111   3.651  0.1473 -0.4611  0.0057
16993W        W33177   7.728  14.277   1.092  0.2875  0.0156 -0.2947
16994W        W33178  12.300   6.305  10.397  0.3355  0.0467 -0.1268
16995W        W33179  12.888   8.944  14.152  0.0120 -0.1296 -0.0007
16996W        W33180   5.344  17.331   3.349 -0.2660  0.0748  0.0889
16997W        W33181   0.768   1.723   2.260  0.0508  0.0281  0.1418
16998W        W33182   4.272  19.149  11.209 -0.1474 -0.1607  0.0954
16999W        W33183   4.157  15.151  11.169  0.1177 -0.3950 -0.1516
17000W        W33184   4.954  16.373  10.545  0.2304  0.3608 -0.1833
17001W        W33185   8.594  16.563  14.264 -0.2297 -0.2792  0.0396
17002W        W33186   9.863   9.702   2.989  0.2831  0.3265 -0.0099
17003W        W33187   6.096  13.994   5.741  0.0310  0.1100 -0.0306
17004W        W33188  12.126  16.983   2.130  0.0357 -0.0593  0.3260
17005W        W33189   5.113   0.697  14.053  0.1767  0.0141  0.1312
17006W        W33190   9.572  14.589  11.885 -0.1691 -0.0405  0.3008
17007W        W33191   3.787   3.509  12.273 -0.3108  0.0520 -0.0586
17008W        W33192  15.684   1.090  10.744 -0.1143 -0.2118  0.2239
17009W        W33193   2.050   1.497  13.194  0.5421 -0.0323  0.0002
17010W        W33194   2.153   1.095   3.132 -0.3542 -0.0890  0.0169
17011W        W33195  17.105   0.196  14.781  0.1533 -0.0957 -0.0301
17012W        W33196   2.320  13.755  11.633 -0.1817  0.0416 -0.2046
17013W        W33197   8.507  16.971  12.165  0.2176 -0.2648 -0.0468
17014W        W33198   5.701  15.048  11.680 -0.1425 -0.1029  0.1512
17015W        W33199   6.475  10.168   3.316  0.0224  0.3067 -0.1772
17016W        W33200   2.933  16.471   1.400 -0.0859  0.2552  0.0463
17017W        W33201   3.705   4.482  10.756  0.1698 -0.1229  0.2722
17018W        W33202   5.651  13.979  11.772 -0.0980 -0.2188 -0.0990
17019W        W33203   6.642   5.200   4.177 -0.0886 -0.2300  0.2356
17020W        W33204   6.221  15.128  10.807  0.0695 -0.0014 -0.0128
17021W        W33205   4.763  11.712   0.297 -0.0096 -0.3220 -0.1664
17022W        W33206  13.790  11.660   0.937 -0.0137  0.0769  0.1490
17023W        W33207   0.299  15.062   0.491 -0.0313 -0.0687  0.1606
17024W        W33208  15.582   6.053  11.245  0.1323  0.2651 -0.2318
17025W        W33209   0.370   7.547   0.049 -0.1243  0.1114  0.2684
17026W        W33210  10.437   2.941  14.520  0.1134 -0.0243  0.0417
17027W        W33211  16.092   2.840   3.080  0.4086  0.2580 -0.0065
17028W        W33212   7.898   8.163  14.434  0.2209  0.0519 -0.1502
17029W        W33213  18.606  11.345   2.427  0.2012  0.2541 -0.0488
17030W        W33214   3.070  13.392   1.552 -0.0939  0.1544  0.2303
17031W        W33215   7.351  12.259  13.128  0.1030 -0.0493  0.0082
17032W        W33216   5.139  12.049  14.579  0.0033 -0.1690  0.1169
17033W        W33217  15.176   0.864  13.446 -0.2742  0.0191 -0.0822
17034W        W33218   4.751   1.404  11.208  0.2118 -0.1001  0.0394
17035W        W33219  16.673  12.739  10.883 -0.0249  0.1662 -0.4511
17036W        W33220  13.179  10.749   2.922  0.2318 -0.3066 -0.0322
17037W        W33221  18.644  16.083   5.733 -0.1526  0.2301  0.0539
17038W        W33222   3.111  14.423   3.845 -0.1224  0.3539  0.4028
17039W        W33223   6.389   0.924  12.910 -0.0232 -0.2365  0.0081
17040W        W33224  17.737  14.642  13.642  0.0751  0.0598  0.1243
17041W        W33225  15.491   3.009  11.491  0.1073 -0.1826 -0.2070
17042W        W33226   5.463  17.785   4.169 -0.1797  0.0739  0.0344
17043W        W33227   7.256   1.749  12.943 -0.0220  0.0587 -0.1746
17044W        W33228   9.513   6.686   3.347  0.3459 -0.2644 -0.3661
17045W        W33229   2.605   8.927  12.277  0.1966 -0.0308  0.0835
17046W        W33230  12.419  12.863   0.269 -0.0026  0.3523  0.2455
17047W        W33231  18.545   2.965  14.029 -0.0979  0.1588  0.2505
17048W        W33232   2.248   5.836  11.168  0.3639  0.3113  0.2994
17049W        W33233   6.474  11.697   2.809  0.1048  0.2010  0.2010
17050W        W33234   5.316   9.416  10.995  0.3670  0.0157  0.1189
17051W        W33235   6.880   6.588   4.094  0.1554  0.0352 -0.2712
17052W        W33236  11.315  12.307  11.991  0.2002  0.1995  0.2403
17053W        W33237   2.975  17.445  11.487  0.1191 -0.0680 -0.1697
17054W        W33238   8.844  13.455   4.000 -0.2959  0.0818  0.2263
17055W        W33239  14.562   7.949   2.977  0.1713 -0.1170  0.0257
17056W        W33240  12.331  16.467  10.547  0.2172  0.2214 -0.1645
17057W        W33241   8.094  10.798   0.189 -0.0748  0.3659 -0.0168
17058W        W33242  13.919   6.095  12.147 -0.1304  0.0014  0.2396
17059W        W33243  15.506   5.252  14.611  0.2273  0.1070 -0.0205
17060W        W33244   9.082   9.711  13.231 -0.0620 -0.1166  0.1642
17061W        W33245   8.233  12.013   4.310 -0.3299 -0.0721  0.3197
17062W        W33246   5.068   3.660  11.609  0.1238  0.1113  0.1051
17063W        W33247  11.373   2.160   2.123 -0.0397  0.0108 -0.0603
17064W        W33248  14.814   4.266  14.203  0.0974 -0.2527  0.0330
17065W        W33249   6.616  17.872   3.297  0.3083  0.0368 -0.2855
17066W        W33250  12.283  10.514   5.371 -0.3205  0.2391 -0.1848
17067W        W33251   4.439   8.090   2.351 -0.0529  0.2011  0.0437
17068W        W33252   3.245   6.546  11.776 -0.1297 -0.0921  0.3779
17069W        W33253   5.320   6.761  12.154 -0.0495  0.3084 -0.1832
17070W        W33254  14.155  19.358   0.983  0.1794  0.0599 -0.0772
17071W        W33255  17.278  11.080  12.743  0.2452 -0.3639  0.3091
17072W        W33256   0.150  10.909  13.690 -0.1043 -0.1725 -0.0106
17073W        W33257  17.693   9.392  14.243  0.1624  0.0860  0.1284
17074W        W33258  18.642  15.372  12.760  0.2716 -0.3376  0.0705
17075W        W33259  10.121   7.773  11.175  0.4638  0.0446  0.1623
17076W        W33260   0.390  17.173   1.784  0.0905 -0.0176  0.1601
17077W        W33261  11.032   2.045   2.455  0.1060  0.1230  0.1025
17078W        W33262   8.909   5.066  12.913 -0.0706  0.0397 -0.0139
17079W        W33263  13.939   3.971  11.786 -0.0873 -0.0915  0.0119
17080W        W33264   7.823  17.276   5.262 -0.0287  0.0067 -0.0137
17081W        W33265   7.436   9.780   5.034  0.3003  0.0340 -0.3965
17082W        W33266   5.364  18.066   0.021  0.0395  0.2308  0.0032
17083W        W33267   5.650  13.994  12.333  0.0178  0.0062  0.0293
17084W        W33268   3.561  14.146   3.790 -0.1641 -0.1355 -0.2148
17085W        W33269  17.924  11.627  14.796  0.1148  0.0544 -0.1411
17086W        W33270   4.434   0.803  11.985 -0.0805  0.1251 -0.4265
17087W        W33271   6.379   9.854   1.284  0.1664  0.0044 -0.2386
17088W        W33272  12.517  14.133   2.711  0.1884 -0.1010  0.1017
17089W        W33273   9.465  12.121   2.648 -0.2247 -0.0050  0.1915
17090W        W33274  14.815   8.134  12.037 -0.0904 -0.2231 -0.1317
17091W        W33275   8.910  15.685   4.664  0.0562 -0.2844 -0.4569
17092W        W33276   3.152  14.808  12.165  0.0684  0.1546 -0.0258
17093W        W33277  18.546   6.578   2.872 -0.0548  0.2287  0.3565
17094W        W33278   9.111   4.113  10.784 -0.0441 -0.2286 -0.0099
17095W        W33279   9.201  17.452  14.406  0.0628  0.5002 -0.2020
17096W        W33280  19.307  14.885  12.228 -0.3013 -0.0947  0.1533
17097W        W33281  13.205   8.062  10.878 -0.0039  0.1040  0.0012
17098W        W33282   7.866  13.854   1.921 -0.0554  0.2082  0.0751
17099W        W33283   5.002  12.393   3.029  0.0115  0.2334  0.1195
17100W        W33284   9.010  12.419   2.395  0.2882  0.2364 -0.0499
17101W        W33285   5.880   3.237  11.722  0.0024  0.0056 -0.0386
17102W        W33286  19.197  12.339   4.050 -0.0764  0.1443  0.0981
17103W        W33287  12.387  16.152  10.868  0.1154 -0.0651 -0.1296
17104W        W33288   4.144   5.885  13.108 -0.1176 -0.1600 -0.1859
17105W        W33289   1.189  19.347   0.788 -0.3323  0.1433 -0.1077
17106W        W33290   2.754   4.674  13.826 -0.0085 -0.2073  0.0850
17107W        W33291   6.174  13.992   3.600  0.1948  0.1242  0.0795
17108W        W33292   8.204   3.002   3.854 -0.3083 -0.1599 -0.0068
17109W        W33293  18.909  17.992   0.667 -0.0892  0.2436  0.2494
17110W        W33294  12.311  14.873   1.863 -0.1830  0.1757  0.1359
17111W        W33295  10.191   0.948   3.878 -0.0933 -0.0414  0.2150
17112W        W33296   6.079  14.034  12.623  0.1347 -0.2489  0.1423
17113W        W33297  15.824   9.824   2.434 -0.1994  0.0422  0.0740
17114W        W33298   3.174  10.472  12.923 -0.0470 -0.0184  0.6477
17115W        W33299  10.125   2.089  12.981 -0.1877 -0.0088 -0.0633
17116W        W33300  17.970   7.873   1.316  0.0792  0.0774  0.3868
17117W        W33301  10.377  14.474   3.158  0.1494  0.3035  0.1640
17118W        W33302  13.971   6.880  14.238  0.1383  0.0236 -0.0782
17119W        W33303   6.631  17.623   0.076  0.2962 -0.0660 -0.1687
17120W        W33304  11.534   7.673  12.099  0.1388 -0.0332 -0.2979
17121W        W33305   3.129  18.608  14.377  0.0134  0.1434  0.3837
17122W        W33306  14.933   6.518  13.312  0.1406  0.1697 -0.0463
17123W        W33307  18.612   7.076  12.555 -0.0796 -0.1876 -0.0806
17124W        W33308   5.722   1.716  14.244  0.1446  0.1727 -0.0397
17125W        W33309  19.243  10.304   5.288  0.0728 -0.2961 -0.3410
17126W        W33310   3.164   1.018  10.626  0.2218  0.1290 -0.1533
17127W        W33311   2.040   5.043  12.603 -0.0814  0.1146 -0.1174
17128W        W33312  11.209   2.848  13.906 -0.0603  0.1709 -0.0035
17129W        W33313   7.064  15.613  11.971  0.2277  0.3581  0.1335
17130W        W33314   4.552   3.819  10.736 -0.1451  0.6860  0.0873
17131W        W33315   1.713   2.316   2.366  0.2396 -0.1122  0.2800
17132W        W33316   9.777   6.851   2.492 -0.0408  0.0460  0.0542
17133W        W33317   3.344  12.898  13.384 -0.2849 -0.1362 -0.2264
17134W        W33318  19.281  11.149  10.251 -0.1682  0.1517  0.2933
17135W        W33319   8.279  17.319   4.987 -0.1824  0.1751  0.1221
17136W        W33320   7.461  16.111   2.069  0.0808  0.0646 -0.0741
17137W        W33321   3.534  12.896   5.096  0.1697 -0.1366  0.0866
17138W        W33322  11.034  12.841   2.062  0.4400 -0.2232  0.0176
17139W        W33323   4.418  17.729  11.584 -0.5385  0.2387 -0.1222
17140W        W33324   7.696  14.154   2.433 -0.1188 -0.0272  0.1829
17141W        W33325  14.399   6.377  11.451  0.0260  0.0204 -0.0656
17142W        W33326   3.118  17.790  14.379 -0.2744 -0.2149 -0.0770
17143W        W33327  11.968   9.204   1.712  0.1881  0.2665 -0.0159
17144W        W33328   0.951   1.716   5.052 -0.0270 -0.0264  0.1237
17145W        W33329  10.141   2.873  11.839  0.0034 -0.1073 -0.2697
17146W        W33330  18.468  13.226  14.538 -0.0755 -0.0170  0.3377
17147W        W33331  10.554  17.500   1.395 -0.2925 -0.0359 -0.1747
17148W        W33332   9.824  17.456   2.575  0.2084  0.2089 -0.1350
17149W        W33333  14.239   0.480  11.108  0.1723 -0.1111 -0.1023
17150W        W33334   1.551  13.207   1.296  0.2274  0.3199  0.3083
17151W        W33335   7.233  14.427   1.078 -0.0732 -0.0345 -0.0132
17152W        W33336  18.602   4.167  13.797  0.1249 -0.4011 -0.1166
17153W        W33337  16.225   7.445   9.526 -0.0807  0.1458 -0.0341
17154W        W33338  11.949  10.357   4.758 -0.0598  0.1710 -0.0660
17155W        W33339  13.244   3.423  13.673 -0.1170  0.1227  0.0385
17156W        W33340  13.646   5.297   4.298 -0.1583 -0.0642 -0.0409
17157W        W33341   9.499   6.468  11.580  0.2998  0.1518  0.1053
17158W        W33342   9.022   3.377   3.621 -0.1550 -0.0890 -0.1904
17159W        W33343   6.908   0.571  13.735  0.3159 -0.2416 -0.1478
17160W        W33344   5.347  15.930   3.554 -0.2908  0.1675 -0.1223
17161W        W33345   8.701  18.832   0.796 -0.0750 -0.0904  0.1904
17162W        W33346  16.626  14.437  12.863 -0.0649 -0.3449 -0.0054
17163W        W33347   9.507   7.009  10.983  0.0721 -0.1078 -0.0048
17164W        W33348   3.734   4.060  12.289  0.1234  0.0160  0.0534
17165W        W33349  14.144  12.969   4.125 -0.1082  0.4591  0.1510
17166W        W33350   8.435  16.705  11.045 -0.0698  0.2063  0.2156
17167W        W33351   2.628  11.047   3.441  0.3585 -0.5854  0.2339
17168W        W33352  10.364  16.093   3.218  0.4550  0.2455 -0.0572
17169W        W33353  14.127  13.662   1.339 -0.3062 -0.2978 -0.0888
17170W        W33354  14.394   3.249   9.017  0.0738 -0.0745 -0.0277
17171W        W33355  17.322   1.598  12.566 -0.2822  0.1811  0.0410
17172W        W33356  16.035  13.141   0.539  0.2451 -0.0103  0.1878
17173W        W33357   6.855   6.514   1.533  0.1838  0.1129 -0.0849
17174W        W33358   5.974  11.034  12.530  0.0008  0.2168  0.1511
17175W        W33359  14.792   4.650   9.895  0.0467  0.0228  0.1419
17176W        W33360  14.019  11.238   3.769  0.1630  0.0984  0.1222
17177W        W33361  10.013   6.348   5.324  0.1949 -0.1174 -0.3064
17178W        W33362   0.893   9.817  13.841 -0.2214  0.2876 -0.1138
17179W        W33363   0.652   7.068   3.714 -0.1198  0.1757  0.2633
17180W        W33364   3.971   5.003  13.761  0.1357  0.0944  0.1032
17181W        W33365  10.922   8.575  12.553 -0.0675 -0.0815 -0.0934
17182W        W33366   4.081   7.548   1.167 -0.1714  0.2729 -0.0156
17183W        W33367  17.787  11.384   5.476 -0.2801 -0.1127 -0.0431
17184W        W33368   9.099   5.762   0.897  0.3503  0.2708  0.0253
17185W        W33369   7.002   1.820  13.931 -0.0016  0.0437 -0.3806
17186W        W33370   3.970   0.362  13.415 -0.1570 -0.0374 -0.1250
17187W        W33371  12.983   3.551  13.303  0.0596 -0.0645  0.3573
17188W        W33372  16.113  17.844  10.838  0.0917 -0.3632 -0.2655
17189W        W33373   8.426   3.254  12.497 -0.0456  0.1316  0.2775
17190W        W33374   5.498  17.517   0.343 -0.2052 -0.1873 -0.2032
17191W        W33375   7.865  12.792   3.577 -0.1516  0.1911  0.3885
17192W        W33376  16.663  18.061   1.797 -0.1119  0.0769  0.2174
17193W        W33377   2.738  18.687  10.263  0.1930 -0.0350  0.0333
17194W        W33378  17.351   2.747  14.164 -0.1545  0.0849 -0.0363
17195W        W33379  15.060   7.689   0.478  0.1666 -0.3911 -0.5662
17196W        W33380  11.469  18.987  13.152  0.0234 -0.0567  0.1526
17197W        W33381  14.608  19.244  10.093 -0.1208 -0.4180 -0.3869
17198W        W33382  18.223  10.997   1.976  0.1645 -0.1078  0.0548
17199W        W33383   2.471  12.183   0.210  0.1449  0.1807 -0.2569
17200W        W33384  11.638  11.846  11.129  0.1787 -0.1101  0.2788
17201W        W33385   3.770  10.516   3.751 -0.0695 -0.0416  0.1461
17202W        W33386   6.799   2.846   1.662  0.1185  0.1606  0.1059
17203W        W33387   9.770  15.537  14.066 -0.4076  0.0961  0.2082
17204W        W33388   2.628   0.356  13.326  0.1719  0.0324 -0.0347
17205W        W33389   1.638  17.307  12.179 -0.3587  0.3402  0.0478
17206W        W33390   7.359   8.604  13.034 -0.0841 -0.1079 -0.1792
17207W        W33391   6.145  11.541   3.198  0.0638  0.0901 -0.1417
17208W        W33392   4.560  16.256  13.118  0.1443 -0.2675 -0.0863
17209W        W33393   5.028   5.645  12.521 -0.1287  0.1705 -0.2068
17210W        W33394   8.624   6.400  12.781 -0.0475  0.0565 -0.0629
17211W        W33395  15.857  16.200   4.394 -0.1085 -0.2487  0.2577
17212W        W33396  13.197  11.774  12.445 -0.2886  0.2278 -0.1538
17213W        W33397   0.487  18.797   5.544 -0.1731  0.0765 -0.0245
17214W        W33398  16.730  13.128   3.588  0.1106 -0.1491  0.1331
17215W        W33399  15.020  19.297  11.812  0.2599  0.0310  0.3424
17216W        W33400   8.720   7.931  13.370 -0.0402  0.2391 -0.0127
17217W        W33401  11.238  17.358   1.332 -0.2586  0.2037  0.1328
17218W        W33402   7.586  18.644  14.883 -0.2580  0.0792 -0.1783
17219W        W33403  15.429   3.946   9.482  0.1966 -0.0274 -0.0652
17220W        W33404  10.700  17.728  13.881  0.0204  0.0594  0.1385
17221W        W33405   1.216   9.457  13.719 -0.3718  0.0005 -0.1978
17222W        W33406   8.875   7.845   0.341 -0.0571 -0.3029  0.1569
17223W        W33407  14.266  19.147  12.390 -0.0012  0.0825  0.0196
17224W        W33408   2.208  15.365   1.747 -0.0785  0.3617 -0.0044
17225W        W33409   7.494   4.215   2.925  0.2179  0.0377 -0.2331
17226W        W33410  13.834   0.730  14.441  0.0460  0.2004  0.0087
17227W        W33411  16.008  11.035   2.662  0.2921 -0.0648  0.2041
17228W        W33412   0.970  14.837  12.979 -0.0780 -0.1176  0.3170
17229W        W33413  16.025   3.258   2.857  0.3057 -0.1219 -0.1098
17230W        W33414  13.170   4.445  10.796  0.4829 -0.0424  0.0785
17231W        W33415   7.527  15.039  13.113  0.0885  0.2576  0.1743
17232W        W33416   6.775  19.076  11.632  0.2357 -0.0676 -0.3008
17233W        W33417  11.401   6.424  13.933  0.0134 -0.1906 -0.0735
17234W        W33418  11.094  15.041   3.832 -0.3061  0.0751  0.2231
17235W        W33419   5.527  12.520   3.098 -0.1161 -0.1483  0.5093
17236W        W33420  13.276  11.032   5.904  0.3029  0.0507 -0.0861
17237W        W33421  14.027   5.411  13.222 -0.1394  0.1973  0.3185
17238W        W33422  18.393   2.341  13.506  0.4019 -0.0443 -0.0627
17239W        W33423  11.492   5.879   2.302 -0.0275 -0.2196 -0.4028
17240W        W33424  11.785  17.614   2.364  0.1769  0.1037 -0.0607
17241W        W33425   1.106   1.141   2.071  0.1219 -0.0827 -0.0816
17242W        W33426   4.892   4.860   4.244 -0.2829  0.0592 -0.2951
17243W        W33427  13.089  17.489   2.020  0.2978 -0.1548 -0.0503
17244W        W33428  14.473  15.211  12.887  0.3478  0.1642 -0.0138
17245W        W33429   9.221  13.673  12.478 -0.0614  0.3634  0.0483
17246W        W33430   8.005   5.461  14.069  0.0897  0.1815 -0.1173
17247W        W33431  11.446  12.754  11.150  0.0558 -0.3020 -0.1478
17248W        W33432   5.422   9.983   2.148  0.1169 -0.1643  0.0007
17249W        W33433  13.318  16.274   5.004 -0.2066  0.1175  0.0336
17250W        W33434   5.142   0.757   1.228  0.0645 -0.0935  0.3308
17251W        W33435  11.590   9.544   4.675 -0.1191  0.1332 -0.0491
17252W        W33436  18.846  15.147  14.086  0.1752 -0.3540 -0.0232
17253W        W33437  10.089  14.250  13.672  0.0473  0.0519 -0.2042
17254W        W33438   5.004   9.046   5.411 -0.0751 -0.1985  0.2177
17255W        W33439   8.956   2.088  10.904  0.0306  0.1058  0.2117
17256W        W33440   4.634  14.950   0.923  0.0098 -0.0191 -0.1886
17257W        W33441   4.925   2.444  13.351  0.1304 -0.2856 -0.0281
17258W        W33442   1.921   9.262  13.114 -0.3332  0.0733 -0.2080
17259W        W33443   7.587   0.133  11.222 -0.1808 -0.0507 -0.3011
17260W        W33444  11.383   5.401   2.104 -0.1836  0.1936  0.0597
17261W        W33445   4.450  16.600   4.232 -0.3218 -0.3789 -0.1203
17262W        W33446   7.458   7.718  12.121 -0.0653  0.5771 -0.2094
17263W        W33447   5.050   0.051  10.465  0.0345  0.0353 -0.2227
17264W        W33448   7.099   8.028   1.467 -0.0242 -0.0206 -0.1701
17265W        W33449  11.194   9.265   3.115  0.1984 -0.0353 -0.0062
17266W        W33450  17.226   2.202   2.094 -0.0001  0.1520  0.4663
17267W        W33451  14.112   8.970   2.053 -0.1334 -0.4926 -0.0285
17268W        W33452   1.803  17.922  14.103 -0.1554  0.1202  0.0103
17269W        W33453  18.092  12.350   3.611  0.0926  0.1544  0.0320
17270W        W33454  14.089   6.747   1.093  0.0102  0.3403  0.1634
17271W        W33455   8.119  18.486  14.270  0.0687 -0.2140 -0.3620
17272W        W33456  16.647   9.662   2.817 -0.0126  0.1486  0.0891
17273W        W33457  17.959  12.510  13.722 -0.0037  0.1016  0.3550
17274W        W33458  16.979  17.804  12.765 -0.3323  0.2013  0.1143
17275W        W33459  10.749  14.290   2.832  0.1144 -0.0393 -0.1378
17276W        W33460  15.923  17.022   2.388 -0.1823  0.1806  0.0313
17277W        W33461  17.503   3.277   2.727  0.0578  0.1528  0.1033
17278W        W33462  16.089   4.139   1.897  0.2970  0.1248 -0.1884
17279W        W33463  14.362   4.598   0.646 -0.1704  0.0935 -0.1301
17280W        W33464  11.840  17.563   2.839 -0.0393 -0.1222  0.1529
17281W        W33465  14.583  11.154   0.493  0.0290  0.2325  0.2304
17282W        W33466  10.211   5.906  11.889 -0.4103 -0.1839 -0.1371
17283W        W33467   0.514  17.577  13.649  0.5940 -0.2034 -0.0873
17284W        W33468   0.167  19.193  10.818  0.4397 -0.2230 -0.0835
17285W        W33469   1.394   4.158  10.837 -0.0524  0.0624  0.0829
17286W        W33470  15.306  11.130   3.824  0.0723 -0.2130  0.0206
17287W        W33471   6.308   1.562  11.358  0.2700  0.0977 -0.0705
17288W        W33472   4.695  12.620   1.158 -0.0890 -0.1458  0.0753
17289W        W33473   8.118  16.549   0.727 -0.0510  0.1625 -0.0265
17290W        W33474   4.780   0.295   0.484 -0.2605 -0.0525 -0.2366
17291W        W33475  12.282   4.291  13.558 -0.1363  0.1057 -0.2323
17292W        W33476   6.245  18.723   2.007 -0.0052 -0.1460 -0.1747
17293W        W33477   5.133   2.488   4.565 -0.4334 -0.3589  0.0633
17294W        W33478  12.467   1.848   1.049  0.1927  0.0079 -0.2769
17295W        W33479  18.558   9.254   2.203 -0.2282  0.1361 -0.1722
17296W        W33480  15.265  14.082   0.381 -0.1321  0.0062 -0.2876
17297W        W33481   7.330   7.999   1.986  0.1697 -0.0248 -0.0584
17298W        W33482   3.673   6.967   0.458  0.1978  0.2533  0.4620
17299W        W33483  13.160   4.263   3.364 -0.1360 -0.1152  0.1437
17300W        W33484   6.220  11.698  13.110 -0.0848 -0.0858  0.1715
17301W        W33485  18.019   6.786  11.844 -0.2301 -0.4551  0.1342
17302W        W33486  19.163  16.714   2.964  0.1177 -0.3198  0.2398
17303W        W33487   6.828   2.695  13.169  0.2537  0.0058  0.3950
17304W        W33488  15.384   8.153  14.957  0.2544  0.0726 -0.1286
17305W        W33489   6.937  17.651   4.824  0.3590  0.1034 -0.0624
17306W        W33490  10.401  16.630   0.830  0.1970 -0.0679 -0.0315
17307W        W33491  13.732   9.616   2.595 -0.1908 -0.1550 -0.2430
17308W        W33492   4.612  15.513   1.918 -0.0258 -0.2918 -0.2631
17309W        W33493   0.744  13.719   2.866 -0.0130  0.0495  0.0018
17310W        W33494  10.751   8.278   4.566  0.0470 -0.0599  0.2563
17311W        W33495  12.527   4.497  13.121 -0.0302  0.0505 -0.0236
17312W        W33496  18.794   4.820   0.080 -0.0298 -0.1286 -0.2920
17313W        W33497   9.666   8.642   0.138 -0.0236  0.2516  0.0089
17314W        W33498  14.594   7.647   4.319 -0.2449  0.0023  0.4052
17315W        W33499   6.044  12.342   3.247  0.0460  0.1356  0.1640
17316W        W33500  16.773   4.310  13.869 -0.1118 -0.0035 -0.1251
17317W        W33501  12.231  17.689   5.171 -0.2443  0.1171  0.1352
17318W        W33502  16.944  15.807   3.425  0.0278  0.3274 -0.0573
17319W        W33503  12.939   2.990   4.566 -0.0623 -0.3932 -0.2149
17320W        W33504   4.722  15.808  14.559  0.1255  0.1775 -0.1460
17321W        W33505  17.877  14.872   2.256 -0.1927 -0.1237  0.0747
17322W        W33506  14.137   0.747  12.405 -0.2486  0.1969 -0.0942
17323W        W33507  19.221   9.884  14.500  0.2366  0.0482  0.1067
17324W        W33508  17.138  12.086  13.676  0.0848 -0.1417  0.2527
17325W        W33509   1.173   3.105  14.321  0.1149 -0.0773  0.0739
17326W        W33510   8.991   6.116   3.957 -0.0539  0.0219 -0.2030
17327W        W33511   0.735   7.344  13.378 -0.0389 -0.2004  0.1154
17328W        W33512  13.089   9.247  12.275 -0.1006  0.1327 -0.1792
17329W        W33513  15.089  15.396  13.425 -0.0595  0.2222 -0.3143
17330W        W33514  15.269  13.668   5.281 -0.1388  0.3199  0.0287
17331W        W33515   8.895   1.670   4.269 -0.3379 -0.1386 -0.0343
17332W        W33516   9.520   3.444   4.866 -0.1187  0.4455  0.0139
17333W        W33517   6.469   2.440  14.441  0.0229 -0.0015 -0.1898
17334W        W33518   8.132  12.509  14.243  0.2322  0.0612  0.2005
17335W        W33519  17.652   2.544   0.520 -0.1006 -0.3285  0.1492
17336W        W33520   2.010  16.064  11.575  0.2227  0.1570  0.0222
17337W        W33521  18.059  15.934  12.218  0.0728  0.2620 -0.0911
17338W        W33522  10.892   7.910   4.071 -0.3387 -0.0792  0.0460
17339W        W33523  16.093   3.382   3.897  0.1249 -0.3021 -0.2628
17340W        W33524   4.352  16.831   2.851 -0.0321  0.2795  0.1605
17341W        W33525   9.637  13.210   2.018 -0.0147 -0.4562  0.1084
17342W        W33526   4.693  19.293  10.112  0.1611 -0.2798 -0.0761
17343W        W33527   0.689  16.352  10.020  0.0854 -0.4029  0.1498
17344W        W33528  12.686   3.513   0.851 -0.3926 -0.3569 -0.2656
17345W        W33529   0.588  12.064   0.210 -0.1210  0.2138  0.0858
17346W        W33530   8.348  15.243  12.673  0.0277 -0.0032  0.0386
17347W        W33531  14.508  10.907  14.983  0.1714  0.1514  0.0395
17348W        W33532  14.599   7.799   1.037  0.0401 -0.3320 -0.2242
17349W        W33533   5.900   5.277  13.874 -0.1443 -0.1034 -0.3018
17350W        W33534  16.393   3.747   2.358  0.1441 -0.5331  0.1874
17351W        W33535  14.246  13.063   4.683 -0.6087  0.1234  0.1124
17352W        W33536  15.703  12.828   4.956  0.2304 -0.1401 -0.1468
17353W        W33537   3.231  11.244  11.428  0.0939 -0.0360 -0.1400
17354W        W33538  16.491   3.520   0.015 -0.0834  0.0672  0.0625
17355W        W33539  11.591  17.666  12.003 -0.3894  0.2275 -0.0031
17356W        W33540  16.718  10.930  11.935  0.1973  0.0342 -0.0185
17357W        W33541  14.166  13.460   0.878 -0.5166 -0.1405  0.2780
17358W        W33542   9.025   6.733  14.671  0.2244  0.1651  0.1269
17359W        W33543  11.355   9.187  11.873 -0.0100 -0.1695  0.3026
17360W        W33544  15.754  18.238  12.448 -0.1273 -0.0867  0.0786
17361W        W33545   6.682  13.848  10.779 -0.2539  0.2734  0.3374
17362W        W33546   9.021  19.194   5.325 -0.2256  0.0121  0.0959
17363W        W33547  12.143   8.090  13.557 -0.1242  0.0278 -0.0733
17364W        W33548   2.121   1.131  13.630  0.1041  0.2022  0.4091
17365W        W33549   6.119   1.881  10.654  0.0512 -0.0232  0.0854
17366W        W33550   0.964   3.740   1.578  0.0957 -0.3014 -0.1963
17367W        W33551   4.851  17.315  14.310 -0.1562 -0.0818  0.3316
17368W        W33552   2.596  15.147   1.853  0.1324  0.1168  0.1020
17369W        W33553  16.032  10.746   2.094 -0.5147 -0.1542  0.0340
17370W        W33554   1.424  13.475   3.981  0.0799 -0.0891 -0.1652
17371W        W33555  19.066   9.277   1.174 -0.0210  0.1437 -0.1191
17372W        W33556   1.928  13.056  14.757 -0.3293  0.0018 -0.0176
17373W        W33557  17.570   1.831   1.928 -0.0053  0.1131  0.3374
17374W        W33558   5.855  12.389   2.751  0.2611  0.3745  0.1002
17375W        W33559  11.511  13.005   2.160 -0.0399  0.1222  0.1179
17376W        W33560  13.224  16.696  10.888 -0.1499  0.2765  0.1040
17377W        W33561  10.656   8.698  12.976  0.1363  0.4148  0.0887
17378W        W33562   0.887   7.826  13.558 -0.0724 -0.0776 -0.0993
17379W        W33563  18.130   7.101  10.195  0.1555  0.3332  0.0219
17380W        W33564   4.585   4.303  13.145 -0.1557  0.1241 -0.1301
17381W        W33565   5.109  10.510   5.088 -0.0227 -0.3648  0.1916
17382W        W33566  18.003  10.792   1.476 -0.0386  0.3736 -0.0764
17383W        W33567  10.058  11.365   1.361  0.1002 -0.0413 -0.1890
17384W        W33568  11.269   7.327  10.281 -0.3114 -0.0208 -0.0972
17385W        W33569  18.871  11.685   2.105  0.0869 -0.1740  0.0375
17386W        W33570   0.424   9.636   4.698  0.1379  0.5627  0.2068
17387W        W33571  14.498  17.495  12.656 -0.1979 -0.3007 -0.1011
17388W        W33572   1.051   1.295  14.543 -0.0351  0.2242 -0.0959
17389W        W33573  14.936  13.143  11.760 -0.0156 -0.0075 -0.1053
17390W        W33574   4.395  11.436   4.553  0.0337 -0.1713  0.2186
17391W        W33575  16.454   1.082  11.215  0.1840 -0.3847 -0.2114
17392W        W33576  15.612  15.150  12.645 -0.0731 -0.0392 -0.3567
17393W        W33577  17.581   1.121   3.027 -0.0030  0.1451  0.1163
17394W        W33578   5.854   6.564   2.600 -0.2437  0.0476 -0.0429
17395W        W33579   4.623  18.993   1.857  0.2611  0.2115  0.3027
17396W        W33580   3.848   0.005   1.670  0.3161 -0.0853 -0.0689
17397W        W33581   8.293  10.009   2.337 -0.1151  0.1186 -0.1551
17398W        W33582  11.949  14.223   4.027  0.2791  0.1330 -0.2929
17399W        W33583   3.195  11.462  10.397  0.0257  0.0922  0.1693
17400W        W33584   2.388  18.099   3.462  0.0507  0.0117  0.1527
17401W        W33585   4.676   0.955   2.485  0.0086 -0.1414 -0.1916
17402W        W33586   6.139  15.093   2.947  0.0526 -0.5286  0.0031
17403W        W33587   2.059  15.705  11.838  0.0650  0.1602 -0.0715
17404W        W33588  17.565   5.778   3.731 -0.5272  0.1213 -0.0162
17405W        W33589  17.407   5.180  12.763  0.1094 -0.0248 -0.1278
17406W        W33590   3.092  11.811   4.422 -0.0925  0.0934 -0.1050
17407W        W33591   4.519   7.306  11.308  0.2910 -0.3110 -0.0500
17408W        W33592   7.679  16.529   0.438 -0.0329 -0.1513  0.0511
17409W        W33593   9.636  18.402  10.348 -0.0761  0.0269  0.0585
17410W        W33594  12.346   8.297   3.182 -0.4738 -0.2873 -0.0046
17411W        W33595   9.925  14.690   1.523 -0.0955 -0.2227  0.2912
17412W        W33596  16.099   5.334  10.534  0.1150 -0.0846  0.1315
17413W        W33597  17.259  18.541   0.595 -0.0566 -0.0728 -0.3107
17414W        W33598   4.603   1.486   2.282 -0.0620  0.0904  0.1915
17415W        W33599  17.188   6.115  10.014 -0.0375  0.1719 -0.2571
17416W        W33600  12.058  16.392   1.978 -0.0691 -0.1677  0.0165
17417W        W33601   0.280  13.244   5.291  0.3076 -0.1623  0.2557
17418W        W33602   2.716   8.768  14.291 -0.0125 -0.2028 -0.2173
17419W        W33603  12.203  13.492   2.152  0.0887  0.0351 -0.4868
17420W        W33604  13.041   4.264  11.631  0.1431  0.2151 -0.1438
17421W        W33605   4.334  14.499   4.926  0.0029 -0.1530 -0.0136
17422W        W33606  13.485  14.934   4.675 -0.3227 -0.2320  0.2396
17423W        W33607   9.141   6.872  10.513 -0.0840 -0.0694  0.2802
17424W        W33608  10.942   9.198   2.541  0.2898 -0.0930 -0.0978
17425W        W33609   8.667  18.138   0.331 -0.0940  0.1056 -0.0724
17426W        W33610  11.329   9.354  13.110 -0.0059 -0.0197  0.0943
17427W        W33611  11.833  11.284  10.790 -0.3090  0.3790 -0.0777
17428W        W33612   3.904   0.276   5.311  0.0126 -0.0422 -0.1234
17429W        W33613   4.630  19.199  13.088  0.1296  0.1360 -0.1282
17430W        W33614  19.166   3.373   2.997  0.2924  0.0244  0.0247
17431W        W33615  10.093  10.816   0.482 -0.0088 -0.0431  0.1130
17432W        W33616  13.901   2.599  14.372  0.4207  0.1927  0.2818
17433W        W33617   9.029  12.027  14.890  0.2172  0.0086 -0.1860
17434W        W33618  11.482  10.616  11.153  0.0414  0.0851  0.2692
17435W        W33619   6.511   3.557  12.785  0.1141 -0.3787  0.2694
17436W        W33620  11.502  14.111   2.735 -0.3210 -0.0403 -0.1250
17437W        W33621   6.403  11.949  11.145 -0.2775  0.1197 -0.0843
17438W        W33622   9.391  18.090   0.827  0.0298 -0.3087 -0.2561
17439W        W33623  17.609   2.971   3.379 -0.0459  0.3030  0.2797
17440W        W33624  16.177   5.564  11.868  0.3017  0.0633  0.0856
17441W        W33625   9.280  11.995  10.862 -0.1637  0.0337  0.0200
17442W        W33626  10.035  10.396   2.211 -0.2515  0.1803 -0.0207
17443W        W33627   5.244   2.888   2.803 -0.0018 -0.2981 -0.0414
17444W        W33628  17.330  16.928  12.692  0.0592 -0.3145  0.0415
17445W        W33629   6.603  12.266   5.021 -0.2575 -0.3839  0.1924
17446W        W33630  17.865  14.052  13.118 -0.0324  0.0299  0.0423
17447W        W33631  13.061  10.554  11.416 -0.0051  0.1026 -0.1273
17448W        W33632   9.435   7.362   2.960 -0.3406 -0.1998 -0.0515
17449W        W33633   6.304  11.752   5.390 -0.0205  0.0265  0.2104
17450W        W33634  12.560  18.869   1.987 -0.3438  0.1496  0.2383
17451W        W33635   8.269   7.157   2.939 -0.3238  0.3860 -0.3837
17452W        W33636   2.245   8.642  12.445 -0.0679  0.1580 -0.0189
17453W        W33637   9.417   8.195  14.234  0.2485 -0.3616 -0.1605
17454W        W33638  15.696  17.179  12.459  0.2502  0.0370 -0.1377
17455W        W33639   5.404  12.554   5.052  0.0375 -0.1227 -0.3177
17456W        W33640   8.724   8.377   5.389 -0.0138 -0.0046 -0.0338
17457W        W33641   5.706  17.320  11.248  0.2026 -0.1005  0.0769
17458W        W33642   9.527   6.874   3.934  0.1022  0.0184  0.1192
17459W        W33643  10.056   9.594   1.604 -0.1789 -0.0768 -0.1147
17460W        W33644  13.474  12.862  12.971 -0.1142 -0.0637 -0.0999
17461W        W33645  12.962  18.590  11.831 -0.0735  0.0638  0.2138
17462W        W33646   7.370   6.638  11.664 -0.2702  0.1065 -0.1950
17463W        W33647  14.324   6.189   5.287  0.2555  0.0157 -0.0836
17464W        W33648  15.949   6.959   3.497 -0.2815 -0.3117 -0.2653
17465W        W33649   3.754  12.066  12.984  0.1138  0.4494 -0.1717
17466W        W33650   1.085  17.758   0.304 -0.0235  0.2338  0.2729
17467W        W33651  16.120  13.198  13.148 -0.1448 -0.0749  0.2320
17468W        W33652  10.720   9.017   5.032 -0.2118 -0.2281 -0.0623
17469W        W33653  12.780   7.841   0.382 -0.3339 -0.1726  0.1039
17470W        W33654   4.416  13.723   2.707  0.2496 -0.0013  0.2021
17471W        W33655  18.501   5.729   2.686 -0.0615 -0.0173 -0.0385
17472W        W33656  14.212  13.685   2.307  0.0699  0.3151  0.1174
17473W        W33657   8.991   0.264  13.143 -0.0761  0.3172 -0.0197
17474W        W33658   9.086  12.851  12.943 -0.0801 -0.0785  0.0007
17475W        W33659  13.891  14.388  13.221  0.1129 -0.1147  0.2166
17476W        W33660  16.288   9.272   4.047 -0.1912 -0.0714  0.1470
17477W        W33661   7.942   7.321  10.525  0.0054  0.1579 -0.1433
17478W        W33662  14.483   5.320  11.967  0.0683 -0.2455 -0.3184
17479W        W33663  15.785  13.036   2.528 -0.1272 -0.0972  0.1229
17480W        W33664  13.549  15.893  11.329 -0.1372 -0.2006 -0.2235
17481W        W33665  12.058  11.978   9.843  0.0804  0.0338  0.2344
17482W        W33666   5.476  10.359   3.153 -0.2400  0.2757  0.1836
17483W        W33667   1.362   7.682  10.507  0.0320  0.1996  0.0533
17484W        W33668  11.338   1.785   3.987 -0.1482  0.2204 -0.0139
17485W        W33669   1.092  19.101   0.363 -0.0570  0.0507 -0.0997
17486W        W33670   5.183  17.140   5.362  0.2077 -0.0627 -0.2833
17487W        W33671   7.851  19.076  14.687  0.2836 -0.0871  0.2620
17488W        W33672   6.603  18.256  12.502  0.0899  0.2356  0.0934
17489W        W33673   5.194   0.413   3.061 -0.0568  0.0594  0.1799
17490W        W33674   7.628  18.982   3.082 -0.2001 -0.0576 -0.0393
17491W        W33675  16.861  16.152   1.825 -0.2241 -0.0861 -0.0161
17492W        W33676   1.183  14.609   1.633  0.0064 -0.0887 -0.0912
17493W        W33677  19.267   1.625   0.389 -0.0306 -0.2761 -0.2431
17494W        W33678  17.046  17.152  14.482 -0.1468  0.0773 -0.3459
17495W        W33679   6.037  15.978  11.212 -0.1107 -0.3034  0.4059
17496W        W33680   9.759   6.150  10.281 -0.2183 -0.1550 -0.1024
17497W        W33681   7.376   8.916  10.616  0.2236 -0.3295 -0.5165
17498W        W33682  12.601   9.976   1.839 -0.0542 -0.0834 -0.1350
17499W        W33683   0.818   9.388  10.694 -0.0100  0.0656  0.2220
17500W        W33684  17.886   1.625  12.750 -0.2620  0.1666  0.0087
17501W        W33685   7.633   1.782   1.639  0.0933  0.1704 -0.0265
17502W        W33686   0.300   3.791   4.138 -0.3022 -0.0480 -0.2262
17503W        W33687  10.690  14.321  12.121  0.0184 -0.0959 -0.2712
17504W        W33688  14.562  15.321   3.064 -0.0347  0.0470 -0.0912
17505W        W33689   9.317  18.846   2.268 -0.2551  0.3408  0.1950
17506W        W33690  15.050  14.757   4.146 -0.0573 -0.0704  0.1875
17507W        W33691   5.701   9.443  11.305 -0.0737 -0.2447  0.3252
17508W        W33692   9.257  12.846  10.281 -0.3495 -0.1001 -0.3634
17509W        W33693   8.186   9.214  11.666  0.2231  0.0254  0.0261
17510W        W33694   8.528  11.866   0.719 -0.0275  0.0527 -0.1497
17511W        W33695   2.984   4.623   1.114  0.0543  0.2095  0.0484
17512W        W33696  11.518   7.602  11.038  0.0108  0.3507 -0.1709
17513W        W33697   3.911  12.121  11.840 -0.1563  0.0422 -0.2005
17514W        W33698  16.691  14.623   1.483  0.2572  0.0525  0.2042
17515W        W33699  11.563   5.436  13.949  0.4692 -0.0759  0.1698
17516W        W33700   2.489   3.063  14.520 -0.2144  0.1301  0.3922
17517W        W33701  15.990  15.685   0.226  0.0004  0.0252  0.1956
17518W        W33702   9.661  11.067  12.738 -0.0360 -0.0287 -0.0189
17519W        W33703  15.931  10.892  13.906 -0.1905 -0.3683  0.0421
17520W        W33704  16.669   0.211   3.904  0.1298  0.2270 -0.0629
17521W        W33705   6.302   9.848   2.172  0.1556  0.0765 -0.0684
17522W        W33706  10.486  11.508  13.910  0.0099  0.0913 -0.2476
17523W        W33707  15.654   7.616   9.987  0.1033  0.2634  0.3000
17524W        W33708  16.700   9.586   4.692  0.0641 -0.3594  0.1167
17525W        W33709  14.794  16.096  13.589  0.1372 -0.1070  0.4076
17526W        W33710   4.487  13.162   4.978  0.0340  0.1118  0.0241
17527W        W33711  18.285  18.083   0.360  0.0469 -0.1008 -0.1334
17528W        W33712  17.136  11.217  11.143  0.1484  0.1352  0.3560
17529W        W33713  15.575   6.111  14.156  0.0313 -0.1865  0.1110
17530W        W33714  10.520   0.601   5.050 -0.0197  0.1267  0.4366
17531W        W33715  14.779   9.113   2.793  0.3068  0.3325  0.2268
17532W        W33716  17.373   9.725  14.088 -0.0294 -0.0326 -0.3063
17533W        W33717  18.396  16.503   3.824  0.0972  0.0902 -0.1734
17534W        W33718   2.909  10.768   2.636 -0.1026 -0.3780  0.1698
17535W        W33719  19.268  13.344   1.884  0.0569  0.1106 -0.0675
17536W        W33720   2.255  19.003   5.783 -0.0742  0.1456 -0.0460
17537W        W33721   6.189  17.426  14.793 -0.1752 -0.0271  0.0132
17538W        W33722   2.959   8.382   4.836 -0.5424 -0.1014  0.3090
17539W        W33723  13.043   9.030   2.278 -0.3650 -0.0732  0.2969
17540W        W33724   9.112   2.688  11.677 -0.0744  0.0747  0.2811
17541W        W33725  17.428  18.237  14.354  0.0217  0.0501 -0.2732
17542W        W33726   8.410  10.176  11.905  0.0496  0.3320 -0.0010
17543W        W33727  19.011  14.155   2.095 -0.1384  0.1520 -0.2261
17544W        W33728  11.324  14.367  13.067 -0.0574  0.1865  0.0698
17545W        W33729   0.418   0.162   2.002 -0.1969 -0.1607  0.0709
17546W        W33730   6.167   3.279   1.651 -0.0102 -0.1552 -0.0930
17547W        W33731   3.840   1.456   5.707  0.0499  0.2251  0.0657
17548W        W33732   1.263  13.787  14.438 -0.2386 -0.3487 -0.3155
17549W        W33733   0.137  13.672   3.275 -0.1275  0.0047 -0.0021
17550W        W33734  17.875   5.543   3.096 -0.0922  0.2119 -0.1545
17551W        W33735  13.484  13.403  10.471 -0.1298 -0.0657 -0.2297
17552W        W33736   6.780  14.297   0.874 -0.1532 -0.3590  0.0192
17553W        W33737  14.655   8.900  14.621  0.0697 -0.2681  0.0052
17554W        W33738   9.220  14.075   0.208 -0.0811  0.1037 -0.3371
17555W        W33739   4.079  10.218  13.367  0.0127 -0.3205  0.0391
17556W        W33740   8.623   0.179  10.811  0.2049  0.3497  0.3158
17557W        W33741  15.887   5.500  14.801  0.3367 -0.2148 -0.1925
17558W        W33742   0.057   7.425  13.638  0.0442  0.2306 -0.0756
17559W        W33743  10.254   0.669  12.883 -0.1431  0.0526 -0.1143
17560W        W33744  16.005  10.484  13.040 -0.1858 -0.3384 -0.0841
17561W        W33745  16.573  11.070  14.467  0.0774  0.0151 -0.1934
17562W        W33746  11.687  18.809   4.117  0.3818 -0.2338  0.5603
17563W        W33747   3.170   2.684  10.406 -0.1008 -0.2515 -0.1023
17564W        W33748  16.301   5.356  14.537 -0.2084  0.1647  0.0446
17565W        W33749  14.354   9.840   3.473  0.0565 -0.2501 -0.0644
17566W        W33750  17.290  14.439   3.145 -0.0996 -0.0841  0.2080
17567W        W33751  10.746   0.464  12.929 -0.0725  0.0193  0.1257
17568W        W33752  13.746   3.204   2.817 -0.1184 -0.1975 -0.2743
17569W        W33753  15.543   4.752   9.955 -0.0764  0.0495 -0.3207
17570W        W33754   2.996   7.059  12.776  0.0467 -0.2719 -0.4154
17571W        W33755  10.419   5.620  12.808 -0.1430  0.0409  0.0686
17572W        W33756  11.455  12.267  11.394  0.2264 -0.2645 -0.1352
17573W        W33757   1.604   1.992   0.642 -0.3753  0.1679  0.2042
17574W        W33758  12.019  11.284   4.931  0.0473  0.1795  0.0677
17575W        W33759   0.479   7.490  11.865 -0.0895  0.0068  0.0697
17576W        W33760  10.803   5.497  11.380 -0.0212 -0.3761  0.0055
17577W        W33761   7.095  13.283   4.407 -0.0557 -0.1447  0.1004
17578W        W33762  13.347  10.941   0.932 -0.0671 -0.0785  0.2155
17579W        W33763  12.600   9.114   4.607 -0.1306  0.1523 -0.2171
17580W        W33764   3.360  16.302   0.020 -0.2277  0.1329 -0.3394
17581W        W33765  18.960   7.727   4.426 -0.0987  0.3316  0.0478
17582W        W33766   1.498   7.548   1.118  0.1001 -0.1734  0.0715
17583W        W33767  10.109  15.268   2.361 -0.3875 -0.0843 -0.3710
17584W        W33768  16.436  16.243  12.647  0.0430  0.0139  0.1639
17585W        W33769   6.565  14.659   2.877  0.2104 -0.0990 -0.1504
17586W        W33770  19.087  18.480   0.609 -0.1703  0.4192 -0.0175
17587W        W33771   4.988  16.915   3.361 -0.0864  0.0710 -0.1688
17588W        W33772   7.077   8.034  10.956  0.0056 -0.1233  0.1487
17589W        W33773   0.169  10.239   0.843 -0.0584  0.0625 -0.2231
17590W        W33774   7.302   7.853   0.933 -0.2872 -0.2903  0.1978
17591W        W33775   9.768   9.081  13.412  0.1048  0.1708  0.1261
17592W        W33776   9.620   1.155  12.192  0.1494 -0.1802  0.0776
17593W        W33777  18.360   7.804   4.487  0.0506 -0.2913  0.2976
17594W        W33778  14.897   8.599   1.940 -0.1173  0.0753  0.3373
17595W        W33779  14.527  11.771  11.408  0.0882  0.1017 -0.2135
17596W        W33780  15.792   7.722  11.703  0.1812  0.1303 -0.2329
17597W        W33781   5.161  17.373   1.347 -0.1284 -0.0683 -0.2868
17598W        W33782   6.454   3.998  12.520  0.1316  0.0184 -0.3407
17599W        W33783   1.438   4.122   3.491  0.3402 -0.1907 -0.1773
17600W        W33784  15.429   9.181  12.328 -0.1979 -0.3509 -0.1159
17601W        W33785  14.672  14.974   2.405  0.2149 -0.0893  0.3282
17602W        W33786  13.623   0.270  11.639 -0.1774 -0.1875  0.0188
17603W        W33787   0.432  14.591   2.266  0.2214 -0.2401 -0.2694
17604W        W33788   1.674  11.130  14.484 -0.0640 -0.1975 -0.1863
17605W        W33789  12.038   8.453  11.788 -0.0182  0.0604 -0.2809
17606W        W33790   7.479  10.719  12.907  0.0471 -0.0617 -0.1223
17607W        W33791  13.994   1.986  14.974 -0.0035 -0.0667  0.2644
17608W        W33792   9.589  11.569  10.713  0.3305 -0.2483 -0.3399
17609W        W33793   8.567  10.647   0.117 -0.2932 -0.0349 -0.0973
17610W        W33794   7.574  12.022  14.596  0.1565 -0.0395 -0.3359
17611W        W33795   5.147   4.981  14.485 -0.3527  0.0703  0.1049
17612W        W33796   0.889   4.867  11.022 -0.0064  0.0658 -0.0392
17613W        W33797  13.644  15.416  13.224  0.0646 -0.1356 -0.2006
17614W        W33798  18.324   3.640  11.631  0.0636  0.0619  0.3977
17615W        W33799  15.320   5.404   1.499  0.0426 -0.1160  0.0080
17616W        W33800   4.132  16.720  13.770  0.2149  0.1711  0.1426
17617W        W33801  11.452  17.453  13.970  0.2414 -0.0591  0.1374
17618W        W33802   2.450  14.556  10.402  0.0294  0.0613 -0.1012
17619W        W33803   1.758  11.877  14.037  0.1481  0.2647  0.0916
17620W        W33804  15.866   9.466   0.198  0.0479 -0.2237 -0.2653
17621W        W33805  12.489   8.361  14.573 -0.1926 -0.2213  0.2624
17622W        W33806  17.422  14.426   3.939  0.0494  0.0607  0.0519
17623W        W33807  16.861   4.811   2.133 -0.0018 -0.1096  0.0566
17624W        W33808  13.635  17.057   1.358 -0.1360 -0.0878 -0.0917
17625W        W33809  11.278  14.563   1.810  0.2109  0.1689 -0.0516
17626W        W33810  15.235  12.413   1.561 -0.1001  0.3146  0.2754
17627W        W33811   8.823  13.416   0.769 -0.0187  0.0767  0.3983
17628W        W33812   8.506   2.046   3.892 -0.1642  0.0818  0.2759
17629W        W33813   0.298  19.182   0.369 -0.0074  0.2224  0.0017
17630W        W33814  13.287  14.490  11.253 -0.6001 -0.3039  0.0909
17631W        W33815  16.943   8.679   4.391 -0.4545  0.3521  0.1440
17632W        W33816  15.144   2.225  12.269  0.1322 -0.1445 -0.0520
17633W        W33817  16.762   1.390   1.007  0.0592 -0.1185  0.0281
17634W        W33818  18.149  19.244  11.748  0.1493 -0.3661 -0.3365
17635W        W33819   6.268  10.658   3.166 -0.0221 -0.2473 -0.2356
17636W        W33820  11.097   5.061  10.302 -0.2049  0.2348  0.2584
17637W        W33821   0.051   4.663   0.287  0.5532  0.1369  0.0404
17638W        W33822  14.674  17.829  10.424  0.1978 -0.1666 -0.0500
17639W        W33823  14.332  12.461   2.478 -0.1070  0.0951 -0.0649
17640W        W33824   8.680   1.017  11.166  0.0214 -0.0053  0.0626
17641W        W33825   9.565  13.924  13.050 -0.0960  0.4367  0.0214
17642W        W33826   8.678   5.961  10.795 -0.2159 -0.4266  0.0073
17643W        W33827   4.825  12.297   1.606  0.1752 -0.0184 -0.0542
17644W        W33828  12.901   1.724  11.668 -0.2556 -0.1945 -0.0010
17645W        W33829   8.297  19.161  13.579 -0.0481  0.0025 -0.4929
17646W        W33830  14.158  13.779  14.723 -0.0162 -0.1511  0.1972
17647W        W33831   7.909   1.054  13.174  0.0524 -0.1372  0.3029
17648W        W33832   3.985   2.253  13.942  0.0403 -0.1141  0.1018
17649W        W33833   6.043   5.437  10.907  0.0746 -0.3175  0.1215
17650W        W33834   4.581  19.112   4.268  0.1082 -0.2378  0.1713
17651W        W33835  16.595  16.975   5.689 -0.3371 -0.0278  0.0640
17652W        W33836   0.365  10.496  12.953  0.1641  0.0836  0.0450
17653W        W33837   8.052  14.672   0.522  0.1983 -0.1770  0.0075
17654W        W33838   7.365   9.498   4.030  0.0509 -0.0471 -0.6068
17655W        W33839  11.395  15.394   3.852  0.0172 -0.1027  0.0312
17656W        W33840  17.437  11.559   2.391 -0.4492  0.2503 -0.3083
17657W        W33841   5.462  14.893   1.049  0.3731 -0.1440  0.0254
17658W        W33842   4.386  18.245   4.994  0.1431 -0.3474 -0.3192
17659W        W33843  12.530   6.111  10.854  0.1925 -0.1109  0.1434
17660W        W33844   2.314  10.413  11.033  0.2623  0.1068  0.2758
17661W        W33845  12.208   2.368   1.605 -0.2024  0.1863  0.1460
17662W        W33846  12.458   1.283   3.123  0.0295 -0.2113  0.2396
17663W        W33847  16.118  15.960   2.622  0.3022 -0.3943 -0.2438
17664W        W33848   2.306   6.987   0.983  0.3162 -0.3755 -0.1022
17665W        W33849   3.212   5.942  11.076  0.0897 -0.1033 -0.1048
17666W        W33850  17.348  16.596   5.085 -0.1859  0.2662 -0.0498
17667W        W33851  10.031  18.100   3.973  0.2552  0.0526 -0.0550
17668W        W33852  17.811  16.583   2.218 -0.0683  0.2182 -0.2024
17669W        W33853  18.715  13.672   5.726  0.1730 -0.0879 -0.3068
17670W        W33854   5.968  17.635   1.027 -0.0467  0.0001 -0.0967
17671W        W33855  15.091   3.013   9.728  0.1039  0.0403 -0.3310
17672W        W33856  13.302   5.032   3.419  0.0151 -0.0063  0.4140
17673W        W33857   1.417  12.997   0.792 -0.2940 -0.1280 -0.1084
17674W        W33858  11.087   8.551  14.510  0.1840 -0.1514 -0.1116
17675W        W33859   9.603   3.026   4.528  0.1984  0.1672 -0.0362
17676W        W33860   6.627  18.150  14.202  0.0871 -0.2032 -0.3134
17677W        W33861  12.118  15.969   3.905  0.4085 -0.2068 -0.2492
17678W        W33862  11.814   4.918  14.897 -0.0190 -0.1500 -0.1524
17679W        W33863   3.652  14.932   3.837  0.2586 -0.0243 -0.2540
17680W        W33864  14.516  16.746   3.156  0.1608  0.0000  0.0476
17681W        W33865   2.684  17.623  12.106  0.2687 -0.3177 -0.0504
17682W        W33866   3.015  12.020  12.216  0.1948 -0.0768 -0.1618
17683W        W33867   2.435  12.790   3.891  0.0536  0.0367 -0.1709
17684W        W33868  11.025   7.803  10.825 -0.0202 -0.0449  0.0768
17685W        W33869   5.995  11.007  13.640 -0.2484 -0.0441  0.1436
17686W        W33870   5.048  16.910   4.250 -0.0584 -0.2061  0.1929
17687W        W33871  18.349   9.668   2.488  0.3451  0.2048 -0.3527
17688W        W33872  10.657   4.324   3.759 -0.1460  0.0463 -0.1535
17689W        W33873   5.279  12.754  13.914  0.0292 -0.0512  0.1453
17690W        W33874  17.659   7.883   1.724  0.1065  0.0902 -0.0361
17691W        W33875   3.618  13.830   3.372  0.1020 -0.2129 -0.2465
17692W        W33876   5.408   8.209  11.912 -0.0851  0.0549  0.0896
17693W        W33877  15.263  16.941  12.328 -0.2040  0.1842 -0.2466
17694W        W33878   3.363   4.347   0.858 -0.0765 -0.0634  0.0719
17695W        W33879  13.226  12.745   0.128  0.0493 -0.2509 -0.3113
17696W        W33880   0.294   5.128   2.456  0.2924 -0.0446  0.0895
17697W        W33881  16.537   7.698  10.782  0.0072 -0.4409 -0.1268
17698W        W33882   6.010  13.188   2.437 -0.0774  0.1216  0.1028
17699W        W33883  17.035  13.614   4.546 -0.0301  0.5368  0.0782
17700W        W33884   9.681   4.363   2.801 -0.1293 -0.1334  0.1200
17701W        W33885  13.934  12.111  13.971  0.1302 -0.2269  0.2449
17702W        W33886   8.548  16.677   3.180 -0.3892 -0.0515 -0.1948
17703W        W33887  11.257  10.261  13.169  0.0360  0.0941  0.2895
17704W        W33888   2.139  12.645   0.282 -0.0532  0.0457 -0.3157
17705W        W33889   9.426  17.712   2.868 -0.2472  0.0301 -0.1717
17706W        W33890   2.313   3.953   3.986  0.0782  0.2071  0.0579
17707W        W33891   5.118   4.260  13.604  0.3591  0.2275  0.2807
17708W        W33892  19.359  17.379  14.892  0.1414 -0.0909 -0.0487
17709W        W33893  18.163  16.284  10.805 -0.3019 -0.1496  0.0370
17710W        W33894   0.142   7.627   1.038  0.0808  0.1550  0.2447
17711W        W33895  18.939  12.537   2.281  0.1723 -0.0097 -0.3336
17712W        W33896  12.953   1.353  12.010  0.2276 -0.2943 -0.4589
17713W        W33897  12.923   4.146  10.430  0.3773 -0.0554 -0.0047
17714W        W33898   4.299  11.273  12.827  0.0256 -0.1360  0.0771
17715W        W33899  15.789  16.490  11.903 -0.3772  0.0195 -0.3662
17716W        W33900  18.740  11.333  12.346  0.1209 -0.3539  0.0634
17717W        W33901  19.144   6.913  10.783  0.4102  0.0542  0.0478
17718W        W33902  10.148   6.153   1.640 -0.4394 -0.0596 -0.3397
17719W        W33903   5.352   6.352   5.461 -0.1719  0.0937 -0.1613
17720W        W33904   3.114   3.054   5.114 -0.1972  0.0799  0.0438
17721W        W33905  11.547   0.271   1.148  0.2075  0.0762 -0.5487
17722W        W33906   9.619  10.223  11.007 -0.1669  0.1544 -0.0938
17723W        W33907  10.188   1.558  14.299 -0.1657  0.2076  0.0510
17724W        W33908   8.117  10.926   3.506 -0.1961  0.2472  0.0883
17725W        W33909  17.876  18.016  10.550  0.1133 -0.4314  0.1093
17726W        W33910   3.658   9.853  11.966 -0.0127  0.2020  0.2353
17727W        W33911   9.121  10.199   0.430 -0.0352 -0.0893 -0.2215
17728W        W33912   1.867  12.792   0.711  0.1438 -0.0822 -0.1041
17729W        W33913   7.278   4.561  14.462 -0.2888 -0.1585 -0.4615
17730W        W33914   9.589  12.972  14.147 -0.0256  0.2732  0.2572
17731W        W33915   8.056  13.576   4.816 -0.2353  0.1723 -0.0848
17732W        W33916   9.447  15.327   1.574 -0.0331 -0.0814  0.2193
17733W        W33917   0.882  17.519  14.809  0.1443  0.0442  0.0279
17734W        W33918  17.072  17.095  11.405  0.0553 -0.0971  0.1582
17735W        W33919   8.610  17.849   0.788  0.0253 -0.1529  0.2427
17736W        W33920   4.459   1.435  13.948 -0.1121 -0.3671 -0.0185
17737W        W33921   4.998  12.262  13.812 -0.1381  0.0806  0.1238
17738W        W33922   0.640  14.532  11.969  0.2226 -0.3702 -0.1805
17739W        W33923  11.733   3.866   4.480  0.1788 -0.2083 -0.1226
17740W        W33924  16.029   6.827  14.610  0.0223 -0.0896 -0.0767
17741W        W33925   0.859  12.663  11.809  0.0254  0.1114 -0.2869
17742W        W33926   8.272   5.648  10.529  0.0924 -0.3365 -0.1074
17743W        W33927  19.107  14.719   3.357 -0.1425  0.0759 -0.5500
17744W        W33928   4.124   0.455   3.159  0.0513 -0.0829  0.0354
17745W        W33929  12.876  10.849  12.759  0.1158  0.0236 -0.1280
17746W        W33930   3.741   1.822   3.561 -0.2029 -0.1166  0.1495
17747W        W33931   9.994   9.029   2.196  0.0086 -0.1178  0.0557
17748W        W33932   8.821  18.741   0.266  0.1134 -0.1413  0.2150
17749W        W33933  14.397  15.099   3.509 -0.3383 -0.3101  0.0063
17750W        W33934   9.832  13.351  12.730 -0.0773 -0.1597 -0.1247
17751W        W33935   5.086  14.998  11.060  0.0575 -0.0827 -0.3041
17752W        W33936  13.866   2.205  12.096 -0.0984  0.0293  0.1881
17753W        W33937   3.338  13.870   4.165  0.0784 -0.2999  0.1456
17754W        W33938   7.211  12.079   1.143 -0.0627  0.2916  0.1625
17755W        W33939   5.432  18.841   9.958  0.1346 -0.0244  0.1153
17756W        W33940   5.247   5.181  13.853 -0.2142  0.0253  0.0883
17757W        W33941  10.561   9.793   1.823 -0.2911 -0.0716 -0.1955
17758W        W33942   6.079   2.227   0.375 -0.0144 -0.2270  0.2613
17759W        W33943   3.075  11.409   4.055 -0.0728 -0.0263 -0.0551
17760W        W33944  14.663   3.975  11.329 -0.1579  0.0093  0.1586
17761W        W33945   5.700   0.212   3.192 -0.1173 -0.0581 -0.1971
17762W        W33946   0.240   8.468   1.618 -0.1364 -0.2201  0.0694
17763W        W33947   1.281  17.637   3.498 -0.0383 -0.0706  0.1867
17764W        W33948   3.011   9.245  12.267 -0.3825  0.4071 -0.3365
17765W        W33949   5.372   7.646  13.073  0.2472 -0.0857 -0.0298
17766W        W33950  16.315   5.139   3.479  0.0609  0.1349 -0.2463
17767W        W33951   6.847  14.731  14.417 -0.0904 -0.2655 -0.0796
17768W        W33952   6.383   8.247   5.481 -0.1196  0.1545 -0.2043
17769W        W33953   3.210   1.104   4.717  0.1479 -0.0184 -0.1152
17770W        W33954  15.865   9.252  13.052 -0.0633 -0.1015 -0.0439
17771W        W33955  12.704  10.860   3.734  0.1009 -0.1468 -0.2808
17772W        W33956   7.235   1.140  13.545 -0.3691 -0.3040  0.0819
17773W        W33957   1.077  16.392   0.728  0.0207 -0.0092  0.2301
17774W        W33958   7.973  17.779  11.186 -0.0704  0.0743  0.3538
17775W        W33959  13.535   1.442   2.693 -0.1015  0.1737 -0.0788
17776W        W33960   1.154  11.118   9.674 -0.2113  0.2239  0.1560
17777W        W33961  13.841   6.123   3.256  0.0890  0.2384  0.1809
17778W        W33962  11.342  12.068   2.502 -0.1380 -0.1413  0.1150
17779W        W33963  18.960  19.051   5.066 -0.3855 -0.3073 -0.0266
17780W        W33964   9.082   2.804   4.526 -0.1645 -0.0141  0.0721
17781W        W33965   5.483   0.186   0.662  0.3931  0.1337  0.0929
17782W        W33966   3.009  15.845  11.524 -0.0246  0.0198 -0.0924
17783W        W33967  11.127   6.696   5.283  0.2046  0.1305 -0.0548
17784W        W33968   0.656  10.875   1.545  0.2157  0.0283  0.1465
17785W        W33969   0.831  14.697  12.405  0.0408 -0.0953 -0.0332
17786W        W33970  10.997   2.847  12.296 -0.1366 -0.2354 -0.5235
17787W        W33971   1.449   6.175   3.239  0.0698 -0.2264  0.0466
17788W        W33972  17.248   7.847   0.016 -0.0451 -0.1145 -0.2694
17789W        W33973   2.780  19.178   2.205 -0.4857  0.0719  0.1851
17790W        W33974  19.193   1.515   1.945  0.1986  0.4990 -0.0572
17791W        W33975  16.843  18.838   0.728  0.3919 -0.1186  0.1750
17792W        W33976   2.419  13.536  10.600 -0.1822  0.0367 -0.1118
17793W        W33977  17.613   0.212   4.878 -0.3377 -0.1661 -0.1574
17794W        W33978  18.182  15.084  12.818  0.3629 -0.1948 -0.0458
17795W        W33979   1.439  13.814   2.526 -0.1861 -0.1504  0.2140
17796W        W33980  17.248  19.384   5.287  0.0936 -0.1919  0.1866
17797W        W33981  19.003  10.279  11.258 -0.1613 -0.0759  0.0344
17798W        W33982  12.977   3.075   0.087 -0.1665  0.0310  0.0149
17799W        W33983   7.540  13.139   4.279  0.4150  0.3260 -0.1602
17800W        W33984   2.038  18.658   0.480 -0.1394  0.0684 -0.4941
17801W        W33985   3.199   4.202   1.360 -0.2227 -0.2046  0.1072
17802W        W33986   7.564  16.817   1.787 -0.0272  0.2740  0.0939
17803W        W33987  10.191  10.055  13.790  0.0551 -0.0091  0.0653
17804W        W33988  10.354  13.032   4.735  0.1209 -0.3702 -0.2179
17805W        W33989  18.782  17.456   1.384  0.1940  0.0875  0.0023
17806W        W33990   2.543   6.653   4.405 -0.0338 -0.0324  0.1636
17807W        W33991  16.588   4.355  11.296  0.0817 -0.0099  0.0159
17808W        W33992  16.506   7.317  14.666  0.0620  0.0587 -0.0055
17809W        W33993   0.075   9.719  12.767  0.0578  0.2496  0.0744
17810W        W33994   1.235   0.991   0.835 -0.0323  0.0529 -0.0362
17811W        W33995  10.705   8.162  13.565 -0.2247  0.2739 -0.0303
17812W        W33996   3.083   8.318   5.742 -0.1200  0.0614 -0.0935
17813W        W33997  12.264  11.554  14.742 -0.0081  0.3409  0.2887
17814W        W33998  18.676   8.548  14.233 -0.1887 -0.0093  0.3506
17815W        W33999  19.126  15.149   5.520  0.0622  0.2602 -0.1265
17816W        W34000  11.224   4.877   2.009  0.3125  0.0511  0.1894
17817W        W34001   0.297  18.790  11.219 -0.0008 -0.3095 -0.0643
17818W        W34002   7.725  14.014   4.780  0.0986 -0.3027  0.2201
17819W        W34003   7.570  19.066   1.697 -0.0429  0.2944 -0.1932
17820W        W34004   8.952   1.589   4.836  0.2145 -0.0415  0.2130
17821W        W34005   5.228   9.095   1.150  0.1779 -0.4915  0.1328
17822W        W34006   4.670   1.242   2.924  0.0329  0.0177  0.0073
17823W        W34007  18.641   7.974   4.044 -0.1709 -0.5572  0.3654
17824W        W34008   3.206  15.262  12.293  0.0571 -0.1544 -0.2837
17825W        W34009  15.615   0.706  13.572  0.3575  0.1809 -0.0427
17826W        W34010   9.230   3.141  14.236  0.0722  0.2832  0.1086
17827W        W34011   9.146  12.275   1.182  0.1081 -0.2912 -0.2571
17828W        W34012   8.752   8.542   4.586 -0.0256  0.0990 -0.0689
17829W        W34013   9.509   3.387  10.501  0.3626 -0.1618  0.0456
17830W        W34014   9.215   7.359  11.357  0.0692 -0.0609  0.2806
17831W        W34015   9.904   0.810   2.354  0.3424  0.3705  0.2358
17832W        W34016   6.159   1.764  14.965  0.0031  0.2746 -0.1030
17833W        W34017  12.569   7.265   1.321  0.2162  0.1166 -0.3750
17834W        W34018  13.759   9.335  12.170  0.0272 -0.4217 -0.2131
17835W        W34019  14.827   0.718  12.620 -0.0008 -0.0377  0.0636
17836W        W34020   0.853   4.227  14.866 -0.1487 -0.2791 -0.3172
17837W        W34021   9.806  14.537  10.533 -0.0655 -0.0012  0.2984
17838W        W34022  18.234  17.433   4.330  0.0233  0.0494  0.4289
17839W        W34023   4.446   1.084   1.955 -0.2269  0.2326  0.0600
17840W        W34024   4.858   7.405   3.321 -0.0528  0.2498  0.1387
17841W        W34025  17.819  15.913   3.165  0.1089  0.2796  0.0048
17842W        W34026  11.157   3.496  14.462  0.4298  0.1353 -0.2219
17843W        W34027  19.338  19.379  12.845  0.0625  0.3950  0.1350
17844W        W34028   1.328  13.960  13.081 -0.2489 -0.1326  0.1950
17845W        W34029  15.894  15.382  11.483 -0.1652 -0.1245 -0.0846
17846W        W34030   8.963   6.039  13.665 -0.1948  0.3193 -0.2120
17847W        W34031   2.574  10.171   4.058  0.2299  0.1269  0.2572
17848W        W34032  15.281   6.934  11.008 -0.0000 -0.3426  0.0846
17849W        W34033   3.900   1.970   1.553 -0.1126  0.1853  0.2158
17850W        W34034   1.080   3.377   2.268  0.2293 -0.0849  0.1447
17851W        W34035   9.202   6.730  13.670  0.2393  0.1938 -0.2290
17852W        W34036   4.352  14.330   4.435  0.4648 -0.2112  0.3267
17853W        W34037  11.992  13.147  11.494  0.2274  0.0123 -0.0565
17854W        W34038  13.758  14.625   2.277  0.2507  0.2606  0.0303
17855W        W34039   7.533   5.545  14.313  0.4934 -0.0333  0.1991
17856W        W34040  13.675  17.017   3.087  0.0282  0.2364 -0.1328
17857W        W34041   7.722   5.791   3.063 -0.3768  0.0458  0.2325
17858W        W34042  15.010   2.895  10.286  0.0617 -0.3247 -0.2495
17859W        W34043   3.058   5.102   3.345  0.0527 -0.0124 -0.0568
17860W        W34044  10.242  17.796   3.374 -0.2772  0.3079 -0.0608
17861W        W34045  10.640   5.636  12.295  0.2089 -0.3564 -0.0832
17862W        W34046   4.953   9.165   0.394  0.0432 -0.2004  0.3001
17863W        W34047   0.189   0.345  10.734 -0.1034 -0.1499  0.3555
17864W        W34048  12.887  12.065  14.817  0.4050  0.0845 -0.0576
17865W        W34049  17.985   1.298   2.798  0.1354  0.2296 -0.1107
17866W        W34050   3.784   2.044   2.688  0.1684  0.1198  0.0932
17867W        W34051  12.853  12.074   3.984  0.1873 -0.1211 -0.0712
17868W        W34052  16.920  16.585  13.611 -0.0523 -0.2632 -0.1655
17869W        W34053  12.230  11.770  11.534  0.1229 -0.2558 -0.2124
17870W        W34054   6.662   2.667  11.037  0.2209  0.1700  0.1586
17871W        W34055  17.482  15.637  11.060  0.2025  0.0374  0.0089
17872W        W34056  15.467   6.956   8.933  0.0537  0.2758 -0.2616
17873W        W34057   6.624   7.730  10.070 -0.0384  0.1411 -0.2098
17874W        W34058   8.138  16.317   3.292 -0.2279  0.2101 -0.0996
17875W        W34059  10.939   8.905   1.779  0.1184 -0.2571 -0.2877
17876W        W34060  14.320   8.943   0.101  0.1658 -0.0129 -0.1852
17877W        W34061   3.496   6.265   1.905 -0.3608  0.3000  0.1750
17878W        W34062  15.660  13.095  14.183 -0.2233  0.2453  0.1234
17879W        W34063  12.302   0.736  13.673  0.2981  0.0498  0.0188
17880W        W34064   9.198   8.790   4.121  0.0512  0.1772 -0.0782
17881W        W34065  17.835   3.477   4.590 -0.2555 -0.2743 -0.1761
17882W        W34066  10.382   4.759  12.892  0.0192  0.1037 -0.0132
17883W        W34067  17.605  19.153   3.987 -0.2070  0.4053  0.2466
17884W        W34068   1.825  10.670   4.146  0.0092  0.1377 -0.1174
17885W        W34069  13.516   8.092  14.154  0.1768  0.0836 -0.1358
17886W        W34070  11.985  12.178  11.320 -0.0635 -0.0499  0.0758
17887W        W34071   0.452   1.561   5.118 -0.0805 -0.3300 -0.0154
17888W        W34072  10.389  10.840   4.582 -0.2949  0.0921  0.1258
17889W        W34073  16.044   2.448  12.273  0.0082 -0.0945 -0.0621
17890W        W34074   5.640  13.470  11.867 -0.1139 -0.0423 -0.0091
17891W        W34075  13.745  12.600  11.106 -0.1201 -0.3112  0.1320
17892W        W34076  19.116   0.278   1.404 -0.2748  0.4430 -0.1156
17893W        W34077  18.255   2.795  11.121 -0.3034 -0.2216  0.0077
17894W        W34078  12.106  16.350  13.534 -0.1627 -0.2491 -0.1907
17895W        W34079   0.201   1.296   2.704  0.0480  0.1034 -0.0626
17896W        W34080   3.845  16.490   0.798 -0.1561 -0.2806 -0.1287
17897W        W34081  11.513   1.525  13.250 -0.1942  0.1696  0.0948
17898W        W34082   2.954   3.511   3.187 -0.1619  0.1014  0.0796
17899W        W34083   0.196   9.180   2.342  0.1170  0.0987 -0.1992
17900W        W34084  16.824   0.371   0.412 -0.0258 -0.1796 -0.2376
17901W        W34085   3.851   5.330  14.801  0.3732 -0.0118  0.0308
17902W        W34086  18.741   6.844   5.565 -0.1911 -0.1654 -0.2327
17903W        W34087  16.144  12.406  11.534  0.3224 -0.1864  0.1575
17904W        W34088  14.948  16.088   5.427  0.1588 -0.2678  0.2966
17905W        W34089   4.334   3.351  10.506  0.1008  0.1085  0.0810
17906W        W34090  11.149   2.019   1.668  0.2499 -0.1331  0.1997
17907W        W34091   6.520   0.635  13.409  0.1495 -0.1797 -0.1444
17908W        W34092  18.767  17.175  14.024  0.2155  0.1159 -0.1651
17909W        W34093   6.332  12.785  14.678 -0.1867 -0.3046  0.1243
17910W        W34094  11.864   5.951  12.989 -0.1650 -0.0750 -0.0807
17911W        W34095  14.103   8.396   1.919  0.0531  0.0218  0.0836
17912W        W34096   3.834   7.178  10.626  0.0223  0.0040  0.1873
17913W        W34097  13.005  11.894  13.127  0.4348  0.0694 -0.0965
17914W        W34098  16.111   2.246  11.231 -0.0830  0.0516  0.1604
17915W        W34099  11.258  17.292   0.687  0.2069  0.1464 -0.1356
17916W        W34100   6.021   0.697  13.241  0.0631  0.1993  0.1218
17917W        W34101   0.230   6.752  12.121  0.0527 -0.0920 -0.1343
17918W        W34102  16.224   7.978  11.263  0.4273 -0.3478 -0.1366
17919W        W34103  10.335   6.491   4.931 -0.2250  0.2322  0.1157
17920W        W34104  11.551  16.116   5.015  0.1317  0.1694  0.1113
17921W        W34105  14.460  13.741  11.604  0.0431  0.1450 -0.3264
17922W        W34106   8.745  16.780   9.965 -0.0796  0.0678  0.1989
17923W        W34107   3.138   9.921   3.412 -0.0362  0.1164 -0.3001
17924W        W34108   7.271  13.365  12.538  0.0595  0.3944 -0.2560
17925W        W34109  15.641  11.648  10.977 -0.1191  0.0971  0.1526
17926W        W34110   3.635  16.517  14.657  0.1849  0.1464  0.1775
17927W        W34111  14.338   8.344  11.715  0.3310 -0.0375  0.0061
17928W        W34112   3.732   8.420   0.202  0.4084 -0.0042 -0.2962
17929W        W34113   3.978   4.590   9.533 -0.1878  0.2112 -0.0768
17930W        W34114  11.851   8.728   1.732 -0.0572 -0.1617  0.1335
17931W        W34115   6.434  14.017  13.948 -0.0703  0.0976 -0.2740
17932W        W34116  18.725  16.609   5.101 -0.1361  0.0135  0.0616
17933W        W34117   5.641   4.761   3.042 -0.1093 -0.0946  0.1659
17934W        W34118   3.675   9.956  13.131  0.4094  0.2590  0.2216
17935W        W34119  13.093   0.197   1.667  0.0107  0.0201  0.1311
17936W        W34120   9.238  15.775   0.875  0.3409 -0.3834 -0.2124
17937W        W34121  16.434  15.834   0.129 -0.1806 -0.2157 -0.1934
17938W        W34122  12.507  17.000   3.448 -0.1195 -0.1396 -0.1052
17939W        W34123  17.215  13.194  14.326  0.1686  0.2027 -0.4368
17940W        W34124   4.340   4.509  13.998  0.0992  0.1611  0.1705
17941W        W34125   3.347  16.109   3.544  0.1628 -0.1104  0.1248
17942W        W34126   4.383   0.637  13.258  0.0513  0.1237 -0.0242
17943W        W34127   1.296  18.696  12.194 -0.1952 -0.1925 -0.1523
17944W        W34128  13.139   9.426  10.944  0.0161  0.1339 -0.3623
17945W        W34129   1.796  14.408   5.096  0.0260  0.0075  0.0390
17946W        W34130  14.252   2.319   1.467  0.2486 -0.1060  0.3442
17947W        W34131  16.056   4.170   4.655  0.0504 -0.0283  0.0049
17948W        W34132  10.105   9.710  11.120 -0.0488 -0.2375 -0.1160
17949W        W34133   9.928   2.161   2.980 -0.2173 -0.1244  0.2543
17950W        W34134   3.368  11.800   2.241  0.0879  0.0752  0.0711
17951W        W34135   7.545   3.518  10.346  0.2685 -0.2347 -0.1707
17952W        W34136  19.234  11.954  13.626 -0.1171 -0.1929 -0.1427
17953W        W34137   3.070   2.835   4.599  0.2641 -0.0318 -0.0336
17954W        W34138   2.255   9.905   3.687 -0.0315  0.1553  0.3053
17955W        W34139  15.033   7.171  10.481  0.1845  0.0987  0.0229
17956W        W34140   8.191   2.076   4.626 -0.0917 -0.2124 -0.2023
17957W        W34141   4.473  15.030   5.029 -0.0316  0.0015 -0.0198
17958W        W34142  13.909  17.375   0.104  0.1008  0.5339  0.1601
17959W        W34143  13.318   4.985   1.883  0.2467  0.1948  0.0535
17960W        W34144   2.155  12.759   9.880 -0.0104  0.1252 -0.1345
17961W        W34145   6.114   1.159   3.570 -0.1318  0.1530  0.3602
17962W        W34146  16.161   7.954  11.880 -0.1515 -0.1230  0.0660
17963W        W34147   5.531  17.292   0.967  0.0679 -0.2725  0.0035
17964W        W34148   5.227  11.048   1.832 -0.0914 -0.3573 -0.1483
17965W        W34149  13.377   2.923  13.785  0.0860  0.0434  0.0871
17966W        W34150   4.848  13.705  12.185  0.1586 -0.0230 -0.1663
17967W        W34151   8.066  17.816   0.937  0.0917  0.2479  0.0398
17968W        W34152  18.372  14.017   4.158 -0.2023 -0.1267  0.0920
17969W        W34153  16.630  11.576  12.865  0.2340  0.0998  0.0654
17970W        W34154   5.680   1.795   1.658 -0.3122 -0.1303 -0.1802
17971W        W34155  10.509   2.958   3.442  0.0487 -0.2959  0.1169
17972W        W34156   4.411  11.700  10.452  0.1680 -0.0632 -0.2905
17973W        W34157  18.784   9.059   5.709 -0.0047 -0.0289  0.0515
17974W        W34158   9.618   2.898  12.408 -0.1209 -0.2318 -0.1767
17975W        W34159  14.089  16.692   1.302 -0.2572 -0.2329  0.1848
17976W        W34160  10.048   5.207  10.308 -0.1433 -0.0247  0.1545
17977W        W34161   7.636  16.055  14.405 -0.1622 -0.0311  0.1866
17978W        W34162  12.114   9.361  10.629 -0.3344 -0.0559 -0.2044
17979W        W34163  14.235  16.980   2.700  0.1868 -0.0787  0.3617
17980W        W34164  10.468  11.859  14.717 -0.1907  0.1156  0.0492
17981W        W34165  10.829  18.292   0.689 -0.1902  0.1877 -0.1575
17982W        W34166   6.040  16.993  13.631  0.2271 -0.1434 -0.0762
17983W        W34167  11.346  19.197  11.396  0.3102  0.0681 -0.2398
17984W        W34168   5.749   1.222   3.249  0.1841  0.2165 -0.2031
17985W        W34169  12.102   8.300  12.660 -0.0697 -0.0936  0.1998
17986W        W34170   3.572   1.451  14.430  0.3657  0.2201 -0.1472
17987W        W34171  12.388  17.688  13.943 -0.0570  0.1879  0.1058
17988W        W34172   0.211   5.467   4.255 -0.2655 -0.0970 -0.0611
17989W        W34173   0.413  15.793  13.299  0.4264 -0.2038 -0.1336
17990W        W34174  15.339   3.667  12.090  0.2669 -0.0665 -0.0460
17991W        W34175   2.795  10.958  13.719  0.0335 -0.0026  0.2487
17992W        W34176  10.772   9.289   1.544  0.3260 -0.0672  0.0512
17993W        W34177   9.963   7.466  14.647 -0.0865 -0.1127  0.0554
17994W        W34178  10.815  14.831   4.339 -0.0400 -0.2072  0.0739
17995W        W34179   7.979   0.843   1.349 -0.2600 -0.3970 -0.0324
17996W        W34180  14.916   5.334  12.858  0.0201 -0.0740 -0.3567
17997W        W34181  12.359  12.663  11.480  0.0424  0.1185 -0.1088
17998W        W34182   7.770   8.547  14.859  0.0800  0.1478  0.0198
17999W        W34183   7.064   8.555  14.155 -0.1981 -0.1104  0.1817
18000W        W34184  13.343   2.510  10.863 -0.1388  0.1502  0.2271
18001W        W34185  11.366   0.505  11.062  0.1264  0.1252 -0.1623
18002W        W34186  18.053   1.211   1.110 -0.1023 -0.0154  0.0084
18003W        W34187  17.277  13.941   1.967 -0.0468 -0.0200  0.0702
18004W        W34188   9.464   7.435   1.909  0.1225 -0.0185  0.0526
18005W        W34189  16.182  17.903   1.953 -0.0998 -0.3481  0.0105
18006W        W34190  17.826  13.667  11.135  0.0864 -0.3782 -0.2462
18007W        W34191  11.177   3.489   2.084  0.1669  0.0940 -0.0347
18008W        W34192  12.374   8.917   9.477  0.1801  0.1579  0.0012
18009W        W34193   0.173   7.364   3.665  0.2247  0.0332  0.1278
18010W        W34194  12.407  15.005  13.169 -0.1311  0.1060  0.2122
18011W        W34195   9.603  11.592   2.489 -0.1252 -0.0475  0.0915
18012W        W34196  18.942  14.047   0.936  0.1103 -0.1866  0.0138
18013W        W34197   2.696  18.875   1.487  0.1184  0.1998  0.2447
18014W        W34198  12.475  12.840   1.986 -0.0423  0.0483 -0.1330
18015W        W34199  12.010   7.446  11.046 -0.1410  0.0931  0.1727
18016W        W34200   6.811   4.425   0.983  0.0051  0.0151  0.0063
18017W        W34201   9.213  13.574   0.314  0.1772  0.1778 -0.0150
18018W        W34202  12.147  15.238  11.669  0.2085 -0.0939 -0.0816
18019W        W34203   6.090   6.763   4.510 -0.2276 -0.0100  0.2279
18020W        W34204  13.561  19.203   2.270  0.4145  0.1843 -0.3363
18021W        W34205   2.597  17.894  13.941  0.2089 -0.0343  0.4102
18022W        W34206  10.142   4.320   0.613  0.0831  0.1205  0.0910
18023W        W34207  11.270  11.324   4.440 -0.0759  0.3254 -0.0469
18024W        W34208  18.754   1.369   2.234 -0.0291  0.0916 -0.0824
18025W        W34209  16.929  13.632   1.496 -0.2497  0.2900  0.1470
18026W        W34210   0.440  14.156  11.065 -0.1219 -0.0939 -0.1157
18027W        W34211   6.041  13.720   5.239 -0.2526  0.2227  0.0428
18028W        W34212  12.173  18.123   4.348  0.3190 -0.2151 -0.0770
18029W        W34213  13.473   6.954   4.398  0.0784 -0.2715  0.0101
18030W        W34214  16.760   6.593  13.513  0.1252 -0.0230  0.0507
18031W        W34215   9.121  16.198  11.095 -0.0232 -0.1284  0.1549
18032W        W34216  17.410   7.370   2.644 -0.0239 -0.2669  0.0534
18033W        W34217   3.180   8.554   3.429  0.0473  0.3584  0.3298
18034W        W34218  10.709   5.762   4.041 -0.0562 -0.0193  0.0469
18035W        W34219   6.632  17.173  13.149  0.0900  0.0028  0.2916
18036W        W34220   8.811   8.033   3.110 -0.3875  0.1302  0.1767
18037W        W34221   4.013   3.326  13.048  0.3387 -0.1936 -0.1959
18038W        W34222   1.563   0.415   0.631 -0.1049 -0.0838  0.1165
18039W        W34223  18.658   7.032  14.013  0.1254  0.2123 -0.3164
18040W        W34224   2.539  18.068  14.790 -0.0609  0.1239 -0.0950
18041W        W34225   8.323  18.483   0.353  0.1805  0.0106 -0.1434
18042W        W34226  11.027  11.101  11.564 -0.0757  0.0194  0.4769
18043W        W34227  16.199   4.183  12.311 -0.0370 -0.3823  0.1637
18044W        W34228   8.079  10.788   5.735 -0.2057  0.2789  0.1486
18045W        W34229   9.802  11.087  11.109  0.2053  0.2990  0.1154
18046W        W34230   5.512  10.057  10.534  0.2995  0.1182  0.0116
18047W        W34231  10.306   3.697  13.812 -0.3742 -0.0393  0.1477
18048W        W34232   4.738   3.755   2.783 -0.0976  0.1476  0.0046
18049W        W34233  17.899   1.507   3.779 -0.0625 -0.0909 -0.1601
18050W        W34234   6.943  16.340   2.450  0.0029 -0.2129 -0.0726
18051W        W34235  13.844  12.778   4.917 -0.0127 -0.2226  0.0512
18052W        W34236   1.689   4.602   2.360 -0.1354 -0.0703 -0.1023
18053W        W34237   6.391   7.694   0.233  0.1054 -0.1053 -0.2739
18054W        W34238   6.568   8.586  12.402  0.1271  0.3685 -0.3321
18055W        W34239  10.104  16.796   0.391  0.0722 -0.2753 -0.0498
18056W        W34240   2.800   2.426  10.596  0.2224  0.0573 -0.2840
18057W        W34241   8.229  10.374   2.723  0.1757 -0.2220 -0.1724
18058W        W34242  10.380  12.498   0.334 -0.1543 -0.1234  0.0847
18059W        W34243  11.030   4.518   3.536  0.2322  0.1940  0.2449
18060W        W34244   4.499   8.468  12.962  0.0814 -0.0210 -0.3126
18061W        W34245  11.283   6.777  12.159  0.1487 -0.0965 -0.1860
18062W        W34246   1.390  10.840   1.691 -0.3909  0.1176 -0.2167
18063W        W34247   0.208   8.624   4.227 -0.2157 -0.1630 -0.0130
18064W        W34248   5.620   8.690  10.015 -0.1200 -0.1323  0.0521
18065W        W34249  17.395  15.647   3.144  0.3840 -0.3845 -0.1073
18066W        W34250   7.831   8.604   1.413  0.1894 -0.2026 -0.1473
18067W        W34251   1.887   3.773  14.346 -0.1749  0.3889 -0.0323
18068W        W34252   9.231   9.470  12.172 -0.1088  0.3278 -0.2062
18069W        W34253   9.398   1.728  13.521 -0.0972  0.3068 -0.5051
18070W        W34254   2.257  14.943  12.441  0.2529 -0.1291  0.0367
18071W        W34255   1.460  17.230   0.372  0.1489 -0.3462 -0.0584
18072W        W34256  11.470   5.044   4.804  0.2018  0.2157  0.0613
18073W        W34257   5.482   2.962   4.608  0.0540 -0.0182  0.0815
18074W        W34258   8.842  18.310  10.239 -0.1045  0.3893 -0.1533
18075W        W34259   1.586  15.756  10.944  0.1495 -0.2164  0.0183
18076W        W34260   3.473  16.065   9.817  0.3074  0.0407  0.0968
18077W        W34261   9.495   7.172  14.544  0.0695 -0.3373 -0.0601
18078W        W34262  12.951   1.941  12.104 -0.0655 -0.0001 -0.2248
18079W        W34263  10.514   9.006  13.782 -0.0748  0.1028  0.0572
18080W        W34264   9.575   9.531   0.768  0.0248  0.0697  0.1056
18081W        W34265  12.646   0.057   9.372 -0.0080 -0.0189 -0.2067
18082W        W34266   6.499  17.868   4.720  0.0667 -0.3728  0.1310
18083W        W34267   2.562  12.146   2.039 -0.0004  0.1230 -0.1412
18084W        W34268   8.742  14.966  13.519  0.2147 -0.0055 -0.3842
18085W        W34269  13.290   8.855   3.562  0.1051 -0.0968  0.0470
18086W        W34270   3.780   6.921   9.718 -0.1492  0.1630 -0.1200
18087W        W34271   2.474   1.381  14.530 -0.1050 -0.0011 -0.3429
18088W        W34272  10.371   5.209  13.121 -0.1582 -0.2637 -0.1075
18089W        W34273   0.424  17.845  12.387  0.0687 -0.2703  0.1756
18090W        W34274   9.369  12.347   4.369  0.1910 -0.1233  0.1914
18091W        W34275  14.079  16.854   4.473  0.1009  0.0496  0.0908
18092W        W34276  18.516   5.426  13.376 -0.3112  0.3285  0.3840
18093W        W34277  15.021   3.462  11.454 -0.2054  0.2177 -0.0611
18094W        W34278  10.059   4.283  14.270 -0.0317  0.2690 -0.0690
18095W        W34279   8.390  11.166   0.030  0.1729 -0.0281 -0.5494
18096W        W34280  10.656  13.143  11.214  0.0111  0.2620  0.2818
18097W        W34281  14.148  12.580   3.738  0.0283  0.0535  0.0446
18098W        W34282  17.320   1.034  10.765 -0.3696  0.0233  0.1122
18099W        W34283   9.592  17.531   0.481 -0.1634 -0.4368 -0.1839
18100W        W34284   5.977   5.719  12.271 -0.1001 -0.0827  0.1350
18101W        W34285  18.744  15.174   0.212  0.1620  0.0497  0.1188
18102W        W34286  18.577  12.692  14.559  0.3198  0.0843 -0.0074
18103W        W34287  15.531   1.738   3.949  0.2304  0.2640 -0.3653
18104W        W34288   6.839  11.822   5.067 -0.0052  0.3400  0.2775
18105W        W34289   6.227  16.798   1.018  0.0907  0.0002  0.0477
18106W        W34290  16.754  13.405   3.154 -0.0141  0.1338  0.0089
18107W        W34291  18.500   3.947   4.776  0.0506  0.2024 -0.3747
18108W        W34292  19.203   8.372  13.993 -0.0013  0.3431 -0.2241
18109W        W34293   8.284   4.667   0.338 -0.2995  0.0599 -0.1993
18110W        W34294  17.281   1.562   2.333 -0.4684 -0.2871  0.0950
18111W        W34295  13.141  14.923   4.326 -0.0999  0.1650  0.1163
18112W        W34296   9.400  18.255   1.379  0.0272 -0.0498  0.0219
18113W        W34297   8.803  13.704   1.665 -0.1114  0.0194 -0.2183
18114W        W34298   9.328   1.492  12.253 -0.0020 -0.0443 -0.2440
18115W        W34299   7.172  13.858   3.710  0.0631  0.2070  0.1014
18116W        W34300   0.761  18.339   0.986  0.2570 -0.2456 -0.2688
18117W        W34301  12.134  12.174  12.699  0.0685 -0.1776 -0.2228
18118W        W34302  16.907   1.849   1.961 -0.3072 -0.0121  0.1077
18119W        W34303   9.688  14.045   4.817 -0.0271  0.0016  0.0435
18120W        W34304  16.510   5.895   4.061  0.1636  0.0643  0.2549
18121W        W34305  14.615   2.651   1.640  0.1104 -0.0093 -0.2684
18122W        W34306  16.032   0.701   3.049 -0.0520  0.5566 -0.2545
18123W        W34307  11.120   3.193  12.741  0.0232 -0.0303  0.0187
18124W        W34308   6.737   8.650   2.113  0.0661  0.1867 -0.2371
18125W        W34309  11.953   9.692   1.856 -0.1090  0.0832  0.1007
18126W        W34310  18.281   7.473   1.371 -0.6466  0.2720 -0.0096
18127W        W34311  15.250   0.121  14.330  0.0225  0.2801 -0.2959
18128W        W34312  16.961   3.338   2.118 -0.1181 -0.0784  0.3352
18129W        W34313   9.015  13.053  14.150  0.0670  0.0728 -0.0740
18130W        W34314   7.979   1.446  10.792 -0.2537 -0.1316 -0.4330
18131W        W34315   0.248   9.063  11.379 -0.0436  0.1675 -0.2262
18132W        W34316  11.019  18.382   0.062 -0.1035 -0.2663 -0.8209
18133W        W34317  15.179  14.972  14.329 -0.0620 -0.2096 -0.0278
18134W        W34318  16.543   6.557   4.148  0.0711 -0.0466  0.2755
18135W        W34319  15.536  17.709   0.900  0.0258 -0.0815 -0.0086
18136W        W34320  19.178  12.688   1.265  0.0580  0.0447  0.0665
18137W        W34321   4.437   8.400  12.019 -0.0398  0.0006 -0.1558
18138W        W34322  14.993  19.179   5.295  0.1535  0.2023  0.2034
18139W        W34323   7.792  19.190   2.627 -0.0736 -0.1691 -0.1922
18140W        W34324   3.069  14.687   2.503  0.2024 -0.1639  0.0233
18141W        W34325  12.280  10.891   3.414  0.1807 -0.0106  0.3704
18142W        W34326   4.224  16.098  12.221 -0.2043  0.2786  0.1148
18143W        W34327  14.265   6.790   3.653 -0.2761 -0.0557  0.2991
18144W        W34328   8.569   1.933   0.610 -0.0586  0.1548 -0.1676
18145W        W34329  14.235  14.791   1.310 -0.1183 -0.0992  0.0352
18146W        W34330  12.335   1.444   2.425  0.1791  0.3998  0.2563
18147W        W34331  18.119   1.892   3.485 -0.1242 -0.0052  0.2681
18148W        W34332  17.842  15.209  11.913  0.3636 -0.1572 -0.0818
18149W        W34333   6.214   5.433   2.545  0.0904  0.0285 -0.1607
18150W        W34334   3.732  16.390  10.776 -0.3985  0.0417 -0.0592
18151W        W34335  17.111  11.246  14.422  0.1899  0.0135 -0.2406
18152W        W34336   9.712   5.864  14.528  0.0739 -0.0560 -0.0677
18153W        W34337   3.905   9.675   3.812  0.0091  0.2676 -0.2868
18154W        W34338  18.885  17.158  14.489 -0.1458  0.5350 -0.0261
18155W        W34339   5.829  18.102   1.658  0.0422 -0.0490  0.0702
18156W        W34340  10.413   3.568   9.892  0.1811 -0.4590 -0.1087
18157W        W34341   5.178   5.813   3.945  0.2234 -0.1031  0.0295
18158W        W34342   6.074  19.230   3.364  0.0399 -0.1457  0.1029
18159W        W34343  11.458   2.922  13.017 -0.1777 -0.3893  0.0210
18160W        W34344   4.179   6.324  13.718  0.3582 -0.1738 -0.0956
18161W        W34345   6.677   9.606   2.423 -0.2891 -0.0951  0.0387
18162W        W34346  16.927  11.235  11.589 -0.0953  0.0014 -0.1184
18163W        W34347   8.752   5.607  14.944  0.2076 -0.4384  0.1269
18164W        W34348  16.010  13.052   1.004 -0.1099 -0.0444  0.0545
18165W        W34349  15.297   6.707  14.908 -0.1955 -0.0180 -0.2937
18166W        W34350  16.821   5.627   5.644 -0.2111 -0.3081 -0.2806
18167W        W34351  15.312   2.524   2.252 -0.0111 -0.0922  0.1222
18168W        W34352   2.809  12.017  14.810 -0.1498 -0.0176  0.1400
18169W        W34353  13.957   4.538   5.441 -0.5915  0.1581  0.0520
18170W        W34354   2.661   2.173   3.476 -0.2122 -0.2351 -0.2053
18171W        W34355  16.226  14.691   1.323 -0.0367 -0.1007 -0.3565
18172W        W34356  10.962  12.959   3.533  0.0701  0.0303  0.0371
18173W        W34357  15.793   2.197   0.030 -0.1610  0.0917 -0.1023
18174W        W34358   6.524   4.490   0.218 -0.0192  0.0403  0.0771
18175W        W34359  11.827   7.685  13.611 -0.0786  0.0276  0.2584
18176W        W34360  12.970   7.689  10.257  0.1429  0.2073  0.2221
18177W        W34361  11.793  14.073   4.979 -0.0741  0.3481 -0.1639
18178W        W34362   6.768  10.490   4.934  0.2408 -0.1134 -0.1692
18179W        W34363  17.229   0.265   3.251 -0.0582  0.0398  0.0513
18180W        W34364   6.759  18.000  14.689 -0.4614  0.0091  0.0527
18181W        W34365  17.498   0.214  11.184 -0.0219  0.3152 -0.0701
18182W        W34366  12.818   5.000  12.322  0.0801  0.0373  0.0013
18183W        W34367   1.651  15.752   0.482 -0.2112  0.0912  0.1622
18184W        W34368  15.235   1.999  11.270 -0.0211  0.2283  0.0405
18185W        W34369  12.284  15.477  10.363  0.2001 -0.3080 -0.1051
18186W        W34370   7.948  15.758  10.978 -0.6735 -0.0980  0.0379
18187W        W34371   4.626  18.045  11.265 -0.2457  0.4115  0.1599
18188W        W34372   8.140  11.933  11.627 -0.0863  0.2356 -0.1075
18189W        W34373   2.860   7.796  14.809  0.1475  0.1047 -0.0023
18190W        W34374  11.693   5.900  11.105 -0.2429 -0.1646 -0.1840
18191W        W34375  19.148   7.152   5.513 -0.0198 -0.3109  0.0648
18192W        W34376   4.586  18.030   0.948  0.0487 -0.1578  0.3335
18193W        W34377  14.420  14.527  12.043  0.1193 -0.0711  0.0439
18194W        W34378   1.727  14.561   0.999 -0.0044 -0.2139 -0.1090
18195W        W34379   8.243   0.824   2.754  0.0619 -0.1346 -0.0252
18196W        W34380   4.861   1.258  14.961 -0.0458 -0.0908  0.0279
18197W        W34381  18.961   1.011  11.344 -0.2276  0.1938  0.0526
18198W        W34382  11.623   8.573   2.268  0.0371  0.3635  0.3064
18199W        W34383   0.073   5.044   1.912  0.2003 -0.0349  0.1694
18200W        W34384  13.227   5.756  11.514  0.1440  0.2347  0.3332
18201W        W34385   9.742  11.639  12.045 -0.2295  0.0426 -0.1731
18202W        W34386   0.802  16.207   2.038  0.0843  0.1783  0.1220
18203W        W34387   8.375  12.133  10.668 -0.1798  0.2061  0.2935
18204W        W34388  10.939  17.887   0.087 -0.1092  0.1414 -0.4005
18205W        W34389   7.574  11.558   9.225  0.0790 -0.1192  0.0839
18206W        W34390  14.748   1.043   1.131  0.4934 -0.2299  0.1788
18207W        W34391   7.066  17.160   4.602 -0.1227 -0.0547  0.1319
18208W        W34392   5.934  10.626   0.135 -0.1680  0.1344 -0.2056
18209W        W34393  16.282  15.777  14.665  0.2281  0.0344  0.2018
18210W        W34394   8.852   5.070  12.066 -0.0492 -0.1526  0.2886
18211W        W34395   2.519  10.545  13.476  0.0679  0.2017 -0.3846
18212W        W34396  18.170   3.700   0.200 -0.1772 -0.2704  0.1593
18213W        W34397  17.485   3.402   0.929 -0.1305  0.4111  0.0415
18214W        W34398  14.747   9.295   0.026  0.1111 -0.2224 -0.1317
18215W        W34399   7.455  13.321   1.105 -0.2216  0.2822 -0.1042
18216W        W34400  11.180   2.598   4.570 -0.0969  0.1310 -0.1044
18217W        W34401  16.860   6.685  11.644 -0.0285 -0.2818 -0.3721
18218W        W34402   7.938  13.563  14.572  0.2144  0.3986 -0.3736
18219W        W34403   5.903  13.811  11.242 -0.0473 -0.1889  0.4230
18220W        W34404  10.986   7.356  14.292  0.1631 -0.2060  0.0100
18221W        W34405  11.259  16.594  14.457 -0.0063 -0.0229  0.1102
18222W        W34406   3.653  11.290   2.788 -0.0923 -0.2523 -0.0868
18223W        W34407  16.559   3.941   1.893 -0.1311 -0.2195  0.0586
18224W        W34408  11.733   0.368   5.325  0.1908 -0.2463  0.2843
18225W        W34409  11.043   9.378  11.520  0.0490  0.1799  0.0618
18226W        W34410  13.205   9.713  12.527 -0.0440 -0.1653 -0.5874
18227W        W34411   8.052   8.353   1.781  0.0884  0.3780 -0.2160
18228W        W34412   6.763   8.252   3.746 -0.2580  0.2058 -0.1106
18229W        W34413   9.413   1.692   4.169  0.1332  0.0842  0.0135
18230W        W34414   3.713  11.356  12.720  0.0234  0.0750  0.0281
18231W        W34415  15.869   7.814  10.424  0.1423  0.0490 -0.0687
18232W        W34416   6.443   1.222   4.162  0.1929 -0.2819 -0.2609
18233W        W34417   6.338  11.088  10.514  0.3190 -0.4927 -0.0470
18234W        W34418  15.510  12.344   2.388  0.0061  0.0336 -0.1903
18235W        W34419   3.229   3.385   5.474  0.2269  0.0599 -0.0664
18236W        W34420  12.377   5.134   5.268 -0.2674 -0.1367 -0.1781
18237W        W34421   8.332  18.989  11.475  0.2495  0.3454  0.3445
18238W        W34422   9.418  18.015  14.417  0.3994  0.2559  0.1430
18239W        W34423  10.726   1.818  11.487  0.0122 -0.0502 -0.2925
18240W        W34424   4.881  15.857   3.718  0.2871 -0.2572  0.2356
18241W        W34425   4.215   4.803   2.681 -0.1473  0.1206 -0.0944
18242W        W34426   4.179   2.169   2.934 -0.4230  0.0152 -0.3858
18243W        W34427   9.815   8.518  13.299 -0.0348 -0.3677  0.0126
18244W        W34428   2.948   7.577   4.986 -0.0302  0.1610 -0.2871
18245W        W34429   6.341  15.948  11.634  0.0676  0.0514  0.3949
18246W        W34430  17.631   8.208  13.340 -0.2022 -0.1181  0.2026
18247W        W34431  11.949  16.218  11.599 -0.0661 -0.1913 -0.2827
18248W        W34432   3.166  14.648   5.090  0.0961  0.1041 -0.3571
18249W        W34433   6.868   9.388  13.101 -0.2086 -0.0625 -0.0857
18250W        W34434  12.965  15.681  11.006  0.0506  0.1263 -0.1801
18251W        W34435   6.016   1.936   2.087  0.0985  0.0720  0.1889
18252W        W34436   2.084   7.942   1.914 -0.1436  0.3026  0.1819
18253W        W34437  17.538  17.197   5.332  0.0269  0.4157  0.2153
18254W        W34438   8.515  14.610   3.824  0.3042  0.2091 -0.0950
18255W        W34439   5.523   8.016   4.364 -0.0228 -0.4110 -0.0810
18256W        W34440  16.850   6.923   0.941  0.1419 -0.0634 -0.5251
18257W        W34441  15.640   4.883  10.437  0.0435  0.4120  0.0061
18258W        W34442  18.453   7.022  12.072 -0.0104  0.1453  0.1211
18259W        W34443   0.869   6.261   0.250  0.0478 -0.0130 -0.0281
18260W        W34444  14.081   9.174  14.094  0.0670 -0.0234 -0.1314
18261W        W34445  11.167   8.343  12.830 -0.3912 -0.0750 -0.3079
18262W        W34446  13.263  13.188   0.373  0.1074  0.0136  0.1031
18263W        W34447  18.394  18.796  11.874 -0.0116  0.2006 -0.0175
18264W        W34448   0.889   6.142  11.929 -0.1004  0.0034  0.2347
18265W        W34449  17.085  15.717  12.220 -0.1572  0.1393  0.0124
18266W        W34450   9.149   1.838   0.253  0.0214  0.2557  0.0359
18267W        W34451  17.746  13.087  12.895  0.1120  0.2657 -0.0750
18268W        W34452   1.706   9.710   4.499  0.0991  0.0926 -0.0009
18269W        W34453  15.050   4.834  12.301 -0.0554  0.1148 -0.0626
18270W        W34454  12.156   4.012   0.619 -0.0824  0.0401  0.1232
18271W        W34455  18.341   0.957  12.197  0.1087  0.1010  0.0880
18272W        W34456  19.009   0.107  11.426  0.4138 -0.0145  0.1389
18273W        W34457  14.092  12.201   4.110  0.0487  0.0223 -0.0183
18274W        W34458   6.620   1.134  12.194  0.2984  0.2259 -0.1795
18275W        W34459   7.170  19.207   0.099 -0.0444 -0.0690  0.1596
18276W        W34460  17.308  13.022   0.139 -0.0865  0.3428  0.4228
18277W        W34461  12.120  16.039   9.763  0.0835  0.1700  0.2431
18278W        W34462   3.594  10.471   0.675  0.2720  0.1645  0.0420
18279W        W34463   0.450  17.933   2.680 -0.3471  0.2114  0.3523
18280W        W34464   2.974   2.115  12.438 -0.3559  0.0453 -0.0044
18281W        W34465  15.461  19.095  11.570  0.0770  0.0043  0.1400
18282W        W34466   6.124   3.860  14.815  0.1303 -0.0628 -0.3543
18283W        W34467   1.322  14.788   3.979  0.0977 -0.0702  0.6043
18284W        W34468   6.814   3.171   3.903  0.0571  0.0316  0.1747
18285W        W34469   4.232   2.462   4.212 -0.0866  0.0158 -0.1812
18286W        W34470   7.791   9.835   3.267 -0.1275 -0.0397 -0.0191
18287W        W34471   9.696  13.957  13.578  0.3651 -0.3038  0.1837
18288W        W34472   6.277  14.739  14.537 -0.0958  0.2423 -0.1989
18289W        W34473  12.545  13.734   3.915  0.0882  0.2339  0.2523
18290W        W34474  13.499   8.167  13.620  0.2429 -0.1829  0.0902
18291W        W34475  10.972   9.416   1.994 -0.2743 -0.0244  0.1058
18292W        W34476   2.228  15.031  14.801  0.0815  0.1475 -0.5623
18293W        W34477   9.467  13.244  11.594  0.0493  0.0818 -0.1678
18294W        W34478  12.463  10.160  12.192  0.1078  0.3770 -0.0284
18295W        W34479  15.690  10.737   4.852  0.2863 -0.1229  0.0163
18296W        W34480  19.048   5.561  14.829  0.2530 -0.0050 -0.0219
18297W        W34481   4.726  11.993  10.690  0.0189 -0.1701 -0.0996
18298W        W34482   9.761  17.189   5.123 -0.0239 -0.1298 -0.3825
18299W        W34483  17.285   6.614  10.023  0.4177 -0.2931  0.1985
18300W        W34484   2.592  15.052   5.119 -0.2606  0.1453 -0.1009
18301W        W34485  17.889   4.910   2.795 -0.0828  0.2126  0.1609
18302W        W34486  14.870   2.569   2.479 -0.0231 -0.0468 -0.0401
18303W        W34487   3.671   2.486   0.033  0.0903  0.0552  0.0872
18304W        W34488   5.435   4.094  11.586 -0.2088  0.2774 -0.0667
18305W        W34489  13.339  10.619  13.849 -0.1997  0.3074  0.0939
18306W        W34490  13.395   6.504   0.486 -0.1250  0.0329 -0.1113
18307W        W34491  16.566  19.267  14.014  0.0127 -0.2005 -0.0792
18308W        W34492   5.561  18.119   4.532 -0.0769  0.0313  0.3630
18309W        W34493  17.533  10.275  10.576 -0.3173  0.1175 -0.3744
18310W        W34494  11.671  10.164  11.150  0.2457  0.3124  0.1803
18311W        W34495   5.858  10.527   5.528  0.3644 -0.3987 -0.0360
18312W        W34496   7.323   5.878   9.912 -0.0984  0.0663  0.2109
18313W        W34497   2.884   5.213  12.179  0.0452  0.2449  0.0378
18314W        W34498  14.509  12.737  11.146 -0.2603  0.2140  0.1337
18315W        W34499  10.522   2.148   2.780  0.2933  0.1172 -0.0489
18316W        W34500   2.220   1.883  14.338  0.0924 -0.4178  0.1821
18317W        W34501   9.126   7.830  11.157 -0.2996 -0.1993  0.3761
18318W        W34502  15.203   7.874   2.953 -0.2964  0.0105 -0.0509
18319W        W34503  10.290   9.272   5.134 -0.0772 -0.0523  0.1809
18320W        W34504  15.543   4.001   3.291 -0.2496  0.0524  0.0412
18321W        W34505  10.001  13.805  12.847  0.1572  0.0802 -0.2879
18322W        W34506  10.125   7.346  14.046  0.3476  0.1581 -0.0807
18323W        W34507   5.791   3.677  11.507  0.1294 -0.2909  0.2365
18324W        W34508  17.825  11.346   4.980  0.1533 -0.1014 -0.1927
18325W        W34509  17.507  14.011   2.536  0.2196  0.0397  0.0430
18326W        W34510   6.245  15.763  14.605  0.1852 -0.1265 -0.1554
18327W        W34511  10.094   7.617  12.183  0.3811  0.1876 -0.2550
18328W        W34512   2.062  12.367  12.331 -0.2022 -0.1017  0.1032
18329W        W34513  15.547   9.798  14.038  0.1642  0.2239  0.3109
18330W        W34514  14.341   8.307   3.825  0.0838  0.0659  0.0588
18331W        W34515   0.252   4.514   3.039  0.0102 -0.0099 -0.2140
18332W        W34516   0.917  13.794  14.013  0.1548 -0.2552  0.1399
18333W        W34517  18.077   9.089  13.010  0.1073  0.2036 -0.2654
18334W        W34518   8.101   2.341   3.733  0.2157 -0.3394  0.1179
18335W        W34519   3.644   1.652   1.989  0.3943  0.0792  0.1243
18336W        W34520   5.551   8.356   4.755 -0.3285 -0.3081 -0.2030
18337W        W34521  18.444   7.841   1.045 -0.1924  0.1550  0.2197
18338W        W34522  18.778  17.434   3.347  0.2361 -0.0728  0.0529
18339W        W34523   3.281  10.600   1.831 -0.1147 -0.2705  0.0302
18340W        W34524   6.012   5.669   4.256  0.1229  0.0595 -0.0455
18341W        W34525   2.781   3.535  10.766 -0.0811  0.0704  0.1948
18342W        W34526   2.042   9.971  14.801 -0.4196  0.1891  0.2136
18343W        W34527   5.574  11.962  12.247 -0.1870  0.0785  0.1450
18344W        W34528  16.964  11.599   0.899  0.0965 -0.2518 -0.2746
18345W        W34529   1.657  13.951   3.258  0.1456 -0.2572 -0.1733
18346W        W34530   6.919  16.073   1.023  0.1024  0.0396  0.0048
18347W        W34531  13.179   7.734  12.142 -0.4460 -0.0131 -0.2726
18348W        W34532   5.397   5.051   4.021 -0.1534 -0.0723  0.2996
18349W        W34533   6.083   6.331   1.845  0.1338 -0.2036  0.1483
18350W        W34534  17.309  12.380   5.358 -0.1412 -0.3479  0.1320
18351W        W34535   3.038   1.033   4.218  0.0845 -0.1047 -0.1715
18352W        W34536   6.062  15.917  12.082  0.1451  0.0388 -0.0389
18353W        W34537   5.239   1.435  13.352  0.3339  0.0124  0.2903
18354W        W34538   6.972  17.313  13.576  0.0119  0.0447 -0.2411
18355W        W34539  17.616   2.833   2.824  0.1098  0.6941  0.1978
18356W        W34540   5.102   5.548  10.290 -0.2839 -0.1070 -0.0806
18357W        W34541   8.551  11.387  11.669 -0.1000 -0.0731  0.1672
18358W        W34542  15.667   2.180   0.615  0.0253 -0.0720  0.0737
18359W        W34543   6.339   0.851   0.328 -0.1076 -0.0608 -0.1224
18360W        W34544   7.163  12.980  14.864  0.0264  0.1015  0.1438
18361W        W34545   6.389  18.249  11.041  0.1559  0.0814  0.2450
18362W        W34546  12.369  10.252  14.137  0.0944 -0.0825  0.1898
18363W        W34547   5.579  15.825  12.085  0.2504 -0.1726  0.0134
18364W        W34548   1.585  13.754   4.372  0.2556 -0.1632  0.2981
18365W        W34549  13.168  13.138  14.164  0.2217  0.1900  0.0367
18366W        W34550  13.857  11.999  11.962 -0.0596  0.1936  0.1297
18367W        W34551   9.615  18.419   2.353 -0.0522  0.1259  0.1374
18368W        W34552   5.976   0.422  13.700 -0.2012  0.0991  0.3450
18369W        W34553   5.228  17.041  12.352 -0.1009  0.2576 -0.1465
18370W        W34554  13.536   2.975   3.832  0.0632  0.1037 -0.1401
18371W        W34555  10.842  12.423  10.628  0.1290 -0.0815 -0.2353
18372W        W34556   4.641  15.367   4.662 -0.1550  0.3412  0.0587
18373W        W34557   4.055   0.744  11.255 -0.1594 -0.0759 -0.3899
18374W        W34558   3.548   9.801  13.984 -0.0870 -0.0405 -0.1313
18375W        W34559   2.628  17.641   3.861 -0.0015 -0.3180  0.0196
18376W        W34560  13.920   9.853   0.262 -0.0215 -0.0873 -0.1758
18377W        W34561  10.886   9.627   0.565  0.1393  0.5473  0.0185
18378W        W34562   7.641  10.944   4.333  0.2010 -0.1916  0.1376
18379W        W34563   5.858   7.365   4.838 -0.0316  0.1379  0.1052
18380W        W34564  18.439  14.396  13.106 -0.1888 -0.0257  0.5896
18381W        W34565   7.240   6.912  12.679 -0.0191 -0.1214 -0.1844
18382W        W34566  12.770  18.637   0.126 -0.1057 -0.3049 -0.0954
18383W        W34567   0.826   2.098   0.162  0.3090 -0.2155  0.3116
18384W        W34568   1.257   4.897   2.409 -0.0709  0.3002  0.0532
18385W        W34569   5.499   0.793   0.441  0.2206  0.0294 -0.1226
18386W        W34570   4.177   2.063  14.418  0.2134 -0.1444  0.0671
18387W        W34571   1.819  17.532   2.099  0.1766 -0.0310  0.0886
18388W        W34572  17.075  13.465  13.863 -0.2761 -0.1063 -0.1107
18389W        W34573   2.695  12.696   3.408  0.3667  0.2739 -0.1993
18390W        W34574   0.979  10.277   3.235  0.0536  0.1781  0.0009
18391W        W34575   8.522   8.178   4.885  0.0955 -0.0369 -0.2856
18392W        W34576  10.134  15.103   3.611  0.1225  0.0754 -0.1826
18393W        W34577   7.493   6.647   0.404 -0.0256  0.0505 -0.1202
18394W        W34578   0.131   1.167  14.615 -0.1282 -0.3037 -0.3589
18395W        W34579  13.292  18.550   1.959  0.2046 -0.1268  0.0760
18396W        W34580   8.668   9.942   4.328 -0.1202 -0.2158  0.0559
18397W        W34581  12.799   2.166  10.638  0.1227  0.2237  0.2430
18398W        W34582  18.325   5.417  12.140  0.0466 -0.0172 -0.1632
18399W        W34583   9.385   0.545   0.916 -0.0333 -0.1432  0.3347
18400W        W34584  11.197  18.009  12.491  0.3881 -0.0163 -0.2899
18401W        W34585  19.068  17.634  13.588 -0.0941  0.1265  0.1511
18402W        W34586  14.031   1.578  14.382  0.4419  0.0503  0.0808
18403W        W34587   5.602  16.641  13.889  0.0278  0.0036 -0.0527
18404W        W34588   7.340  11.405  10.646 -0.2270  0.2318 -0.0111
18405W        W34589   0.957  17.363  13.888 -0.0137  0.2933 -0.0597
18406W        W34590  12.393   2.694  12.888  0.1270 -0.1005 -0.1669
18407W        W34591   4.339  14.393   2.279  0.1430  0.3903  0.1559
18408W        W34592  15.457  10.951   2.594 -0.0847 -0.0446  0.0273
18409W        W34593   0.647   4.124   4.684  0.0714 -0.2026  0.1836
18410W        W34594  12.878   8.040   3.131  0.0388 -0.0180 -0.0070
18411W        W34595  17.816  15.608   4.176  0.1271  0.0898  0.2537
18412W        W34596   3.943   4.226   0.611  0.2178 -0.0732 -0.2652
18413W        W34597   0.354   8.418   4.708 -0.1009 -0.1708 -0.0357
18414W        W34598   9.253  14.983   4.668 -0.3103  0.3277  0.0595
18415W        W34599   0.990   9.241   0.119  0.1014 -0.0034 -0.1456
18416W        W34600  15.986   1.614  13.407 -0.1082  0.0419  0.0931
18417W        W34601  18.555  15.216  13.690 -0.0081 -0.1491  0.0453
18418W        W34602   5.487   8.340  13.584 -0.0867  0.1318  0.1893
18419W        W34603   0.525  15.320  14.654 -0.0370  0.1121  0.0085
18420W        W34604   8.981  10.639  13.456 -0.2548  0.1001  0.1724
18421W        W34605   6.913   3.689   3.076 -0.0104  0.2272 -0.2149
18422W        W34606   8.888   0.947   4.349  0.0058  0.0528  0.3120
18423W        W34607  15.216   3.290   1.387  0.2029  0.0118 -0.2768
18424W        W34608   7.723   1.181  12.290 -0.0097  0.1584  0.1779
18425W        W34609   7.951   1.076  10.416 -0.3388  0.0944  0.2762
18426W        W34610  10.537  10.983  12.064  0.1453  0.1249 -0.1599
18427W        W34611   3.373  14.918   0.970 -0.1093  0.1237  0.0431
18428W        W34612  11.751  10.360   5.288  0.1318 -0.1142 -0.2277
18429W        W34613   3.326  12.246   2.455  0.1809  0.0818 -0.0251
18430W        W34614  12.438   6.574   2.304  0.2844 -0.2069 -0.0194
18431W        W34615  11.457  12.327   3.614  0.1086  0.2539  0.3669
18432W        W34616   2.869  10.507  13.888  0.3819 -0.1507 -0.1829
18433W        W34617  12.811   6.263   1.570 -0.0259  0.2937  0.3029
18434W        W34618  13.108  18.438  11.327 -0.1151  0.2131  0.0075
18435W        W34619  11.095  18.211   2.508  0.1831  0.1073  0.0363
18436W        W34620   1.111  12.339   1.425  0.0440  0.0449 -0.0108
18437W        W34621   9.734   4.937   1.688 -0.2602 -0.2006  0.0002
18438W        W34622   0.192  13.945   5.956  0.0604  0.0653 -0.2079
18439W        W34623  19.332   9.660   4.023 -0.0010 -0.0017 -0.2741
18440W        W34624   1.954  13.649   0.555 -0.0767 -0.3728 -0.0633
18441W        W34625  11.161  10.333  12.060 -0.4419 -0.2074 -0.0340
18442W        W34626  10.406  14.464  14.168  0.0446  0.1733 -0.0095
18443W        W34627  10.238  14.734   2.780  0.1068 -0.1724 -0.1227
18444W        W34628  10.052   3.240   1.336 -0.0382  0.4485 -0.0379
18445W        W34629   8.588  12.344   0.624 -0.1770  0.2274  0.2615
18446W        W34630   5.677   7.425  13.889 -0.1723 -0.3197  0.1453
18447W        W34631   5.118   4.087   2.986 -0.0888 -0.2086  0.2969
18448W        W34632   3.475   4.887  14.035  0.4355  0.2157 -0.0826
18449W        W34633   0.900  19.000  14.746  0.0021  0.0008 -0.0082
18450W        W34634   1.679   7.588  14.294 -0.3287  0.0787  0.4039
18451W        W34635   7.058   1.345  13.992 -0.0346 -0.1511 -0.1199
18452W        W34636   6.349   0.338   1.548  0.0372  0.1876  0.0671
18453W        W34637  14.861  10.007  11.696  0.2811 -0.1352  0.3813
18454W        W34638   6.252   3.892   4.986  0.0542  0.0337 -0.0623
18455W        W34639   4.008  15.024   4.772  0.1109 -0.2777 -0.0290
18456W        W34640  15.932   0.302  13.869  0.1836  0.0682  0.1031
18457W        W34641  15.232   8.518  12.758 -0.0089  0.0187  0.2710
18458W        W34642   2.789   1.540  14.967 -0.1579  0.2654  0.2577
18459W        W34643  13.252   1.262  13.385 -0.5563 -0.1359 -0.0412
18460W        W34644  19.022   7.642  14.505 -0.0773  0.0707  0.0275
18461W        W34645   6.432   0.694   3.552  0.4361  0.0264 -0.0966
18462W        W34646  17.365  17.508  12.819 -0.1175  0.3218  0.0525
18463W        W34647   0.945  11.496  12.699 -0.0142 -0.1794  0.3387
18464W        W34648   4.592  16.320  11.405 -0.0063  0.0002  0.0985
18465W        W34649   1.638   7.665   3.697 -0.0292 -0.2211  0.0053
18466W        W34650  12.942  12.098  10.789  0.0656 -0.0397 -0.1913
18467W        W34651   7.731   1.854   1.076  0.0834  0.0070 -0.1623
18468W        W34652  15.714   5.426  11.748 -0.0601 -0.0596  0.6239
18469W        W34653  15.655   9.289   1.662 -0.1892 -0.1588  0.1881
18470W        W34654   2.611  11.452   3.822  0.1574  0.0381 -0.4035
18471W        W34655   2.360   0.602   2.315  0.2768  0.2033  0.0124
18472W        W34656  14.310  11.900  10.463  0.0351  0.1263 -0.3575
18473W        W34657   8.567  16.455  13.349 -0.0268 -0.1148  0.1078
18474W        W34658  13.274   7.698   2.399  0.1285  0.1498 -0.1840
18475W        W34659   9.105   8.396   1.975 -0.1288  0.1086  0.1050
18476W        W34660   0.720   2.372  13.819  0.0585 -0.0355 -0.3264
18477W        W34661  16.064  13.639   4.737 -0.0769  0.0771  0.1147
18478W        W34662   8.995   5.487  11.079 -0.2215  0.0468 -0.4833
18479W        W34663  13.276  17.583   0.075  0.0148 -0.1252  0.0394
18480W        W34664   3.849  19.112   3.143  0.0709 -0.1433  0.0374
18481W        W34665   5.991   0.885  12.392  0.2036  0.1027 -0.1143
18482W        W34666   7.937  15.959   1.579  0.3434 -0.0233 -0.1620
18483W        W34667  18.429  18.669   1.712  0.0906  0.0681  0.3390
18484W        W34668  14.671  11.147   2.071  0.0597 -0.4626  0.3525
18485W        W34669  13.786  10.587  12.416 -0.0414 -0.1972  0.0898
18486W        W34670  17.983   7.288  13.380 -0.4201 -0.3660  0.2316
18487W        W34671  15.753   7.067   5.048  0.1577 -0.1670 -0.1785
18488W        W34672   2.653  11.953  13.871 -0.1037  0.2203 -0.1824
18489W        W34673   3.030   2.709  14.149  0.0063 -0.0239  0.1477
18490W        W34674  17.958   0.143  10.886  0.1261 -0.1416 -0.0159
18491W        W34675  15.880   4.969  14.575  0.0498 -0.2654  0.0946
18492W        W34676  15.908   5.652   0.368  0.0107  0.1217  0.0116
18493W        W34677   0.014  10.074  11.459 -0.2208 -0.0097 -0.0982
18494W        W34678   1.398   4.459  14.236  0.4694  0.2018 -0.0479
18495W        W34679  16.504  19.145   4.091  0.1305  0.2919 -0.3108
18496W        W34680  17.716  15.214   3.433 -0.0922  0.0428  0.0393
18497W        W34681  18.055  13.743  13.706 -0.2816  0.0515 -0.0635
18498W        W34682   9.355  12.963  14.565 -0.1280 -0.2898  0.0953
18499W        W34683   9.332   9.585   9.953 -0.2019 -0.2168 -0.0002
18500W        W34684   5.516   9.026  10.417  0.1540 -0.0920  0.0461
18501W        W34685   0.646  13.039   0.317 -0.2530  0.2914  0.0668
18502W        W34686  10.945   9.223  13.948 -0.0453  0.0597 -0.0098
18503W        W34687  12.256  17.292   3.077 -0.0115 -0.1316 -0.1366
18504W        W34688  11.149   6.758   2.726 -0.1688  0.1073 -0.0467
18505W        W34689  12.099  14.672  13.521 -0.0196  0.0550  0.0106
18506W        W34690  11.311   7.839   5.184  0.0429 -0.1900 -0.1593
18507W        W34691   5.532   3.852   2.857  0.2008 -0.1317 -0.0033
18508W        W34692   3.791  15.955   2.809 -0.0453  0.1320  0.3837
18509W        W34693  13.574   6.150   3.755 -0.1454  0.4168  0.1519
18510W        W34694  12.500  14.026  11.164  0.0996 -0.5666 -0.1393
18511W        W34695   5.829  18.628   4.440  0.0569  0.1760 -0.1413
18512W        W34696   0.202   3.681  12.996  0.2168 -0.0908  0.2836
18513W        W34697   1.329  16.400  14.389  0.2184 -0.0462  0.2092
18514W        W34698   0.396   0.690   4.399  0.2487 -0.0379 -0.1787
18515W        W34699  12.932   8.849  11.569 -0.2543 -0.2366  0.0539
18516W        W34700  15.528  12.140   1.879  0.1537 -0.2769 -0.0266
18517W        W34701   8.508   1.855  10.706  0.1970  0.0512  0.0275
18518W        W34702  17.642  16.585   0.297 -0.2433  0.1231  0.0248
18519W        W34703   4.608  12.210   0.188 -0.1659 -0.0676  0.1905
18520W        W34704  18.469   1.425  11.999  0.0523  0.0380  0.3160
18521W        W34705   9.924  10.803   2.594  0.0921  0.1928 -0.2545
18522W        W34706  15.117  15.254   4.028 -0.5002 -0.1508 -0.0327
18523W        W34707  15.824   2.601   0.334  0.0143 -0.0318  0.0616
18524W        W34708   8.488  14.402   2.361 -0.2150 -0.2101  0.0073
18525W        W34709  10.801  17.193  13.838  0.2194  0.2725 -0.2363
18526W        W34710  18.289  17.213   1.371 -0.2304  0.1243 -0.1319
18527W        W34711  18.544   7.440   4.151 -0.4348 -0.0210  0.3537
18528W        W34712   3.969   4.243   3.349  0.2050  0.0799 -0.0098
18529W        W34713  16.202  11.014   4.438  0.6061 -0.2918  0.0507
18530W        W34714   9.267  15.423   3.441  0.0030  0.1414  0.2275
18531W        W34715   3.928   5.627  12.560 -0.1711  0.0088  0.3104
18532W        W34716  19.177  13.775   0.497  0.2285  0.1731 -0.4106
18533W        W34717   2.394   8.920  13.917 -0.0845  0.1961 -0.2578
18534W        W34718   9.414  16.446  12.418  0.1861 -0.0959  0.2401
18535W        W34719   2.833   6.106   3.985  0.0202  0.1678  0.0927
18536W        W34720  16.317  10.453  10.673 -0.0794 -0.1778 -0.2067
18537W        W34721   7.358   2.075  12.163  0.0069 -0.2522  0.1968
18538W        W34722   9.416  13.816   1.338 -0.1096 -0.0208  0.0733
18539W        W34723  18.767   0.532   1.036 -0.0942  0.2887  0.2032
18540W        W34724  11.431   1.534   0.361 -0.1614 -0.0264  0.3268
18541W        W34725  13.241  16.548   4.284 -0.1547  0.2598 -0.0721
18542W        W34726  11.409  11.972  13.869  0.2345 -0.0811  0.0338
18543W        W34727  19.208  11.078   3.812 -0.2189  0.1366 -0.2746
18544W        W34728   8.320  14.274  11.345 -0.2575 -0.1297 -0.0450
18545W        W34729  13.055  16.257  12.106 -0.1319 -0.2468 -0.0786
18546W        W34730  18.681   3.447   1.163  0.0235 -0.0978 -0.1074
18547W        W34731   2.008  17.169   4.799  0.0156  0.2482 -0.0874
18548W        W34732  15.464   4.666  14.588  0.2043  0.0463  0.1421
18549W        W34733  17.360   0.632   3.558 -0.2081 -0.2254  0.2293
18550W        W34734   5.975  12.196   1.195 -0.2057  0.0851  0.0386
18551W        W34735   8.623   5.810   2.983 -0.1116 -0.3487  0.0850
18552W        W34736   3.128   9.528  14.492 -0.0875 -0.1123 -0.3504
18553W        W34737   5.110  14.301   2.442  0.0889  0.1246  0.0215
18554W        W34738  10.689  13.290  14.081 -0.1013 -0.2635  0.3708
18555W        W34739   5.083  16.435   2.448  0.2022  0.1101  0.4728
18556W        W34740   9.308   9.445  10.851  0.2376  0.1260 -0.3367
18557W        W34741  13.202   8.476  11.191 -0.2020  0.1014 -0.0652
18558W        W34742   9.780   3.371   2.929  0.1448  0.2586  0.0819
18559W        W34743   6.004   3.783   3.184  0.0905 -0.0334  0.1503
18560W        W34744  12.768   0.492  11.525 -0.0424 -0.0018 -0.3754
18561W        W34745   1.319  11.939  11.397 -0.0519 -0.0984 -0.1057
18562W        W34746  11.688  13.404  14.400 -0.0718 -0.0459 -0.1603
18563W        W34747   5.998  17.752   5.144  0.1006 -0.1098 -0.0516
18564W        W34748   7.660   0.605  13.543  0.0807  0.0545  0.1071
18565W        W34749   5.699  11.263   2.941 -0.1789 -0.1826 -0.1119
18566W        W34750  14.778   2.063   2.423 -0.0452  0.1840  0.1919
18567W        W34751  12.998   1.115  14.952  0.2402  0.0043  0.0517
18568W        W34752   9.850  14.712  13.670 -0.5051 -0.1370  0.0273
18569W        W34753  13.963   1.895   3.409  0.5386  0.1015 -0.2995
18570W        W34754   8.935   2.896  12.519 -0.1155  0.1490  0.1104
18571W        W34755   8.569   7.247   3.498  0.4781 -0.0551  0.3735
18572W        W34756   1.263   7.610   2.779 -0.2304  0.0649  0.0445
18573W        W34757   3.952  15.498   2.644  0.2839 -0.0689 -0.0250
18574W        W34758  16.796  15.576  11.824  0.1756 -0.0289  0.0104
18575W        W34759  10.065  17.665  11.872 -0.0659 -0.0836 -0.1154
18576W        W34760  11.992   3.393   0.124 -0.3010  0.2476  0.0213
18577W        W34761   2.673   3.523   1.570  0.4159 -0.1277  0.0145
18578W        W34762   3.808   6.331   3.742 -0.1550 -0.2163  0.2033
18579W        W34763   9.239  10.602   4.438  0.3619 -0.0401 -0.0108
18580W        W34764   3.881   8.878   4.827  0.0863 -0.0683 -0.1933
18581W        W34765  13.413  15.658  11.817  0.0779 -0.0768 -0.0295
18582W        W34766  11.109   8.738   5.914 -0.1695  0.2843 -0.0190
18583W        W34767  19.085  13.409   3.612 -0.2423 -0.3781  0.1005
18584W        W34768   8.156   1.955   3.468  0.2489  0.2855  0.0649
18585W        W34769   1.883  11.422   2.508  0.1175  0.0115  0.0136
18586W        W34770   5.111   3.040  13.061 -0.0097  0.0373 -0.1744
18587W        W34771  12.265  10.834   4.502  0.4825  0.1100  0.0007
18588W        W34772  13.027   9.252   4.372  0.1993 -0.0158 -0.0600
18589W        W34773  17.212   5.810  11.313 -0.2833 -0.2435  0.0663
18590W        W34774  11.834  14.862  11.900  0.0846 -0.1472  0.0494
18591W        W34775  15.083   6.986   4.496 -0.0367  0.2519  0.1820
18592W        W34776  16.784   4.390  12.808  0.1603 -0.1356 -0.3853
18593W        W34777  11.712  11.685   2.727  0.2792 -0.0126  0.3182
18594W        W34778   7.393  14.272   1.537 -0.0543  0.3016  0.1925
18595W        W34779   6.262  18.824   3.626  0.1699 -0.0820  0.0836
18596W        W34780   1.012  16.952  10.858 -0.0020 -0.1175  0.3515
18597W        W34781   9.881   4.060  11.752 -0.1357 -0.1231 -0.3347
18598W        W34782  11.504  17.976  13.378  0.0419 -0.0800  0.1015
18599W        W34783   3.561  15.292   4.455 -0.1408 -0.1677 -0.0841
18600W        W34784  18.342   5.245  11.111 -0.0240 -0.0748 -0.0078
18601W        W34785   4.954  18.661   2.546 -0.0883 -0.1596  0.2249
18602W        W34786  15.174  13.924  14.470 -0.0505  0.2737 -0.1121
18603W        W34787  14.527   5.893  14.957 -0.1238 -0.2125  0.1928
18604W        W34788  16.377   1.478  12.483  0.1163 -0.0135  0.1622
18605W        W34789   5.349  11.759  12.681 -0.0768 -0.1014  0.1224
18606W        W34790  15.338  14.389   2.552 -0.0541 -0.1790 -0.1876
18607W        W34791  12.444   7.799   3.807 -0.1941  0.0302  0.0724
18608W        W34792  14.373   4.281  13.618 -0.0488 -0.0795  0.2582
18609W        W34793   5.352   2.017   4.712 -0.2723 -0.0943 -0.2820
18610W        W34794  13.020   2.597  12.844  0.1037  0.3314 -0.2507
18611W        W34795  16.350  11.855  14.711  0.1170 -0.0591 -0.0104
18612W        W34796   9.907  18.474   0.094 -0.1989  0.0259  0.0701
18613W        W34797  16.198   7.169   5.424  0.0812  0.0949 -0.2763
18614W        W34798  16.016   5.440   0.832  0.0797 -0.0314  0.2437
18615W        W34799   5.323   7.967  10.542 -0.2504  0.0782  0.1250
18616W        W34800   0.020   7.225   1.471  0.2785  0.2463 -0.1314
18617W        W34801  11.680   1.102  12.957  0.3038 -0.3871  0.0286
18618W        W34802  12.845  10.994  12.223 -0.0042 -0.0892  0.2120
18619W        W34803   0.103   6.381   2.115 -0.1092  0.0316 -0.0857
18620W        W34804  10.838   9.037  12.621 -0.3561 -0.1330  0.1172
18621W        W34805  14.161  16.509  12.484  0.1087 -0.1927  0.0041
18622W        W34806   2.711   2.534   4.186 -0.1370 -0.5044  0.1738
18623W        W34807   4.070   5.321  10.401  0.1500  0.0089  0.3342
18624W        W34808   0.179   3.145   2.660  0.3136 -0.3213 -0.2541
18625W        W34809  18.255  16.175   2.991 -0.2861 -0.1587 -0.0727
18626W        W34810  13.712  15.565  13.882  0.1778  0.2004 -0.1866
18627W        W34811  17.484  15.762  11.802 -0.2410  0.0214  0.2815
18628W        W34812  18.163  13.346  14.072 -0.1178 -0.0781 -0.3198
18629W        W34813  12.237   2.679  13.714 -0.0673 -0.0651  0.3242
18630W        W34814  16.924  17.280  13.015  0.1399  0.2788  0.0045
18631W        W34815   6.510  15.998   2.322 -0.1453  0.1189  0.1369
18632W        W34816  16.712   9.427  11.045 -0.1314  0.0664 -0.1941
18633W        W34817   5.474   8.485  10.476 -0.0413 -0.1289  0.2534
18634W        W34818   9.046  11.990   0.784  0.0322  0.3299  0.3415
18635W        W34819  17.415  16.138  11.483  0.0491  0.0061  0.2908
18636W        W34820   2.727  17.211  11.160 -0.3524 -0.0406  0.3010
18637W        W34821   3.930   2.727  14.130 -0.2264 -0.0071  0.0070
18638W        W34822   8.581  16.073  12.383 -0.1493  0.0024 -0.3267
18639W        W34823   2.298   1.872  14.821  0.1606  0.3277  0.2693
18640W        W34824   5.590   8.682   5.255  0.3057 -0.2547  0.3344
18641W        W34825  19.011   4.965   3.228 -0.1039 -0.1582 -0.2720
18642W        W34826   8.125  16.482  14.136 -0.0255 -0.2083 -0.2383
18643W        W34827   8.045  17.756   1.799  0.2523 -0.1781  0.1726
18644W        W34828   2.398  17.602  14.831  0.0119 -0.1583 -0.2308
18645W        W34829   3.819   4.607   3.032  0.0414 -0.0163 -0.1245
18646W        W34830   4.057   0.900   3.462  0.1061 -0.1588 -0.1177
18647W        W34831   3.083   7.252   0.188  0.0658  0.2801  0.0880
18648W        W34832  16.130  18.612   4.505 -0.2013  0.2106  0.0155
18649W        W34833   5.865  12.123   3.893  0.1118  0.0525  0.1459
18650W        W34834   4.801  18.287   0.498 -0.3646  0.3861 -0.3114
18651W        W34835  15.060   6.336  12.541  0.2653 -0.2567 -0.5518
18652W        W34836  16.936  10.920  14.813 -0.3387 -0.0449 -0.0904
18653W        W34837  17.207  11.614  10.448  0.0192 -0.3108  0.0887
18654W        W34838  13.979   4.129   3.979  0.1230  0.2462 -0.2148
18655W        W34839  15.522  18.406  14.271  0.0462 -0.0465  0.3275
18656W        W34840  13.263  14.575  12.156 -0.0394  0.2148 -0.0074
18657W        W34841   0.855   0.336   4.045 -0.2599  0.0068  0.2367
18658W        W34842   7.939   5.747  13.025  0.1185 -0.1754  0.3064
18659W        W34843  17.822   6.145  14.922  0.0444 -0.2050 -0.2095
18660W        W34844  12.315   2.874  12.119  0.0800 -0.1878 -0.0585
18661W        W34845  15.991  13.470   2.316 -0.2104  0.2560 -0.0229
18662W        W34846   6.122  11.888  12.196 -0.0240 -0.1319 -0.1264
18663W        W34847   5.076   2.029   3.351 -0.0207  0.1324 -0.0546
18664W        W34848   7.731   2.671  14.120 -0.1417  0.4908  0.2316
18665W        W34849  12.504  11.274   4.967  0.1317 -0.0840  0.0960
18666W        W34850   7.346   4.214  14.944  0.2748  0.0064 -0.1806
18667W        W34851   6.432  11.312   4.892  0.1102 -0.1573 -0.0252
18668W        W34852  14.319   5.566   0.686  0.3389  0.1499 -0.0156
18669W        W34853   6.136  16.706   3.454  0.1944 -0.1821 -0.0832
18670W        W34854   5.772   6.543   3.131  0.0614  0.2324  0.1663
18671W        W34855   6.075  17.789  13.922  0.2725 -0.2428  0.1685
18672W        W34856  19.182  13.090   5.247  0.0051 -0.0935 -0.0703
18673W        W34857   4.983   0.329   2.563  0.1696  0.0263  0.1029
18674W        W34858  11.912   4.228   1.431 -0.0642  0.0154  0.1368
18675W        W34859   2.014   3.058  10.848  0.1273 -0.0918 -0.2222
18676W        W34860  13.062   3.849   3.004  0.1256 -0.0358 -0.2524
18677W        W34861  11.006   5.729  14.129  0.1468 -0.0431  0.1994
18678W        W34862  17.820   8.599   9.904 -0.0348 -0.1667  0.3084
18679W        W34863  13.794   3.081   1.303 -0.2510 -0.0689 -0.1570
18680W        W34864   3.276   2.266   0.374  0.1452 -0.0873 -0.2373
18681W        W34865  12.979   2.545  13.825 -0.0615  0.2375 -0.2046
18682W        W34866  13.572  17.119  11.401 -0.0250  0.3239 -0.0124
18683W        W34867   2.726   9.001  11.843 -0.1201 -0.3166  0.2035
18684W        W34868   0.398   5.881   2.850 -0.1750  0.0909 -0.0408
18685W        W34869   5.750   0.925   4.692  0.0380 -0.1913 -0.1457
18686W        W34870  12.479   7.867  11.096  0.0939 -0.1328 -0.0916
18687W        W34871  12.157  16.466   4.275  0.0788 -0.0958  0.1016
18688W        W34872  11.054  16.254   4.384 -0.0764  0.0351 -0.1947
18689W        W34873   2.155   4.524   5.093 -0.2106  0.3221 -0.6340
18690W        W34874   9.399  10.196  14.463 -0.3147 -0.0783  0.1256
18691W        W34875   0.843   5.467  13.557 -0.0505  0.3562  0.1284
18692W        W34876  13.303  15.354   5.058 -0.2823 -0.0082 -0.0137
18693W        W34877  11.169  10.582  11.607 -0.2765 -0.3259 -0.2869
18694W        W34878   1.963   3.302   3.731 -0.3120 -0.3093 -0.1688
18695W        W34879  12.870   4.896   4.263 -0.1255  0.0024 -0.0639
18696W        W34880  17.246  14.204   0.659 -0.1664  0.4025  0.1124
18697W        W34881   6.664   3.582  13.693 -0.0193  0.0872  0.1426
18698W        W34882   5.978  15.389   5.523  0.2835  0.3275  0.2351
18699W        W34883   5.135   8.047   4.883 -0.0681 -0.1193  0.1961
18700W        W34884  14.321   1.614   2.387  0.4066  0.3156 -0.3949
18701W        W34885   5.041  18.511   2.000 -0.3437  0.0711 -0.1137
18702W        W34886  16.292   8.047   1.837  0.1177  0.1059  0.2623
18703W        W34887   8.944  15.368   0.657  0.3709  0.2408  0.2353
18704W        W34888   1.339   4.648  11.255  0.0163  0.1426 -0.1996
18705W        W34889  12.746  16.746  14.088  0.0712  0.0801 -0.0285
18706W        W34890   0.147  10.208  10.945  0.0755 -0.2513  0.4702
18707W        W34891  10.123  12.171   1.056 -0.3941  0.0933 -0.1477
18708W        W34892   9.350  13.228  13.178  0.0105  0.1963 -0.4112
18709W        W34893   7.539   4.011   1.337 -0.2349  0.2624 -0.0281
18710W        W34894   7.388   5.657   4.157  0.1011 -0.4415 -0.1394
18711W        W34895  15.369   9.440   4.879  0.0962 -0.1190 -0.0314
18712W        W34896  11.634  15.899   3.714  0.0579  0.1034 -0.0554
18713W        W34897  15.541  13.454   4.888  0.3109 -0.1478 -0.2687
18714W        W34898  13.255  17.759   3.762  0.0762  0.0462  0.3000
18715W        W34899   2.824  15.817   2.365  0.0685 -0.0136 -0.0540
18716W        W34900  12.584   0.980   0.815 -0.1681 -0.0572 -0.0440
18717W        W34901   4.195   8.462   4.149 -0.0488 -0.0179 -0.0701
18718W        W34902  16.357   4.097  12.784  0.3064 -0.4470  0.0466
18719W        W34903   0.639   7.265  14.419  0.1497 -0.1402 -0.1237
18720W        W34904  13.137  12.345   4.272 -0.6081  0.0370 -0.1778
18721W        W34905   6.357  15.387  11.345 -0.1419 -0.0926 -0.2885
18722W        W34906   9.878   2.087  12.519  0.2801  0.1904  0.0272
18723W        W34907   9.591  18.962   4.004 -0.2650 -0.1886  0.1887
18724W        W34908   6.623  15.173   2.837 -0.0507  0.1575  0.3660
18725W        W34909   0.118  16.956   4.558  0.0027  0.0112 -0.1399
18726W        W34910  12.748   1.959   1.462 -0.0850 -0.2823 -0.0682
18727W        W34911   4.628   2.077  13.313 -0.1607  0.1125  0.4693
18728W        W34912   7.149   5.865   4.596  0.1429  0.3562  0.1994
18729W        W34913   2.864  17.040  14.255 -0.1344  0.3112  0.1083
18730W        W34914  19.372  10.455  13.313 -0.0659 -0.2150  0.0321
18731W        W34915   4.825  15.807   3.131 -0.3739 -0.0338 -0.2704
18732W        W34916   4.077  14.220   2.639  0.1050  0.1187 -0.2322
18733W        W34917  19.242   5.455   3.252 -0.0347  0.2453 -0.2077
18734W        W34918  13.025  14.859  13.850 -0.0376 -0.2287  0.2660
18735W        W34919   1.810   3.364   5.691  0.2066 -0.0936  0.0469
18736W        W34920   4.456  14.080   1.802 -0.3809 -0.2078  0.0355
18737W        W34921   0.179   6.772   0.654 -0.1596  0.1899 -0.2134
18738W        W34922  14.729   3.741   2.886 -0.0556  0.2457  0.3011
18739W        W34923  19.111   0.534   4.365  0.1043 -0.1737  0.2577
18740W        W34924   1.838  11.948   4.152  0.2925  0.2792 -0.0842
18741W        W34925  11.155   3.537  10.739  0.0675  0.2751 -0.1030
18742W        W34926   1.681   7.161  12.372  0.3178  0.0012  0.0656
18743W        W34927  10.789   3.013   3.918 -0.1127  0.1482  0.0919
18744W        W34928  17.660  17.836  14.518  0.1552 -0.1787  0.0648
18745W        W34929  11.218  14.475   2.977 -0.1568 -0.2078 -0.1771
18746W        W34930  10.213   4.563  13.366 -0.0816  0.4123  0.6041
18747W        W34931  10.134  13.730  13.791  0.0240  0.1511  0.1011
18748W        W34932  14.935   1.319  10.209 -0.0961 -0.0722 -0.1739
18749W        W34933   2.126   9.087  13.539 -0.0133  0.0599  0.2093
18750W        W34934   4.076   4.153  13.081  0.1271  0.0879  0.0164
18751W        W34935  17.989   8.029   2.061 -0.2015 -0.0077 -0.1820
18752W        W34936   0.351  12.875   4.289  0.0502 -0.4251 -0.4591
18753W        W34937   0.499  13.697  12.627  0.0104 -0.3224 -0.1786
18754W        W34938  14.389  13.875   3.941 -0.1230  0.1568 -0.2764
18755W        W34939  17.337  19.175   3.291  0.3853 -0.2705 -0.3262
18756W        W34940  14.339   8.129  11.274  0.0577 -0.0154  0.4757
18757W        W34941   9.101  17.495  11.198 -0.0790 -0.2136  0.0013
18758W        W34942   1.124  17.966  14.739  0.2504 -0.0281 -0.0770
18759W        W34943  18.042  16.782  11.059 -0.1837 -0.4417  0.1599
18760W        W34944  10.400   5.984   3.617  0.1957 -0.1749 -0.1642
18761W        W34945  13.695  13.027  13.397  0.0301 -0.2785  0.0055
18762W        W34946   8.221   7.501  11.351 -0.0368 -0.1641  0.0649
18763W        W34947  12.052  12.269  11.841  0.0486 -0.0190  0.4165
18764W        W34948  14.078   0.625   1.633 -0.2134 -0.0257 -0.1448
18765W        W34949   0.015   3.708   3.248 -0.2652 -0.2161  0.2251
18766W        W34950  10.903  11.837  12.035  0.0795 -0.1045  0.0584
18767W        W34951  10.487  16.565  13.142  0.0602  0.0161 -0.1079
18768W        W34952   2.596   1.440   3.603  0.2528 -0.2881 -0.4554
18769W        W34953   5.555  15.206   0.601  0.0695 -0.1468  0.0350
18770W        W34954  15.642   5.639   9.963 -0.1033  0.2659 -0.1584
18771W        W34955   2.008   5.327  11.634  0.2392  0.0836  0.1144
18772W        W34956   4.155  14.939   5.854 -0.1444 -0.0439  0.0029
18773W        W34957   0.750   2.457   3.878  0.0441 -0.1092 -0.0776
18774W        W34958  14.619  11.420   0.886 -0.1073  0.1009 -0.0050
18775W        W34959   3.670   7.839  10.489  0.1204 -0.0316 -0.0368
18776W        W34960   1.696   1.311   2.094  0.0809  0.1227  0.2086
18777W        W34961   6.193  15.757   4.861  0.1672 -0.2462  0.1493
18778W        W34962   2.808   5.365  14.679 -0.0034  0.2621  0.2014
18779W        W34963   3.740   4.097  14.573 -0.1491  0.1916  0.0144
18780W        W34964  12.517  15.662  10.803 -0.0414  0.0076  0.3823
18781W        W34965   7.953   6.736   2.073 -0.3323 -0.1870 -0.1641
18782W        W34966   0.068  12.939  14.617 -0.1177 -0.1030 -0.0848
18783W        W34967   3.739  10.119   2.587  0.0191  0.0273 -0.1048
18784W        W34968  16.002   2.593   5.387 -0.1692  0.0279  0.1185
18785W        W34969   1.100  12.450  13.510 -0.0060  0.2563  0.2363
18786W        W34970   9.672  16.453   0.146 -0.2386 -0.2307  0.2057
18787W        W34971   5.729   4.361  10.757  0.4155 -0.2895 -0.0295
18788W        W34972   0.812   6.638  11.268 -0.3018  0.2943 -0.0298
18789W        W34973  17.366   8.593  13.179  0.1143  0.2057 -0.2546
18790W        W34974   8.186  15.447  11.285 -0.2863 -0.5674 -0.1442
18791W        W34975   8.215   4.164  11.335 -0.3465 -0.1914  0.1614
18792W        W34976  15.600   9.787   1.930 -0.1092  0.1596  0.1888
18793W        W34977  11.774   8.558  10.566  0.2025 -0.2182 -0.0629
18794W        W34978  13.848  10.386  14.059 -0.2090  0.0182 -0.0174
18795W        W34979  14.282   3.860   1.255 -0.1418  0.2690 -0.0063
18796W        W34980  10.723  10.526  11.861  0.3007 -0.1507  0.1651
18797W        W34981   8.373  11.279  13.923  0.0572  0.0236  0.2064
18798W        W34982   2.413   2.013   2.916 -0.2880  0.2515  0.1886
18799W        W34983   4.075   1.482   1.502  0.0930 -0.0219  0.3305
18800W        W34984   8.922   7.330   1.109 -0.2312 -0.2169 -0.0116
18801W        W34985  18.921   8.205  11.531 -0.1813  0.0496 -0.3111
18802W        W34986  13.044   4.621  14.014 -0.2175  0.4463 -0.0260
18803W        W34987   6.614  13.667   3.761  0.1798 -0.2613 -0.3329
18804W        W34988  17.901   6.781  13.503 -0.2098  0.1143 -0.1430
18805W        W34989  17.206   8.709   3.892 -0.0728  0.3265  0.1332
18806W        W34990   9.864  18.135  12.692 -0.0808 -0.0343 -0.2019
18807W        W34991  17.718   1.532   4.689  0.0952 -0.0511  0.0181
18808W        W34992  14.752  16.553  13.178 -0.0326 -0.0109  0.1088
18809W        W34993   7.462   4.622  11.543  0.1691 -0.4404  0.6352
18810W        W34994   7.608  14.043  14.494 -0.0727 -0.3573 -0.0020
18811W        W34995   8.410   0.439  12.885 -0.2236 -0.2924 -0.0167
18812W        W34996   4.301  11.625   2.147 -0.0564  0.2489 -0.0462
18813W        W34997  11.179  14.752   0.767 -0.0034 -0.3170 -0.1232
18814W        W34998   9.443  10.344  10.497 -0.0231  0.0126 -0.3423
18815W        W34999   2.308   7.581  11.818  0.1606 -0.1367  0.0361
18816W        W35000  17.114  14.392   0.244  0.3298  0.0843  0.2363
18817W        W35001   5.424   4.522  14.350  0.1579  0.0811 -0.1218
18818W        W35002  17.024   7.644   2.470 -0.3938  0.3041  0.0974
18819W        W35003  11.040  16.401   0.109  0.0739 -0.0677 -0.0682
18820W        W35004  16.017   8.395  13.818  0.1707  0.3728 -0.0859
18821W        W35005  13.468   9.422   5.034 -0.2536 -0.1498 -0.1805
18822W        W35006   2.370   1.328   1.423  0.0083  0.1580 -0.1296
18823W        W35007   0.516   0.861   2.752 -0.1229  0.1146  0.2408
18824W        W35008   2.201   0.442  12.430  0.2311  0.0364 -0.2989
18825W        W35009  13.272  17.303   2.940 -0.2615  0.1858  0.2118
18826W        W35010  18.894  17.076   0.570  0.2743  0.1064 -0.0275
18827W        W35011  14.733  13.330   3.518 -0.1414 -0.1529 -0.1902
18828W        W35012   8.929   4.753   0.819  0.1400  0.1068  0.0554
18829W        W35013   4.279   0.208  13.065 -0.1493  0.1512  0.1370
18830W        W35014  15.150  10.557   2.444  0.0151  0.0181 -0.0117
18831W        W35015   2.352   1.891   2.113  0.3421  0.3912  0.1748
18832W        W35016  18.296  14.975   1.031  0.1696  0.3284  0.1643
18833W        W35017   6.872  13.388  10.417  0.2037 -0.0350  0.2687
18834W        W35018   0.090   5.151  11.462 -0.0240  0.1318 -0.2871
18835W        W35019   7.556   0.532   3.226  0.4141  0.0690 -0.2437
18836W        W35020   3.931   8.222  10.679 -0.0217 -0.0946 -0.2613
18837W        W35021   6.242  18.901   4.753  0.4024  0.2216  0.1794
18838W        W35022   8.327  15.809   3.248 -0.0088  0.3628  0.0505
18839W        W35023   2.230  15.777   0.386  0.2210 -0.0720 -0.4452
18840W        W35024  17.560   1.674  10.604  0.0929  0.2260 -0.1978
18841W        W35025  12.030   1.479  13.378  0.5032 -0.1758  0.0160
18842W        W35026   0.751  19.048  11.963  0.2676 -0.0382  0.2013
18843W        W35027   9.823   3.095   0.217 -0.1311  0.0803 -0.1038
18844W        W35028  11.687  14.438  11.587 -0.1709 -0.0998  0.2415
18845W        W35029   6.089  10.063   0.933 -0.4216 -0.0287 -0.2180
18846W        W35030  12.839  13.728   1.540  0.2366  0.1491 -0.0495
18847W        W35031   2.103  12.805  11.102 -0.2005  0.0434  0.2445
18848W        W35032  14.105   7.278   1.062 -0.2138 -0.0705 -0.1591
18849W        W35033  11.958   1.012  11.098 -0.1715  0.1245  0.1388
18850W        W35034   6.557   3.626   0.139 -0.2465 -0.1686  0.0669
18851W        W35035  18.884   1.489   0.081 -0.0662  0.2572  0.0891
18852W        W35036  13.675  12.449   4.216 -0.0086 -0.1227  0.0900
18853W        W35037   3.833  12.121  14.556 -0.1782 -0.1647 -0.2742
18854W        W35038  14.602  18.976  12.017 -0.0932  0.3650  0.2934
18855W        W35039  15.410  17.930   2.282 -0.5257 -0.0112  0.2982
18856W        W35040  18.191  11.036   2.587  0.5269  0.0247  0.0976
18857W        W35041   5.664  13.965  13.671  0.0131  0.1718  0.0390
18858W        W35042  12.146  11.994  14.482 -0.0455 -0.1706  0.2299
18859W        W35043  14.751  11.760   9.831 -0.3958 -0.1910 -0.1124
18860W        W35044   2.727   6.519   0.302  0.0260  0.1923  0.2619
18861W        W35045   1.096  17.478  12.953  0.2766  0.0893  0.1874
18862W        W35046   5.636   1.906  12.302 -0.0865 -0.2845  0.1980
18863W        W35047   1.649  16.486   3.348  0.0816 -0.1250  0.0605
18864W        W35048   5.812  10.329  11.694 -0.3116 -0.0639 -0.0894
18865W        W35049  14.430  17.525   0.003 -0.2405 -0.1196  0.1484
18866W        W35050   9.738   5.617   4.326  0.1263 -0.4001  0.2064
18867W        W35051  18.933   5.559   3.667  0.0134 -0.0070 -0.0126
18868W        W35052   1.501  14.430   3.096 -0.1514 -0.2979 -0.0392
18869W        W35053   2.741   4.510  12.865  0.2756  0.0375  0.3464
18870W        W35054  12.764  12.451  12.964  0.1273  0.1977  0.0655
18871W        W35055   4.936  13.667  12.714 -0.2576 -0.1058  0.2120
18872W        W35056  15.917   2.536   1.315  0.0659 -0.0806  0.1412
18873W        W35057   5.305   2.046   0.255  0.0062 -0.0876  0.0576
18874W        W35058  13.053  19.198   3.526  0.0516  0.0293  0.1884
18875W        W35059   1.306   4.920  14.024 -0.1329 -0.0776 -0.4067
18876W        W35060  17.433   7.376   0.129 -0.0804  0.0359  0.0801
18877W        W35061   2.031   6.724   1.412 -0.3673  0.1101 -0.1144
18878W        W35062  10.840   5.136   1.886  0.0745 -0.1135 -0.4974
18879W        W35063   5.049  14.960   0.615 -0.1401  0.2453 -0.1134
18880W        W35064  18.757  13.967  11.057 -0.6735  0.1207 -0.2074
18881W        W35065   5.232   4.856  12.543  0.0629  0.3097  0.0431
18882W        W35066   4.674   2.746  12.137  0.0725  0.0432  0.4360
18883W        W35067   6.675   6.145  12.241  0.0031  0.0135 -0.0884
18884W        W35068  10.024  13.739   0.366  0.0573  0.3325 -0.0464
18885W        W35069   7.124   0.481   3.450 -0.0775  0.1232  0.0028
18886W        W35070   2.159   7.148   0.030  0.0775 -0.3183 -0.0891
18887W        W35071  18.091  17.478   3.571  0.1744  0.0244 -0.0790
18888W        W35072  13.114  10.599   4.962  0.2946  0.1124 -0.1099
18889W        W35073   5.101   5.200  12.142 -0.1725 -0.0675 -0.0648
18890W        W35074   3.458  18.326   5.005  0.0565 -0.1056  0.4267
18891W        W35075   3.896  15.138  13.661  0.1590 -0.0033  0.0117
18892W        W35076   2.995  18.868   1.087  0.1516 -0.0458  0.0003
18893W        W35077  19.160  12.058  14.288  0.1033  0.0685 -0.0824
18894W        W35078  12.646  14.317  11.627  0.3085  0.0172 -0.3014
18895W        W35079   2.580   4.082   2.530 -0.1236 -0.1961  0.2430
18896W        W35080   3.857  18.002   0.285 -0.1440  0.1210 -0.1297
18897W        W35081  17.885  15.057   5.637  0.0421 -0.0560  0.0141
18898W        W35082  18.912  11.066   1.424 -0.0012 -0.1716  0.1251
18899W        W35083   0.676  19.245   2.270  0.0877  0.1946  0.2077
18900W        W35084  14.202   0.481   2.117 -0.1541  0.0998  0.1365
18901W        W35085  16.243  15.461   2.485 -0.0168  0.0201  0.0480
18902W        W35086  11.685   8.623   2.824 -0.1284 -0.1925 -0.4931
18903W        W35087  16.950  12.422   2.565  0.2042  0.1579 -0.1427
18904W        W35088  15.867  15.530  14.715  0.0411  0.0122 -0.0131
18905W        W35089  15.204   3.027   0.949 -0.1725  0.4385 -0.0137
18906W        W35090   2.418  14.338   2.986 -0.0787  0.0390  0.3118
18907W        W35091  12.499  12.316  14.442  0.1444 -0.0395  0.2321
18908W        W35092   6.171  13.490   3.794  0.0540  0.1747  0.0302
18909W        W35093   3.757   5.942  12.187 -0.1664  0.0076 -0.4911
18910W        W35094  11.594  11.184   1.195  0.0436  0.0734  0.0144
18911W        W35095  10.227   1.721   2.668  0.0271  0.0019  0.0099
18912W        W35096  15.097  17.872  13.784 -0.1212 -0.2816  0.0214
18913W        W35097   4.740   2.118  12.206  0.1742  0.0041 -0.0606
18914W        W35098   5.862  14.394   1.132  0.0684 -0.0499  0.0071
18915W        W35099   2.589   1.759   1.306 -0.7292 -0.2346 -0.1176
18916W        W35100  14.111  19.013   4.129  0.2825 -0.0497  0.0936
18917W        W35101  10.476  10.288  14.839  0.3225 -0.2100 -0.2274
18918W        W35102  14.314   2.102   2.604  0.3598  0.1680  0.1827
18919W        W35103  11.540  17.588  14.474  0.0882  0.1085 -0.0439
18920W        W35104  13.132   6.814   4.678 -0.0161 -0.0180  0.2481
18921W        W35105   2.887   1.936  10.702 -0.0985  0.0171  0.0389
18922W        W35106  12.800  13.551  13.822 -0.5410  0.0415  0.1095
18923W        W35107   7.956   4.414   3.625 -0.2146 -0.2854 -0.2804
18924W        W35108   1.105   1.981  13.143 -0.2118 -0.2258 -0.1591
18925W        W35109  14.072  18.598   0.527 -0.1188 -0.3281 -0.2032
18926W        W35110   6.664   0.012   0.145  0.0312  0.0887  0.2845
18927W        W35111  11.949   5.970  11.584 -0.0898  0.0011 -0.1585
18928W        W35112  19.094  15.478   0.655  0.1925  0.0556  0.0175
18929W        W35113  16.289   1.829  10.368 -0.2218 -0.3038 -0.3353
18930W        W35114   6.743  11.532   1.651 -0.2049 -0.0956  0.0115
18931W        W35115   1.762  15.905   1.963 -0.0151 -0.2414  0.0254
18932W        W35116  15.497  12.438  11.807  0.2011 -0.1024  0.2270
18933W        W35117  17.603   4.254  11.512  0.1074 -0.1478  0.3481
18934W        W35118  12.284   8.353   4.068  0.1549  0.0163  0.1887
18935W        W35119   7.613   4.877   0.377  0.1101  0.0141  0.0314
18936W        W35120   0.062   5.990  13.583 -0.1253 -0.1704 -0.2097
18937W        W35121  18.273  18.981   4.519  0.0290  0.3289  0.5691
18938W        W35122   0.783   0.160  13.910  0.0264 -0.1243 -0.2344
18939W        W35123  13.856   7.742   4.809  0.0677  0.1079 -0.1422
18940W        W35124   9.644   8.516  11.878  0.0679 -0.2599 -0.0191
18941W        W35125   0.161  16.731  11.809 -0.0880 -0.3599  0.3981
18942W        W35126   7.485   1.256  10.252 -0.2843  0.0016 -0.0608
18943W        W35127  14.628  11.464  11.860 -0.1247 -0.2474 -0.4213
18944W        W35128   3.871   4.577  11.591 -0.5339 -0.1858 -0.0283
18945W        W35129   8.754   9.966  11.241  0.3079  0.1164  0.1209
18946W        W35130   8.903  17.426   3.443  0.0910 -0.2786 -0.0901
18947W        W35131  14.833   9.430   9.779  0.0081 -0.0679 -0.3341
18948W        W35132  11.211   5.115   2.936  0.1562 -0.0425 -0.0094
18949W        W35133   4.171  16.180   4.279 -0.2060  0.0276 -0.0189
18950W        W35134  18.787  18.304   1.587  0.1090  0.1053 -0.1705
18951W        W35135   6.654  11.474  11.994 -0.1130 -0.4731 -0.0629
18952W        W35136   8.122  15.107   3.677 -0.2475 -0.2673  0.1139
18953W        W35137   7.830   0.103  14.294 -0.0693  0.2700 -0.4269
18954W        W35138  14.580  12.689   0.228  0.1281 -0.2407 -0.0744
18955W        W35139   9.069   8.254  10.331  0.0188 -0.2255 -0.0580
18956W        W35140  13.346  16.951   2.264 -0.1894 -0.0183 -0.3553
18957W        W35141   4.689   2.532  10.182 -0.3033 -0.0815 -0.3180
18958W        W35142   1.832  14.201   2.804  0.0172 -0.1158 -0.0652
18959W        W35143  10.460  19.210   0.356  0.0008 -0.0263  0.1365
18960W        W35144  13.878   1.325  10.484  0.1614  0.1748  0.1114
18961W        W35145   5.316  12.882   2.836 -0.0734  0.2064  0.1550
18962W        W35146   3.419   4.750  13.416  0.2156  0.0421  0.1011
18963W        W35147  17.512   2.491  12.539 -0.0885 -0.0936 -0.2909
18964W        W35148  11.863   8.635   4.410 -0.0917  0.0163  0.1010
18965W        W35149  17.531  10.153  13.789 -0.1509 -0.0809 -0.1147
18966W        W35150   7.697   0.916   2.913 -0.2690 -0.0918  0.4201
18967W        W35151  16.872   1.786   0.677 -0.3235  0.2920  0.2345
18968W        W35152   8.285  19.169  10.835  0.2785  0.5003 -0.0971
18969W        W35153   1.980   9.715  10.164 -0.2346 -0.2215 -0.2445
18970W        W35154  10.382  12.856   3.459 -0.1803  0.2477 -0.0409
18971W        W35155   7.727  11.138   5.526  0.0699  0.0568  0.2983
18972W        W35156  12.710   7.389  11.238  0.0988  0.0031 -0.3983
18973W        W35157  12.282  11.533  12.111  0.2048 -0.2671 -0.3464
18974W        W35158   4.989   9.509   0.819  0.0960 -0.1113  0.0387
18975W        W35159  14.098   7.540   0.544  0.1196  0.1191  0.1561
18976W        W35160  15.085  11.328   1.150 -0.2381 -0.0644 -0.2367
18977W        W35161   3.889   4.933   0.141 -0.3915  0.1602  0.1725
18978W        W35162  12.119   2.221  11.379 -0.0357  0.0479  0.1849
18979W        W35163  16.800   5.239  13.726  0.0595  0.1659  0.0715
18980W        W35164   8.307   8.659   4.970 -0.0269 -0.1394 -0.0204
18981W        W35165  15.566  14.484   0.232 -0.0702 -0.1576  0.0337
18982W        W35166   1.694   8.824   2.335  0.3735 -0.0570  0.2996
18983W        W35167  10.651  11.728  13.214  0.0599  0.0543  0.1215
18984W        W35168  17.561  18.727  12.890 -0.0282  0.2479  0.1276
18985W        W35169   6.433   8.782   9.474 -0.0878 -0.2278  0.2274
18986W        W35170   0.853   6.574   1.597  0.0632 -0.1586 -0.2461
18987W        W35171   8.951  19.009  14.324 -0.3510  0.0760 -0.0347
18988W        W35172   8.991  14.551  10.746  0.2687 -0.0822  0.0789
18989W        W35173   8.096   9.040  10.022 -0.0244 -0.0815 -0.0413
18990W        W35174  14.281   2.805   4.670  0.2964  0.0280 -0.2684
18991W        W35175   6.011   8.567  12.675  0.0344 -0.0046 -0.1724
18992W        W35176  17.053  18.730  13.505 -0.0395  0.1554  0.1555
18993W        W35177   6.271  15.517  14.105  0.0482 -0.1586  0.1742
18994W        W35178  11.693   7.669   3.017 -0.1588 -0.1180 -0.0292
18995W        W35179  14.320  11.534   4.579 -0.1446 -0.1229 -0.0884
18996W        W35180   0.675   5.120  12.713  0.0298 -0.1032 -0.2357
18997W        W35181  19.226  15.236   4.061 -0.2452  0.2894 -0.2207
18998W        W35182  18.213   0.106   1.064 -0.1749  0.0739 -0.1094
18999W        W35183  17.937  14.787   5.196  0.2042  0.0121 -0.1432
19000W        W35184  17.380  17.562  11.906 -0.1479 -0.1968 -0.0198
19001W        W35185  11.509   9.642   3.128 -0.3796  0.0353  0.0798
19002W        W35186  12.780   4.322   3.752 -0.1428  0.1058 -0.0320
19003W        W35187   9.143  13.559  11.903 -0.1509  0.1090 -0.2598
19004W        W35188   7.741  16.012   0.342  0.1763  0.2883  0.1743
19005W        W35189   2.258  11.066   1.224 -0.0181  0.2805  0.2494
19006W        W35190  14.465   4.257  10.657 -0.1382  0.1065  0.0846
19007W        W35191   6.761   9.685  12.711  0.0184  0.0821  0.0725
19008W        W35192   3.737   8.374  10.235 -0.0239  0.2059 -0.1392
19009W        W35193  18.331   8.144   0.615 -0.1781  0.0350  0.1445
19010W        W35194   2.609  17.016   1.529  0.0592  0.1588 -0.1359
19011W        W35195  13.297   4.004  12.938 -0.1468 -0.0486 -0.2354
19012W        W35196   5.883  13.300  12.655 -0.0732  0.0959  0.3636
19013W        W35197  15.546  10.106   0.504 -0.0230 -0.0416  0.1369
19014W        W35198   5.545   3.048   0.944 -0.2768  0.1858 -0.1017
19015W        W35199   3.229   8.017  13.722  0.1221  0.1158  0.0078
19016W        W35200   6.256  10.678  13.301 -0.1768  0.1513 -0.0368
19017W        W35201  18.035   3.572  10.982 -0.1469 -0.0006  0.0271
19018W        W35202  18.442   8.993   4.031 -0.0405  0.1757  0.0816
19019W        W35203   6.400  12.450  14.216 -0.1985 -0.0322 -0.1213
19020W        W35204   7.898  10.049   0.371  0.0756 -0.0416  0.4279
19021W        W35205   2.767   3.734  14.982 -0.3409  0.1345  0.1047
19022W        W35206   5.329   2.789  14.056  0.2851  0.4693 -0.1926
19023W        W35207  17.164   0.208   3.801 -0.0502 -0.1835 -0.0697
19024W        W35208  12.739   6.004   9.593 -0.3423  0.0927  0.0711
19025W        W35209  19.171  15.168  11.824 -0.0725  0.2777 -0.1181
19026W        W35210  11.045   0.733  11.436 -0.0775  0.1431 -0.1135
19027W        W35211   4.025  11.295  14.817  0.1261  0.0375  0.0918
19028W        W35212   8.016   5.917   0.057 -0.0236  0.2337  0.0774
19029W        W35213  11.241   3.767  12.171 -0.0094 -0.0427 -0.1286
19030W        W35214   2.695   5.594  11.978  0.0524  0.0289  0.3509
19031W        W35215  12.245   5.913   0.903 -0.1131  0.0259  0.0165
19032W        W35216   1.582   9.012   1.010  0.0498  0.1733 -0.2153
19033W        W35217  14.063  14.508  12.495  0.0202  0.1145 -0.3167
19034W        W35218  15.441   3.359  14.714  0.1128  0.0408 -0.3974
19035W        W35219   9.272  16.488   3.080  0.0374  0.0936 -0.1834
19036W        W35220  19.283  16.658   0.717 -0.0317 -0.2265  0.0735
19037W        W35221  17.475   5.056  14.471 -0.5054 -0.1218  0.1324
19038W        W35222  13.057   2.886   1.706  0.2421  0.1707  0.4592
19039W        W35223   4.947   6.766  14.939 -0.2211  0.1950 -0.0482
19040W        W35224   4.843  18.567  14.479 -0.0355  0.4708 -0.2371
19041W        W35225  12.850  12.660   3.655  0.0339 -0.1500 -0.2417
19042W        W35226   6.800  16.717   0.335  0.3689 -0.0831  0.1114
19043W        W35227  10.245  18.852   3.252  0.1930  0.1735  0.2796
19044W        W35228   6.906   5.017   3.366  0.0594  0.2964  0.0680
19045W        W35229  13.287  13.886   1.180  0.0570  0.1811 -0.2601
19046W        W35230   2.807   5.257  11.501 -0.0422  0.0931 -0.2686
19047W        W35231   3.840   7.553   4.197 -0.0752  0.1041 -0.0023
19048W        W35232  17.490  14.580  13.193 -0.0034 -0.2120 -0.0255
19049W        W35233   6.461  10.008   4.482 -0.0520  0.0601  0.0300
19050W        W35234  11.895  16.500   2.555 -0.0689 -0.1685  0.1444
19051W        W35235   3.785  17.328  10.882  0.1928 -0.0340  0.1323
19052W        W35236   7.355   6.708   2.716  0.3875 -0.1093  0.1088
19053W        W35237  17.920  19.223  11.306  0.2316  0.2162  0.0320
19054W        W35238  19.096  18.346   4.473  0.2926 -0.2603 -0.0278
19055W        W35239   8.502  17.178   3.006 -0.1468 -0.2336  0.0682
19056W        W35240  14.305  18.253  12.558 -0.1598  0.0050  0.0285
19057W        W35241   7.965  18.883   3.472 -0.1338  0.2967 -0.0094
19058W        W35242   8.611   0.545   4.613 -0.1981 -0.2314 -0.0142
19059W        W35243   2.747  13.740  11.969  0.0523  0.1390  0.1048
19060W        W35244   6.411  15.819  12.837  0.2546  0.0834  0.0016
19061W        W35245  16.075  18.281  12.980 -0.0979 -0.0275  0.4180
19062W        W35246   7.317   7.036  14.374 -0.2191 -0.1388  0.0570
19063W        W35247   7.505  11.468  13.969  0.2616  0.0810  0.2171
19064W        W35248  15.756  11.884   2.729  0.2086  0.2797  0.0331
19065W        W35249   0.195  18.128   4.576  0.2163 -0.2471 -0.1513
19066W        W35250  14.647   2.297  10.975  0.0537  0.1053  0.1042
19067W        W35251  17.463   0.625  12.598 -0.0818 -0.2960  0.1883
19068W        W35252  15.935  11.397   1.866  0.0701  0.1479  0.0012
19069W        W35253  14.527  16.591  13.631 -0.0151 -0.0727  0.2711
19070W        W35254  18.341  14.849   5.584 -0.0907 -0.0155 -0.3816
19071W        W35255   0.359  18.953  14.849 -0.2177 -0.0563 -0.2588
19072W        W35256   2.051   1.713  11.057 -0.0447  0.0197  0.0527
19073W        W35257   9.051  14.618   1.540 -0.4045 -0.0036 -0.1517
19074W        W35258   9.718  16.615   2.273 -0.2283  0.5626 -0.0399
19075W        W35259   3.112   3.884   0.417  0.2772 -0.0639 -0.2318
19076W        W35260   4.912   8.669   1.635  0.1766 -0.0010  0.0066
19077W        W35261   6.484  13.231   2.318  0.2370  0.1338  0.0560
19078W        W35262  11.871  15.763  13.428  0.0681 -0.3188 -0.0106
19079W        W35263  17.862   9.020   4.130  0.0042  0.0115  0.1950
19080W        W35264  16.848   7.836   1.398  0.0677  0.1219  0.0085
19081W        W35265   7.555  18.135  11.223 -0.2573 -0.1693 -0.0635
19082W        W35266   5.575  17.042   4.142 -0.2833 -0.0483 -0.0645
19083W        W35267  13.676   9.491  13.912  0.0997 -0.0042 -0.0113
19084W        W35268  16.738   0.748  14.218  0.2181 -0.1837 -0.0252
19085W        W35269  18.381   4.303   3.910  0.0483 -0.1303  0.1451
19086W        W35270   4.433  18.537   0.922  0.2668 -0.2217  0.0842
19087W        W35271  11.422   0.754  12.704  0.0860  0.1310  0.2935
19088W        W35272   2.514   3.309  13.712  0.3302 -0.0508 -0.2646
19089W        W35273   4.090  16.405  14.527 -0.1220  0.1013  0.0210
19090W        W35274  14.423   4.950  10.031 -0.3081 -0.3211 -0.2919
19091W        W35275   8.589  12.132  10.237 -0.1423  0.0704  0.0236
19092W        W35276   1.474   3.700   0.366 -0.1026 -0.1347  0.0863
19093W        W35277  16.716   6.303   0.729 -0.0175 -0.0266  0.1190
19094W        W35278  16.475   7.059   1.936  0.1014 -0.1917  0.2185
19095W        W35279   0.831   7.755  11.018 -0.2057 -0.0040 -0.1311
19096W        W35280   4.121  11.017   2.999  0.1348  0.0881  0.0256
19097W        W35281  13.990  16.683   3.309 -0.1870  0.2077  0.3109
19098W        W35282  18.227   2.223   4.977  0.1123  0.2229  0.2222
19099W        W35283  12.598  18.396   3.525  0.1027  0.0048 -0.3011
19100W        W35284  14.324   7.818  13.349  0.0985 -0.2258 -0.2368
19101W        W35285  18.090  14.370  12.435 -0.0074  0.1782 -0.0302
19102W        W35286  14.342   3.601  11.595 -0.2702 -0.1894 -0.2353
19103W        W35287   1.398  12.908  11.906  0.1836 -0.2129 -0.3271
19104W        W35288   4.295  16.614  11.787 -0.2025 -0.1285  0.3450
19105W        W35289  10.250   4.497   1.926 -0.1018  0.0055 -0.0708
19106W        W35290   6.764   9.667   2.885 -0.2221  0.2072 -0.0368
19107W        W35291  15.978  11.029  11.577  0.0907  0.1878  0.0255
19108W        W35292   0.269   5.729   0.734  0.0060  0.1230 -0.0611
19109W        W35293   3.360  16.834  11.822 -0.0186 -0.2553 -0.1756
19110W        W35294  12.531   3.469   2.276 -0.1119  0.2039 -0.2023
19111W        W35295   3.921   6.531   1.853  0.0430 -0.3802  0.2844
19112W        W35296  17.446  16.530  11.028  0.0790  0.2685 -0.3315
19113W        W35297  19.137  12.179  12.596  0.1098  0.1116  0.1825
19114W        W35298  18.030  18.752  11.526 -0.1033  0.0138  0.3453
19115W        W35299   6.440  17.316   1.121 -0.0095 -0.3036  0.1760
19116W        W35300   4.013  10.256  14.743  0.1260 -0.0933 -0.3855
19117W        W35301   7.959   5.785  11.893  0.1393  0.2004 -0.3837
19118W        W35302  17.793  17.154   4.475 -0.1391 -0.3549 -0.3206
19119W        W35303   1.936   2.078   1.942  0.0627  0.0820  0.1602
19120W        W35304  16.831  17.928  11.837  0.1794 -0.1830 -0.1640
19121W        W35305  10.454   0.605   0.488  0.1729  0.0732  0.1783
19122W        W35306  12.134   4.438  14.827 -0.2786  0.0330  0.6343
19123W        W35307   8.363   3.308   2.025 -0.1910  0.0350  0.0833
19124W        W35308  14.945  13.190   2.538  0.1740 -0.0372  0.1117
19125W        W35309   5.515  15.677  11.560 -0.2024  0.2446 -0.3702
19126W        W35310   3.396  17.653   1.407  0.1410  0.5382  0.0762
19127W        W35311  11.887  13.608   5.552 -0.0697 -0.0551 -0.0727
19128W        W35312   3.297  15.674  14.366  0.0383  0.3257 -0.0337
19129W        W35313   6.854   6.077  10.060 -0.3909  0.0666  0.3144
19130W        W35314  14.218   3.335   9.963 -0.0172 -0.0549  0.4123
19131W        W35315   1.623  12.827  13.804 -0.2826 -0.0590 -0.3832
19132W        W35316   0.650   6.295   5.249 -0.2129  0.1926 -0.2150
19133W        W35317  16.865   1.167  10.949  0.1211 -0.0891  0.2367
19134W        W35318  17.758  16.720  11.829  0.0908  0.0171  0.2312
19135W        W35319   2.860  19.336   5.699  0.0240  0.0026  0.0307
19136W        W35320   0.386  19.165  14.230 -0.0463  0.1840  0.0144
19137W        W35321   1.031  16.535   1.526  0.1498  0.1184  0.2626
19138W        W35322   3.114  18.881   5.789 -0.0259 -0.0804 -0.1160
19139W        W35323   7.961  17.147   1.644  0.0004  0.2129  0.0095
19140W        W35324   1.573  13.808   0.334 -0.2757  0.0966  0.3297
19141W        W35325  12.507  15.599  12.790 -0.0154 -0.1045 -0.0243
19142W        W35326   2.498  14.054  10.755  0.2058 -0.0443  0.0405
19143W        W35327  17.122  17.412   2.271 -0.0643  0.1378  0.1964
19144W        W35328   3.120  12.017   5.258  0.0451  0.0120 -0.1037
19145W        W35329   6.316   4.713   4.404  0.0305 -0.0057 -0.1184
19146W        W35330  14.989  16.775  14.072 -0.1080  0.1111 -0.0139
19147W        W35331  14.157   2.366   3.222 -0.0130 -0.2484 -0.0306
19148W        W35332  14.493   6.971  10.377 -0.3694  0.1638 -0.4027
19149W        W35333   8.703   6.619  13.750  0.2488 -0.6084  0.0983
19150W        W35334   7.493   8.525   2.598  0.3641  0.0074 -0.0753
19151W        W35335  14.323   6.023   1.880  0.2260  0.4310  0.2850
19152W        W35336  11.753  10.983   3.254  0.0415 -0.1086  0.0141
19153W        W35337   9.382  15.992   5.345 -0.2548  0.0535  0.1622
19154W        W35338   6.914   2.342  11.455  0.2195 -0.2608  0.1575
19155W        W35339   1.898  18.212  13.262 -0.0134 -0.1823  0.1233
19156W        W35340  15.627  18.183   3.927 -0.3194  0.2454 -0.0773
19157W        W35341   8.597  10.248   4.876  0.0605 -0.0616 -0.2178
19158W        W35342  17.400   3.280   0.003  0.0779 -0.0768  0.0309
19159W        W35343   1.613   5.513   3.562 -0.3454  0.0752  0.0020
19160W        W35344  11.947   6.042   3.103 -0.3354  0.0298 -0.0860
19161W        W35345   9.363  14.284  13.300  0.2042  0.0937 -0.2858
19162W        W35346  10.032   8.329  14.954  0.3164  0.3538  0.1782
19163W        W35347  13.377   0.386  14.208  0.0820  0.1371  0.1293
19164W        W35348   5.561  11.071   0.713  0.0168 -0.1663 -0.0173
19165W        W35349  10.170  17.235  11.047  0.1095 -0.3755  0.3594
19166W        W35350   7.621  12.116   0.539  0.0102  0.0560  0.5121
19167W        W35351  18.207  12.948  13.690  0.1709  0.3836 -0.3125
19168W        W35352  13.492  10.966  11.405  0.0631  0.1751  0.0234
19169W        W35353   5.954   3.855   1.992 -0.2947  0.0721  0.1178
19170W        W35354  17.249   5.378   0.357  0.1087 -0.0403  0.0030
19171W        W35355  12.525  17.406   1.304  0.0038 -0.3376 -0.0047
19172W        W35356   2.223   8.854   2.370  0.2286  0.1806  0.2654
19173W        W35357   3.571  15.748   4.658 -0.0085  0.1205  0.1116
19174W        W35358  10.147   1.153  13.065 -0.0479  0.3728  0.0012
19175W        W35359  18.888   8.935  13.229  0.0916 -0.1923 -0.0281
19176W        W35360  10.503  17.155   0.621  0.1383  0.0847 -0.0761
19177W        W35361   1.584   9.111   0.245 -0.3923  0.3481  0.3001
19178W        W35362   1.400   9.035   4.443  0.0813 -0.0448  0.0392
19179W        W35363  15.873  18.302   2.461  0.2338 -0.1650  0.1971
19180W        W35364   0.928   3.698   0.664  0.0638 -0.4024 -0.2156
19181W        W35365  16.392  11.602   1.827 -0.2995 -0.3067  0.0595
19182W        W35366   8.010   3.785   5.162  0.3499  0.0373  0.0149
19183W        W35367  10.252   4.299   4.128  0.3531  0.2646 -0.0918
19184W        W35368  10.629   4.338  11.083 -0.2563  0.0808  0.1122
19185W        W35369   8.632   6.018   4.318 -0.1238  0.2335 -0.1752
19186W        W35370  17.927  17.335  11.867 -0.1045 -0.1830  0.1428
19187W        W35371   1.731  12.796   2.224  0.0371 -0.0421 -0.1568
19188W        W35372   2.698  16.865   1.066 -0.1258 -0.0328  0.1196
19189W        W35373  10.990   5.342  10.732  0.0051  0.3058  0.2995
19190W        W35374  19.209   2.808   0.204  0.1243  0.0397 -0.1768
19191W        W35375   9.873   9.178   0.007 -0.0106  0.0515 -0.2338
19192W        W35376  11.050  13.413  14.794  0.1441 -0.1457  0.1430
19193W        W35377  13.370   7.843  11.589 -0.0024  0.3907  0.3692
19194W        W35378  10.954   0.824   3.964  0.3939 -0.2650  0.1031
19195W        W35379   1.407   8.251   3.172 -0.3060  0.0376  0.0531
19196W        W35380   0.388   3.380  11.154 -0.3523  0.1251 -0.2200
19197W        W35381  18.215   2.743  10.386  0.0646 -0.0274 -0.1294
19198W        W35382   1.158  16.985   2.796  0.0425  0.0485 -0.0471
19199W        W35383  16.497   2.403  14.416  0.3655  0.0480  0.1115
19200W        W35384   5.656   0.852   0.966 -0.0126 -0.4530  0.1054
19201W        W35385   3.245  17.512   3.577  0.0542 -0.2329 -0.1696
19202W        W35386   6.968   5.980   3.664 -0.1100 -0.1524  0.0377
19203W        W35387  10.052   6.918  13.501  0.0618  0.0781  0.2884
19204W        W35388   9.971  16.337  13.838 -0.0310 -0.0345  0.1439
19205W        W35389  18.548  17.170   5.082  0.0370 -0.3008 -0.0577
19206W        W35390  11.636  10.273  12.851  0.0569 -0.3367  0.3382
19207W        W35391   3.590  12.569  11.860 -0.2403 -0.3855 -0.1693
19208W        W35392  14.090  16.318  11.947 -0.2900  0.0492 -0.2859
19209W        W35393  13.530   6.228  12.855 -0.1656  0.1990  0.2018
19210W        W35394   9.803   9.067  12.471  0.1257 -0.1919 -0.1712
19211W        W35395  16.806  11.406   2.002  0.1912  0.0139  0.0972
19212W        W35396  10.341   3.895  14.342 -0.3243  0.0334  0.0231
19213W        W35397  12.749   8.313  11.038  0.0509 -0.1430  0.0717
19214W        W35398  10.794   2.972   0.377  0.0624  0.0268  0.1555
19215W        W35399  14.888   0.293  11.388  0.1517 -0.2520  0.2152
19216W        W35400   0.698  19.369   0.028 -0.0039  0.2536  0.0361
19217W        W35401   4.292   4.877  12.440 -0.1285 -0.3438 -0.0524
19218W        W35402  18.099  15.671   0.305 -0.3945  0.3806  0.1367
19219W        W35403  15.516  14.928   3.906  0.0262 -0.0615  0.0703
19220W        W35404  12.654   3.703  12.722 -0.3402 -0.0015  0.0239
19221W        W35405  15.899  15.268  10.953 -0.1926  0.1735 -0.0129
19222W        W35406  10.605  16.296  11.420 -0.3796  0.0511  0.0156
19223W        W35407  16.837  13.907   1.033 -0.1849 -0.0268 -0.1272
19224W        W35408  15.554  15.505   3.177 -0.0316 -0.2316 -0.2327
19225W        W35409  10.755  13.392  10.495  0.0513  0.1383  0.1829
19226W        W35410   5.450  13.291   1.932  0.0903  0.2565 -0.0368
19227W        W35411  10.497  18.833   1.526  0.0509 -0.1338 -0.4473
19228W        W35412   0.094   0.112  11.234  0.2643  0.2347 -0.3344
19229W        W35413  12.432  15.493  13.272  0.0232  0.0837  0.1808
19230W        W35414  18.698  17.956   1.227 -0.3443 -0.2160 -0.0244
19231W        W35415   3.860  13.288   4.206 -0.0219 -0.1262 -0.0675
19232W        W35416  12.016   3.458   4.523  0.0409 -0.1952  0.5506
19233W        W35417   2.984  13.522   4.194 -0.2690  0.0950 -0.1140
19234W        W35418   6.906   1.312   0.875 -0.1094  0.2154  0.0993
19235W        W35419   0.007   8.864  10.941  0.0512  0.2796  0.2169
19236W        W35420   5.718   7.698   3.422 -0.0593  0.4248 -0.0852
19237W        W35421  16.874   9.219  13.503  0.1048  0.0125 -0.2282
19238W        W35422  13.491   3.800  11.479 -0.2279 -0.1236 -0.0389
19239W        W35423  12.082  10.621  12.823  0.4047 -0.0549 -0.1549
19240W        W35424  11.659  13.828  14.694  0.2260  0.1659 -0.2639
19241W        W35425   7.062   8.535   2.946 -0.1334 -0.3390  0.3497
19242W        W35426  15.490   8.190   3.962  0.0702 -0.0245 -0.0127
19243W        W35427  12.274   0.246  14.099 -0.1086 -0.4089  0.4481
19244W        W35428  10.787   1.242  11.954  0.0011 -0.3915 -0.0199
19245W        W35429  19.048   9.362   4.854  0.4449  0.0140  0.1171
19246W        W35430   7.581   6.175  13.659 -0.2774 -0.0869  0.3834
19247W        W35431   2.737  11.973   2.491 -0.2412 -0.0461  0.0099
19248W        W35432   9.337   2.587   2.841  0.3339 -0.0925 -0.1178
19249W        W35433  18.422   2.089  11.016 -0.2186 -0.0426 -0.0762
19250W        W35434   1.373   0.645  11.483 -0.2280  0.3735 -0.3482
19251W        W35435   8.216  13.196   5.876 -0.1792  0.1766  0.1943
19252W        W35436   1.131   4.015   4.815 -0.3671  0.0485  0.2804
19253W        W35437  17.411   9.064   4.305  0.0923  0.0830 -0.1806
19254W        W35438  15.017  14.488  12.831 -0.1672 -0.1092 -0.0694
19255W        W35439   8.914  16.805  11.711  0.0491 -0.2339  0.2056
19256W        W35440  13.321  13.848   2.508  0.2331  0.3769  0.0524
19257W        W35441   1.165  18.132   6.210  0.0248 -0.2327  0.1095
19258W        W35442  18.262  14.605   1.459  0.1626  0.1392 -0.0486
19259W        W35443  17.498   4.415  12.355 -0.0621 -0.1488  0.2776
19260W        W35444   1.603  17.242   4.014 -0.2390  0.2986  0.3068
19261W        W35445   6.426  17.024  14.445 -0.0994 -0.0230  0.2283
19262W        W35446   5.589  14.233  11.299  0.0751  0.1333 -0.0004
19263W        W35447  18.737  11.065  14.859 -0.0667  0.3307 -0.0979
19264W        W35448   3.553   5.636   1.169 -0.2795 -0.2014 -0.0752
19265W        W35449  14.130   8.350   2.432  0.1949  0.2112 -0.4101
19266W        W35450   0.156   7.195  14.673 -0.0336  0.1207  0.0376
19267W        W35451   4.773   5.138  12.606  0.0053 -0.0737 -0.0813
19268W        W35452   6.868   4.345  10.520  0.1494  0.3073  0.3467
19269W        W35453   2.345   8.099  12.284 -0.1864 -0.0017 -0.0997
19270W        W35454  18.488   2.059   3.193  0.0050  0.0752 -0.3887
19271W        W35455   6.214  17.569   2.357 -0.1050  0.1667 -0.0593
19272W        W35456  12.688   0.089   1.989 -0.0114 -0.3343 -0.0726
19273W        W35457  17.355  18.207   2.441 -0.1350 -0.1487 -0.0390
19274W        W35458   4.989  14.908  14.690 -0.1809 -0.2634 -0.1326
19275W        W35459   9.718  10.814   4.448  0.0098  0.1161 -0.2533
19276W        W35460   6.870  16.835   2.258 -0.0053  0.2812 -0.5693
19277W        W35461   6.543   1.671  10.316  0.0331  0.2155  0.1075
19278W        W35462   7.324   4.677  12.044  0.0314 -0.4374  0.0756
19279W        W35463  14.008   3.399   0.998 -0.2338  0.1816 -0.0889
19280W        W35464   2.971   3.552  12.851  0.0101 -0.2817  0.2633
19281W        W35465  16.844   5.766   0.231 -0.1410 -0.2204  0.0119
19282W        W35466   7.357  18.069  13.158  0.2197 -0.2707 -0.0283
19283W        W35467   8.768   7.360  14.918 -0.1387  0.0416  0.0300
19284W        W35468  14.909   0.016  13.368  0.0834  0.1988  0.1585
19285W        W35469  12.786  12.819  10.562  0.0329  0.1408  0.0494
19286W        W35470   1.928  16.067   3.268  0.0558 -0.2617  0.2574
19287W        W35471  15.509  10.294   5.281 -0.2401 -0.2121  0.2600
19288W        W35472   4.304  11.911   3.298  0.4013  0.0489 -0.2618
19289W        W35473  10.044   2.775   0.871 -0.2824  0.2872  0.2284
19290W        W35474   9.639   7.473  14.197  0.0742 -0.5252  0.0582
19291W        W35475   5.902   5.496   1.924 -0.0061  0.2173  0.6471
19292W        W35476   7.421  13.754   2.853 -0.1141 -0.1331  0.1599
19293W        W35477   0.067   8.919  10.076  0.2181 -0.0678 -0.0433
19294W        W35478  15.289   3.293   5.642  0.4100 -0.1659  0.1472
19295W        W35479   0.593  15.404   1.336  0.1495 -0.1520 -0.2064
19296W        W35480  10.139  15.081   0.953  0.1783  0.2485 -0.0274
19297W        W35481  17.040   1.346   1.949 -0.0696  0.3644  0.1849
19298W        W35482  13.811   2.879   2.200 -0.2187  0.0426  0.0865
19299W        W35483  10.193   6.713  11.221 -0.1780  0.0079 -0.1159
19300W        W35484   2.436   4.626  11.003  0.5047 -0.0339  0.0282
19301W        W35485   6.804   8.087  14.365  0.1442 -0.0389 -0.2394
19302W        W35486   3.849   1.625  12.884  0.3010  0.0660  0.1936
19303W        W35487  13.953   1.370   4.811  0.1025  0.1206  0.1416
19304W        W35488  16.879   2.738   3.815 -0.1538 -0.1312  0.1309
19305W        W35489   5.711  10.938  14.717  0.2081  0.1731 -0.0749
19306W        W35490   5.638  18.989   2.673 -0.0698  0.3380 -0.0453
19307W        W35491   3.690   5.598   1.664 -0.2423 -0.1981 -0.1001
19308W        W35492  12.573   5.681   1.211 -0.1883 -0.1362 -0.2790
19309W        W35493  16.222   6.487  14.291  0.0117  0.1419  0.0273
19310W        W35494   9.385   2.680  13.883 -0.1710 -0.2716 -0.1530
19311W        W35495  17.823   2.550   3.643  0.0024 -0.4056 -0.0886
19312W        W35496   9.445   9.442   0.061 -0.0156 -0.1822  0.0447
19313W        W35497   2.076  18.860   3.988  0.0667 -0.0219  0.3096
19314W        W35498  16.782   9.690   0.229  0.3898 -0.0191  0.2182
19315W        W35499   4.309   8.435  11.060  0.2504 -0.2213  0.0709
19316W        W35500   3.490   2.302   3.589  0.1699 -0.0986 -0.1839
19317W        W35501  14.659  17.442  12.087  0.1170  0.0916 -0.0822
19318W        W35502   6.522  16.408   2.021 -0.0012  0.1017 -0.3312
19319W        W35503   8.394   7.251  10.205 -0.2120  0.2830 -0.1060
19320W        W35504   3.678  14.344   0.274 -0.0056  0.5453  0.0587
19321W        W35505   1.403  15.147   1.423 -0.0483  0.0112 -0.2618
19322W        W35506   4.588   7.840   4.829  0.4603  0.0436 -0.1592
19323W        W35507   0.600  17.596  12.000 -0.0914  0.2174  0.0199
19324W        W35508   5.681   4.979  14.252  0.0685  0.1290  0.1492
19325W        W35509   3.653  15.181  14.981 -0.1536  0.0559 -0.2026
19326W        W35510   6.390   4.976  11.077  0.1818  0.1036  0.0187
19327W        W35511  14.414   7.284  11.741 -0.0549 -0.1141  0.1152
19328W        W35512   5.026  10.178  12.823 -0.0539  0.2176  0.3438
19329W        W35513   3.992   7.885  13.160  0.2445  0.0611 -0.1077
19330W        W35514  16.127   1.068  10.395  0.0629 -0.0895  0.1977
19331W        W35515  14.654   3.855  13.787 -0.0449  0.3330  0.1805
19332W        W35516  17.612  11.845   1.557  0.0591 -0.2673 -0.2657
19333W        W35517   4.605   2.029   2.193 -0.5854 -0.1122 -0.0286
19334W        W35518   0.782  17.784  13.341  0.0416 -0.1494 -0.0800
19335W        W35519   7.344  15.416   5.276 -0.0958  0.0724 -0.0359
19336W        W35520   5.741   7.244  12.471 -0.0446 -0.3290  0.0600
19337W        W35521  10.016   9.632  13.992  0.0320  0.1569  0.1289
19338W        W35522  13.790  18.367  12.329  0.3275  0.2598 -0.0165
19339W        W35523   2.717   6.227  14.380  0.0959 -0.1320  0.2965
19340W        W35524   4.150   4.533   4.319 -0.2906  0.2163 -0.3196
19341W        W35525   2.422   4.135  14.724  0.1647 -0.1213 -0.3723
19342W        W35526   7.854   3.118  11.646 -0.1095  0.2281  0.1815
19343W        W35527  15.924  17.581   3.347  0.2237  0.1025  0.5181
19344W        W35528   5.622   1.619  12.999  0.1840 -0.0142 -0.1398
19345W        W35529   0.248   4.229   1.981  0.0141 -0.1907 -0.0041
19346W        W35530  10.229  17.004   4.947 -0.2450 -0.0132 -0.0158
19347W        W35531  14.070   9.058   1.542  0.1195  0.1605  0.0127
19348W        W35532  15.024  14.056   2.817  0.1844 -0.2530  0.0708
19349W        W35533  15.219   3.826  11.132  0.0922 -0.3011 -0.0110
19350W        W35534  17.434  10.054   1.057 -0.1357  0.1948  0.1718
19351W        W35535  10.701  19.224  12.095 -0.0480  0.1323 -0.0221
19352W        W35536  17.053  18.993   4.844  0.0603  0.0900  0.1306
19353W        W35537   9.422   7.825  13.797 -0.3590 -0.4149  0.0661
19354W        W35538   3.307  10.459   2.849 -0.1177  0.2079  0.1160
19355W        W35539   3.114  16.820  11.023  0.0722  0.0347  0.0877
19356W        W35540   4.208  12.486   2.339  0.2198  0.0396  0.4797
19357W        W35541   9.305  10.399   0.807  0.0126 -0.1666 -0.2478
19358W        W35542   2.313   1.397   2.204  0.1811 -0.4303 -0.1463
19359W        W35543   4.933   2.568  14.478  0.2554  0.3117  0.0142
19360W        W35544   0.647   2.894   1.098  0.0219 -0.2023  0.0816
19361W        W35545   9.371   3.492  11.366 -0.0571 -0.0589 -0.1351
19362W        W35546  14.072   2.892   0.929  0.1627 -0.0440 -0.0845
19363W        W35547  17.495   0.064  12.734 -0.3718  0.0786  0.0244
19364W        W35548  19.368  16.858  14.782  0.1189 -0.0316  0.0233
19365W        W35549   0.401  10.951   0.218  0.2157 -0.0846  0.1197
19366W        W35550   0.007  11.256   0.578  0.2350  0.0370  0.0281
19367W        W35551   3.327  15.616   1.467 -0.3969  0.2559  0.0551
19368W        W35552   5.432   7.032  14.303 -0.0873 -0.4950  0.1138
19369W        W35553   2.122   6.867  10.111  0.3268  0.2347 -0.0537
19370W        W35554   9.122  13.908  14.306  0.0543 -0.1079 -0.1062
19371W        W35555  11.771   8.366   3.977 -0.1836  0.0348 -0.3754
19372W        W35556   3.511   3.043  10.218 -0.2734 -0.1015 -0.0893
19373W        W35557  15.299  11.518   4.486 -0.1592 -0.3142 -0.0008
19374W        W35558  17.581  18.676  12.369 -0.2412  0.0669  0.1657
19375W        W35559  17.464  16.504  14.395  0.1056  0.2005  0.0950
19376W        W35560   1.314  12.913   4.233 -0.0309  0.0532  0.1431
19377W        W35561  19.087  15.494   2.196  0.3667  0.2449  0.0367
19378W        W35562   5.687   3.081   2.598 -0.1239  0.0464 -0.1021
19379W        W35563  16.625   1.523  14.543 -0.0087 -0.0303 -0.2094
19380W        W35564  18.879   1.585   3.387 -0.0950  0.1692  0.1029
19381W        W35565  12.671   3.030  14.596 -0.0263 -0.1681 -0.0406
19382W        W35566  17.279   2.956  12.710  0.1567  0.1452  0.1422
19383W        W35567  18.902  10.529  13.156  0.0152 -0.1731  0.1916
19384W        W35568   4.061  16.673  14.980  0.0636  0.0185 -0.1529
19385W        W35569   1.749  14.340   0.505  0.2085 -0.1139 -0.0902
19386W        W35570   4.821  12.798   1.683 -0.2432  0.3636 -0.0051
19387W        W35571  18.394  19.183   3.668  0.0491  0.2473  0.3429
19388W        W35572   4.759  12.290  11.972 -0.1805  0.1736  0.1812
19389W        W35573   0.656   5.294   1.752 -0.0435 -0.1639  0.1271
19390W        W35574  16.310  13.066   2.324 -0.1404 -0.2042  0.2125
19391W        W35575  12.930   2.951   3.510 -0.2656 -0.0751  0.0127
19392W        W35576  11.397   0.603   9.510 -0.0048 -0.0733  0.1602
19393W        W35577   6.993  15.169  14.204  0.1801  0.0219  0.3544
19394W        W35578  12.914  15.882   4.770  0.0527  0.2231  0.1887
19395W        W35579   7.022  18.429   0.959 -0.1926  0.0415  0.0821
19396W        W35580   4.927   1.193  12.449 -0.0573  0.1344  0.0931
19397W        W35581   8.829  17.224  12.581 -0.0910 -0.0754  0.0769
19398W        W35582  15.537  10.929   3.477 -0.0669  0.3075  0.2118
19399W        W35583  18.821  10.794  13.610  0.2207  0.4199 -0.2890
19400W        W35584  13.642  14.550  11.644  0.1391  0.0496 -0.1167
19401W        W35585   5.547  14.407  10.807 -0.2449 -0.0305 -0.0164
19402W        W35586   6.489   9.644  14.765 -0.1816 -0.0635 -0.2516
19403W        W35587  14.096   7.139  10.598  0.0876 -0.3292 -0.2401
19404W        W35588  10.223  15.900  14.151 -0.2535 -0.5689  0.0931
19405W        W35589   8.571   9.605  13.885 -0.0429 -0.0881  0.1642
19406W        W35590   2.642  18.938   3.199  0.0698  0.2151  0.4216
19407W        W35591   0.373   3.861   1.557  0.2065 -0.0530  0.3168
19408W        W35592  12.150  13.895   0.742  0.0468 -0.2555 -0.0017
19409W        W35593   3.250   3.733  10.587 -0.1005  0.1096  0.1817
19410W        W35594   7.536  12.867  12.552  0.2414 -0.3757  0.1489
19411W        W35595   7.012   1.404   0.332  0.5073 -0.0744  0.0847
19412W        W35596   0.532   5.845   4.388 -0.0602  0.1838  0.0593
19413W        W35597   7.242   7.689  11.556  0.2709  0.1013 -0.0198
19414W        W35598  11.288  15.995   9.462  0.1516  0.4420  0.1891
19415W        W35599  18.605   2.618  10.816  0.0295  0.3421 -0.2606
19416W        W35600   0.141  17.647  11.748  0.3352  0.1930  0.0900
19417W        W35601  16.339  11.809   4.488 -0.5068 -0.3076 -0.0501
19418W        W35602  14.121  14.396   2.469 -0.4406 -0.1900 -0.1697
19419W        W35603   8.788   4.502  12.157 -0.3662 -0.1129  0.1460
19420W        W35604   6.805   8.866  10.580 -0.0834 -0.0334 -0.0440
19421W        W35605  11.699  13.182  11.101 -0.5453  0.0657 -0.0873
19422W        W35606   6.739   0.243  12.451  0.0918  0.1126  0.2382
19423W        W35607   2.008  13.186   0.348 -0.2243 -0.0299  0.0237
19424W        W35608   8.240   2.554   1.282 -0.0927 -0.0938  0.0846
19425W        W35609   2.198   8.118  11.790 -0.1441  0.3046 -0.2570
19426W        W35610  15.392   0.664   0.744  0.0291 -0.0226 -0.0723
19427W        W35611  12.047   5.576   0.604  0.0845 -0.2552  0.2356
19428W        W35612  16.280  14.133   5.009 -0.0640  0.2073 -0.0024
19429W        W35613  14.156  16.329   4.264  0.1484  0.0511  0.2997
19430W        W35614   3.312   7.401  10.429  0.1596 -0.3589 -0.1750
19431W        W35615   7.917   8.484  13.669  0.1897  0.1963 -0.0004
19432W        W35616  18.371  10.267  10.581 -0.1317 -0.2316 -0.0482
19433W        W35617   0.042  17.025  10.530 -0.0942  0.3183  0.3885
19434W        W35618  14.798  10.532  13.193 -0.0069  0.1330  0.2490
19435W        W35619   5.648   4.216  13.989  0.0295 -0.1644 -0.1321
19436W        W35620   9.240   2.526  10.502  0.1989 -0.0159  0.0963
19437W        W35621   5.976   0.693  14.675  0.1667 -0.1068  0.1430
19438W        W35622   5.249  16.149   4.009  0.0257  0.2572  0.1636
19439W        W35623  10.809  10.833   5.079  0.0750 -0.2945 -0.2428
19440W        W35624   5.462  10.203  11.262  0.0021  0.0930 -0.1138
19441W        W35625  12.459   1.653  12.909  0.0755  0.2598 -0.2806
19442W        W35626  18.506   9.269  13.444  0.0621  0.0453  0.2701
19443W        W35627   9.317  17.317   3.994 -0.0945  0.0614  0.1165
19444W        W35628   0.561  14.234   5.861 -0.3799 -0.1190  0.1083
19445W        W35629   7.439   9.268   1.770  0.3739  0.1436  0.0821
19446W        W35630   4.377  10.409  12.032 -0.2896 -0.0551  0.0756
19447W        W35631   5.974  15.349   3.380 -0.0871  0.0728 -0.1364
19448W        W35632  13.310  15.127  13.417 -0.3019 -0.2117  0.0344
19449W        W35633  17.796   1.928   5.840 -0.3193  0.1246  0.1791
19450W        W35634  11.005   1.394   3.816 -0.0373 -0.0354  0.0097
19451W        W35635  17.172   1.021   3.317 -0.2904 -0.1437 -0.1577
19452W        W35636   6.699  13.644  13.549 -0.3593  0.0476  0.1684
19453W        W35637  10.906  16.858   0.626 -0.0752  0.2860  0.1086
19454W        W35638  13.057  13.160  11.293  0.0520 -0.2548  0.1165
19455W        W35639   9.604   2.264   1.380  0.1142  0.1682 -0.2352
19456W        W35640   8.865   4.724   3.806 -0.1659 -0.0080  0.3726
19457W        W35641  14.716   4.139  10.208  0.2880 -0.0055 -0.0594
19458W        W35642   9.942  15.194   0.384  0.1159  0.1227  0.0558
19459W        W35643  18.769  18.891   1.451  0.1196 -0.2102 -0.3760
19460W        W35644  14.795   9.722   4.244  0.0394  0.3848 -0.0864
19461W        W35645   3.943   0.018   2.135  0.0846 -0.1377  0.0359
19462W        W35646  14.984   5.474   3.692  0.1780  0.0798  0.0287
19463W        W35647   8.736   9.077  10.581 -0.0197 -0.1773  0.0103
19464W        W35648   2.245  17.770  14.236 -0.0148  0.1077  0.1681
19465W        W35649   7.085  14.805   5.644  0.1152  0.1538  0.0682
19466W        W35650   8.700   0.349  11.303  0.1665  0.1181 -0.1082
19467W        W35651  13.690  19.267   5.062 -0.0014  0.3115  0.1064
19468W        W35652   8.868  12.922   4.162 -0.0409  0.3581  0.2069
19469W        W35653   8.754   9.117   3.272 -0.0229  0.0329  0.0793
19470W        W35654   7.060   9.814   1.121 -0.3173 -0.1372 -0.4599
19471W        W35655  14.302  16.386  11.476 -0.0791  0.2133  0.1728
19472W        W35656  12.128   0.386   0.122 -0.0719  0.0802  0.1542
19473W        W35657   2.929   6.209   0.847 -0.1248 -0.0445 -0.2544
19474W        W35658   8.442  12.381  13.376  0.0055 -0.2332 -0.0557
19475W        W35659  10.292   7.979   4.779 -0.1830  0.4887  0.0257
19476W        W35660   2.158  14.515   2.511  0.0191  0.3562 -0.0797
19477W        W35661  15.591  12.515  13.164  0.1176 -0.3122 -0.3254
19478W        W35662   0.546   5.185  10.774  0.2334 -0.0183  0.0467
19479W        W35663  10.814  13.329  13.157  0.2932  0.1341  0.3596
19480W        W35664  10.653  14.744   1.718  0.2194 -0.4413 -0.1096
19481W        W35665   0.149  13.244  11.790 -0.0109 -0.0146  0.1947
19482W        W35666   1.441   6.903  10.897 -0.1321 -0.0608 -0.4253
19483W        W35667   5.614   4.818   0.571 -0.1140 -0.1275  0.2650
19484W        W35668   5.639  18.478   0.248 -0.1102  0.1967  0.1865
19485W        W35669   7.206  18.950   0.933  0.1826  0.3812 -0.2142
19486W        W35670  16.613  16.696   2.368  0.3618 -0.0230  0.2655
19487W        W35671  15.296  13.602  13.862 -0.0693  0.1006  0.2656
19488W        W35672  13.766   4.794   3.376  0.0697  0.0939  0.3427
19489W        W35673   8.989   9.169  13.186 -0.1375 -0.3083 -0.1930
19490W        W35674   2.390   2.626  13.514  0.0993 -0.1576  0.3032
19491W        W35675  12.051  12.526   1.965 -0.4098  0.0532  0.0528
19492W        W35676   3.895  11.550   0.736  0.2624  0.4096 -0.0656
19493W        W35677   4.852   9.538  11.703 -0.1697  0.1716 -0.0057
19494W        W35678  11.461  12.803  12.047  0.2091 -0.2213 -0.0074
19495W        W35679  11.853  10.944  11.266  0.0410  0.2092 -0.1799
19496W        W35680  18.245  16.085  14.919 -0.0066 -0.1997  0.0081
19497W        W35681   8.570   6.441   1.654 -0.2324 -0.0987 -0.0771
19498W        W35682   4.939   9.050  11.867  0.1429  0.0266  0.1227
19499W        W35683  12.921  18.067  12.015  0.2712 -0.2068 -0.3020
19500W        W35684   1.216  13.367   1.674 -0.1404  0.0495 -0.1401
19501W        W35685   8.009  10.916   0.739  0.1055 -0.3742 -0.0888
19502W        W35686  15.318  10.680   3.079 -0.1073 -0.1977 -0.0051
19503W        W35687  14.748   2.008   0.116 -0.1429 -0.2242  0.1567
19504W        W35688  10.261  18.406   3.030 -0.2243 -0.0838 -0.0079
19505W        W35689   1.066  10.328   1.839  0.0813  0.1018 -0.0090
19506W        W35690   3.694   8.881   1.980 -0.0165  0.1924  0.0153
19507W        W35691  12.140   6.441   2.741 -0.1370  0.1287 -0.0380
19508W        W35692  12.501  10.825   0.610  0.2535  0.1562  0.1198
19509W        W35693   8.213  12.742   0.785  0.0527  0.2421  0.2086
19510W        W35694   6.628   7.780   3.578 -0.1338 -0.3542  0.1222
19511W        W35695   7.873   4.326   1.575 -0.1665 -0.0766 -0.1268
19512W        W35696  15.168  14.966  12.492  0.1122  0.4764  0.0036
19513W        W35697   5.597   4.877  12.883  0.2199 -0.1426  0.0338
19514W        W35698   0.025  15.270  11.356 -0.1209  0.1542 -0.0798
19515W        W35699   4.622   7.824  14.213  0.0791 -0.1098  0.4159
19516W        W35700  17.669   1.531  12.226  0.0089 -0.0393  0.0644
19517W        W35701   4.856  13.686  10.814 -0.1509  0.1481  0.1558
19518W        W35702  16.821   3.483   3.304 -0.1116  0.2018  0.0584
19519W        W35703   7.748   7.311  11.169  0.3357 -0.0350  0.0295
19520W        W35704  13.211  18.160   0.451  0.0723  0.0686  0.0881
19521W        W35705   6.334  10.772  12.190 -0.1789 -0.0502 -0.2378
19522W        W35706   6.929   9.273  11.401  0.0651  0.0500 -0.3199
19523W        W35707   6.430  16.406   0.455 -0.2179  0.4997  0.2969
19524W        W35708  15.798  17.676   0.098  0.0476 -0.1841 -0.4098
19525W        W35709   8.261   8.739  10.612  0.0794 -0.0278  0.5691
19526W        W35710  11.783   3.596   4.931 -0.1653  0.1352 -0.0165
19527W        W35711  15.284   1.481   9.589  0.1851  0.3120 -0.1019
19528W        W35712  14.688  17.860  10.997  0.0520 -0.0807 -0.1612
19529W        W35713  15.034   5.119   1.100  0.0176  0.0397 -0.0173
19530W        W35714  15.488   7.087  13.365 -0.0539  0.0405  0.4928
19531W        W35715  12.717   0.587  13.460  0.0164 -0.0499 -0.2156
19532W        W35716  17.160   2.112  11.677  0.0453 -0.0425  0.4449
19533W        W35717  16.159  10.252   2.260 -0.2420  0.0529 -0.0933
19534W        W35718   6.536  13.928  13.174 -0.1208 -0.3065 -0.2642
19535W        W35719   6.626   4.924  12.711  0.2115 -0.0449 -0.0917
19536W        W35720  18.247   3.008  13.242  0.0540 -0.3864  0.1925
19537W        W35721  14.253   7.641  13.816 -0.3949 -0.4055  0.0457
19538W        W35722  12.497  10.444   4.869  0.0954 -0.1591 -0.0862
19539W        W35723  18.508   9.505   1.073  0.0159 -0.0248 -0.0235
19540W        W35724   5.627   3.165  13.787 -0.0111  0.0259 -0.2139
19541W        W35725  12.368  13.458   3.476 -0.2723  0.0069  0.2039
19542W        W35726   6.968   9.425  11.872 -0.0675 -0.2147  0.0622
19543W        W35727   2.637  16.436   0.126 -0.0789 -0.1352 -0.1355
19544W        W35728  17.327  11.213   3.019  0.0840 -0.1813  0.0038
19545W        W35729   0.739   8.998  12.699 -0.0747 -0.1757 -0.3117
19546W        W35730  13.384  10.743  14.913 -0.0773  0.2817 -0.0013
19547W        W35731  13.734   8.045   2.562 -0.2535  0.0467 -0.2003
19548W        W35732  15.642   9.970   4.304 -0.3465 -0.0430 -0.2006
19549W        W35733   6.136  11.244  14.513  0.3518  0.1264  0.5889
19550W        W35734  10.094   0.527   1.667 -0.0179  0.0663  0.3118
19551W        W35735  12.799   4.874  13.285 -0.2260  0.1083 -0.0467
19552W        W35736   1.480   8.684  12.242  0.0338 -0.0841  0.2121
19553W        W35737  18.566   6.537  11.282 -0.3203 -0.2029  0.1560
19554W        W35738   7.815  12.139   4.651 -0.3254 -0.4737 -0.1965
19555W        W35739  12.814  17.752   9.749  0.0422 -0.4179 -0.1877
19556W        W35740   1.058  13.671   4.283  0.0418  0.1219  0.1704
19557W        W35741   1.768  10.407  13.760 -0.0337 -0.0965  0.2900
19558W        W35742  13.693   5.168  14.427  0.0861 -0.0957  0.0486
19559W        W35743   4.484   2.970  11.185  0.1104  0.0038  0.1652
19560W        W35744   2.620   1.823  14.046  0.3359 -0.3390 -0.2223
19561W        W35745   8.263  14.540   1.552  0.0566  0.0032  0.0873
19562W        W35746   0.199  13.380  12.338 -0.1351  0.2142  0.3804
19563W        W35747  17.821  18.373  13.689 -0.0415  0.2004 -0.2282
19564W        W35748   7.281  12.000  11.913  0.0002 -0.0756  0.1425
19565W        W35749   0.546   8.327  13.809 -0.1741  0.0318  0.1941
19566W        W35750   4.520   4.615   5.253  0.1717  0.1341  0.1419
19567W        W35751  12.929  16.735  11.818 -0.0800 -0.1546 -0.1374
19568W        W35752   1.358   3.539   5.650  0.2894  0.1105 -0.0282
19569W        W35753  13.913  10.032   3.896 -0.1740 -0.1856  0.1789
19570W        W35754  13.656   6.106   4.419  0.1100 -0.0486  0.2588
19571W        W35755  12.215  11.466   2.991 -0.1297 -0.5391  0.0853
19572W        W35756  12.828  10.939   1.782  0.0262  0.0106  0.2369
19573W        W35757   7.531  14.129  13.072  0.0227  0.2192 -0.1425
19574W        W35758   5.697   2.543  10.510  0.2520 -0.1011 -0.1090
19575W        W35759  15.752   4.925   1.550  0.0691 -0.0094 -0.0265
19576W        W35760   7.056  10.132  14.895  0.1902  0.2770  0.1520
19577W        W35761  11.737   9.100   3.009 -0.1129 -0.0454  0.1075
19578W        W35762   7.988   5.706   2.168  0.0939 -0.1678  0.3185
19579W        W35763  14.766  18.982   0.104  0.0254 -0.2006 -0.3904
19580W        W35764   1.564   6.713   4.253 -0.0713  0.2999 -0.1633
19581W        W35765   2.831   6.459  12.165 -0.2220 -0.1476 -0.2735
19582W        W35766  16.985   9.651   3.886 -0.1268  0.2662 -0.0684
19583W        W35767  11.624   1.401  13.715  0.0936 -0.1196 -0.0063
19584W        W35768   8.065   6.440  13.749 -0.0608 -0.4645  0.2080
19585W        W35769   7.383   6.930   1.164 -0.2454 -0.1431  0.2652
19586W        W35770   1.794   9.118  11.503  0.2825  0.0109 -0.0370
19587W        W35771   8.702   8.417   2.687 -0.3037  0.1112 -0.3011
19588W        W35772  10.834  11.853   0.929 -0.1402 -0.2245 -0.0714
19589W        W35773   6.715   1.288  11.128 -0.0481  0.1622 -0.2516
19590W        W35774  14.766  10.512  13.791 -0.0585  0.2111  0.0806
19591W        W35775  14.438   8.857   2.461  0.0131 -0.1403  0.0574
19592W        W35776  17.671   8.448   2.780  0.0702 -0.1264 -0.0048
19593W        W35777  14.028   9.474  13.076  0.0243 -0.1155  0.5475
19594W        W35778  18.707  13.815   1.863 -0.0391  0.0591  0.5291
19595W        W35779  11.545   7.144  10.805 -0.1153 -0.0092  0.2488
19596W        W35780  16.065   4.240   3.664 -0.0488  0.3094 -0.0158
19597W        W35781   1.877   6.822   3.817 -0.2380  0.0629 -0.0794
19598W        W35782  15.981  12.107  11.865 -0.1973  0.0111 -0.4560
19599W        W35783   8.188  14.740  11.929 -0.0110 -0.1387  0.0394
19600W        W35784  16.473   3.773  11.873 -0.0166 -0.0213 -0.2518
19601W        W35785   3.071  16.227   2.262  0.0040 -0.0713 -0.3764
19602W        W35786  11.467   1.015   3.619  0.0976  0.0823 -0.3009
19603W        W35787   0.831  11.951   3.397  0.0569  0.0951  0.4889
19604W        W35788  15.208  10.093  14.774  0.0950  0.3619  0.1543
19605W        W35789   9.150   1.428   0.003  0.1996  0.3079  0.0697
19606W        W35790  12.373   3.836  14.753  0.0679 -0.0694  0.1463
19607W        W35791   0.026   8.314   2.909  0.0396  0.3745 -0.3427
19608W        W35792  13.866   7.117   3.654  0.2854 -0.1972 -0.0253
19609W        W35793  12.115   1.444   1.149  0.3135 -0.0964 -0.3057
19610W        W35794   6.810  16.419  13.185  0.5169 -0.0380 -0.0152
19611W        W35795   7.084   2.830  11.387 -0.0629 -0.1208 -0.2151
19612W        W35796  12.323   0.529   1.200  0.0057 -0.1351  0.1726
19613W        W35797  18.362  18.461  11.305  0.0590  0.0992 -0.1303
19614W        W35798  17.123   2.487  12.233  0.2084 -0.0922 -0.2448
19615W        W35799  11.909   8.795   3.740  0.0012 -0.0753  0.0441
19616W        W35800  11.797  16.707   4.075 -0.0806 -0.0292  0.1649
19617W        W35801  15.305   7.472   3.245 -0.1135  0.1880 -0.0203
19618W        W35802  16.884  16.140   2.952 -0.0890 -0.0268  0.0080
19619W        W35803  16.161  10.559  13.529 -0.1748  0.1804  0.0623
19620W        W35804  17.352  12.557  14.397  0.0144  0.2687  0.1014
19621W        W35805   0.151   8.942  13.478  0.2777  0.1919  0.0209
19622W        W35806   2.039  16.781  14.327 -0.0656 -0.1230  0.0267
19623W        W35807   7.515  14.394  10.524  0.1830  0.0054 -0.1546
19624W        W35808  17.201   7.463  14.084 -0.4201 -0.2840 -0.2761
19625W        W35809   3.702   2.076   2.212  0.2491  0.2533 -0.1559
19626W        W35810  18.787   9.936   3.101  0.1253 -0.0786 -0.2220
19627W        W35811  15.566   4.397   4.592  0.0006  0.0191  0.0242
19628W        W35812   4.129  14.605  14.208 -0.0184 -0.1195  0.0332
19629W        W35813  17.965   5.043   2.332 -0.1493  0.4314 -0.2409
19630W        W35814   2.689  17.601  14.409  0.0907  0.1299 -0.2872
19631W        W35815   0.083  18.881   5.233 -0.1176 -0.2831 -0.2069
19632W        W35816  14.883   4.179  10.907 -0.1064 -0.0811 -0.2272
19633W        W35817  13.144  16.817  11.357  0.2827 -0.1076 -0.0460
19634W        W35818   6.180   9.050   3.268 -0.6017 -0.2119 -0.0441
19635W        W35819  11.352   9.076   4.549  0.2799 -0.3400  0.1589
19636W        W35820  18.753   4.017   1.423 -0.0579  0.1124  0.1562
19637W        W35821  13.999  10.881  12.792 -0.0806  0.1973  0.1275
19638W        W35822   5.179  18.904   1.664  0.0259 -0.0125 -0.2013
19639W        W35823   9.913   6.537   2.071  0.0494 -0.2215  0.0510
19640W        W35824   3.544  14.068  11.535 -0.0142  0.0797 -0.0676
19641W        W35825   3.253  19.157  12.917 -0.1431 -0.3097  0.1777
19642W        W35826   6.030  12.865   2.935 -0.1937  0.1580  0.1442
19643W        W35827  11.975   9.559   3.311  0.1226  0.0386  0.0784
19644W        W35828  13.072  14.109   2.929  0.1143 -0.1744 -0.0965
19645W        W35829   8.978   2.686   3.168  0.0365  0.1576 -0.1599
19646W        W35830   6.913  19.165  10.696  0.1027 -0.1999  0.1322
19647W        W35831  15.501   3.333  13.798  0.2618 -0.0085  0.3460
19648W        W35832   5.937   8.783  10.642 -0.1056 -0.2197 -0.2768
19649W        W35833   3.443  14.560  12.939  0.1922 -0.0332  0.1041
19650W        W35834  13.860  14.037   2.266 -0.1380  0.1129 -0.0032
19651W        W35835   3.828   6.056   1.392 -0.2700 -0.2936  0.0364
19652W        W35836   0.503  10.076   0.491  0.0240 -0.1547 -0.0150
19653W        W35837  12.305   5.245   4.432  0.3604  0.2503  0.2963
19654W        W35838  18.039   3.290   1.882 -0.1628  0.0057  0.1079
19655W        W35839  15.347   5.889   2.951 -0.2045 -0.3689  0.0920
19656W        W35840  14.084   0.511   4.660  0.0697 -0.1612  0.0589
19657W        W35841  18.367   5.565   3.195 -0.0299 -0.0995 -0.1090
19658W        W35842  12.222   7.628   5.552  0.1851  0.0062  0.2582
19659W        W35843   0.039  17.860  10.594 -0.1492  0.1496  0.0937
19660W        W35844  17.763  16.756   5.433  0.0591 -0.2380 -0.1741
19661W        W35845  12.262  11.511  10.592 -0.5727  0.2151 -0.1139
19662W        W35846   2.084   7.096  14.115 -0.1735 -0.0425 -0.3073
19663W        W35847   9.958  10.075  11.433  0.1517 -0.0784 -0.2225
19664W        W35848  10.421   6.687   3.715  0.0540  0.0613 -0.2861
19665W        W35849  17.951  19.114  14.222 -0.0293  0.2164  0.0023
19666W        W35850  16.496   8.228   3.275 -0.1630  0.1492 -0.1110
19667W        W35851  11.367  11.486  10.695 -0.1714 -0.1062  0.0750
19668W        W35852  16.416   4.887  13.628  0.0359  0.3841 -0.1362
19669W        W35853   0.363  14.191   1.645  0.3950 -0.1547 -0.2373
19670W        W35854  13.376   0.213   0.015 -0.0596  0.1702 -0.1100
19671W        W35855  15.758  10.245   3.901  0.1291  0.2878 -0.0960
19672W        W35856   3.629   4.113   1.646  0.0268 -0.1021  0.3387
19673W        W35857  12.147   1.038   4.813  0.1340  0.0778 -0.1078
19674W        W35858  17.689   8.570  13.790 -0.1461  0.0125  0.1197
19675W        W35859  16.706  12.885  13.946  0.2544  0.2646 -0.1145
19676W        W35860  13.165  15.614   5.538 -0.1642 -0.0155  0.0317
19677W        W35861  18.031  14.101   3.246 -0.1526 -0.2452 -0.2567
19678W        W35862  19.249   4.744   1.098 -0.0623 -0.0105  0.3601
19679W        W35863  13.970  11.097   5.390 -0.0312  0.1787  0.0718
19680W        W35864  17.206  12.141   1.516 -0.3664 -0.0107  0.2140
19681W        W35865  16.966  18.222   4.203  0.3222 -0.2223 -0.0855
19682W        W35866   6.235  13.035  13.569  0.0059 -0.0089 -0.0438
19683W        W35867   6.593  18.455   2.429 -0.0390 -0.3638 -0.0435
19684W        W35868   1.512   5.431   4.617 -0.1348  0.2532 -0.1520
19685W        W35869   4.136   9.824  13.686  0.2235  0.1073 -0.1247
19686W        W35870  19.251   2.514  14.331 -0.0372 -0.2486 -0.2210
19687W        W35871   9.554   9.270   5.125  0.1726  0.0827  0.3058
19688W        W35872   7.461   7.766  12.653  0.0249 -0.0129 -0.2465
19689W        W35873  18.677   0.033   1.673  0.2765 -0.2750  0.0472
19690W        W35874  15.673  15.502   0.612  0.1230 -0.0865 -0.0528
19691W        W35875   8.871   7.263   0.401  0.0462 -0.0466 -0.1696
19692W        W35876   2.630   1.087  12.696  0.2849  0.0896  0.0440
19693W        W35877   0.696   8.336   5.894  0.2135  0.3116 -0.2042
19694W        W35878   0.983   6.402   5.597 -0.0604 -0.1118 -0.3012
19695W        W35879   2.505  18.924   4.255 -0.1521 -0.1703 -0.1121
19696W        W35880   7.151  11.789   2.015 -0.2395 -0.0210 -0.4436
19697W        W35881   5.556   1.578  10.555  0.2364  0.2685 -0.1597
19698W        W35882   4.220  16.955   4.526 -0.0534 -0.3064  0.3113
19699W        W35883  18.086   1.912  14.881  0.1826  0.2344 -0.1362
19700W        W35884  14.960  10.558   5.435 -0.2194  0.2522 -0.2891
19701W        W35885  17.600  16.886  11.389  0.0673 -0.1664  0.0292
19702W        W35886   1.160   2.232   0.766  0.0715  0.1037  0.2250
19703W        W35887  15.803   6.021  13.116  0.0374  0.1549 -0.0063
19704W        W35888  16.575   1.783   0.238  0.2506 -0.0136  0.1741
19705W        W35889  18.536   4.739  12.821 -0.0094  0.0557 -0.0123
19706W        W35890  14.896   5.066   2.923  0.0838 -0.0664  0.2185
19707W        W35891  16.021   4.247   5.460  0.2637  0.1565  0.3268
19708W        W35892   2.425   7.642   4.173 -0.1176  0.3572  0.1693
19709W        W35893  17.559  15.130   1.544 -0.4084  0.1475 -0.1561
19710W        W35894  15.086   5.514  13.729  0.1277  0.0486 -0.1555
19711W        W35895  12.388   5.710  11.790  0.2971 -0.0147 -0.0874
19712W        W35896   3.343  13.791   4.696 -0.0376  0.0006  0.1719
19713W        W35897   3.942  14.730   1.966  0.2879  0.2610 -0.0157
19714W        W35898   7.461   6.274  13.160  0.0278  0.0131  0.1003
19715W        W35899   6.860   0.994   4.395  0.3372 -0.1389  0.2652
19716W        W35900   4.885  16.219  12.637  0.1322  0.1599 -0.2209
19717W        W35901  10.169  13.114   1.620 -0.2940 -0.2429 -0.4076
19718W        W35902   7.724  11.533   2.454  0.0570 -0.3123 -0.1592
19719W        W35903  14.927   5.350  12.279  0.1603 -0.3449 -0.0806
19720W        W35904  13.288   8.278  13.166 -0.1221 -0.3132  0.1854
19721W        W35905   0.600   6.446   3.674  0.3156 -0.0596  0.2384
19722W        W35906  13.241  14.223   3.790  0.0183 -0.0272  0.1881
19723W        W35907   4.456  15.532  10.641  0.1428  0.0860 -0.1600
19724W        W35908   0.321   2.442  14.599  0.1984 -0.0239  0.0009
19725W        W35909   3.767  15.136  13.083  0.0610  0.0922 -0.0355
19726W        W35910  13.233   7.727   0.573  0.2595 -0.1981  0.1197
19727W        W35911   4.589  16.851  13.972  0.0024  0.0285  0.0196
19728W        W35912   6.972   8.757  14.674  0.0970 -0.1159 -0.1645
19729W        W35913   1.655  12.026   4.695  0.3349 -0.1031 -0.0658
19730W        W35914   1.857   9.090  14.138  0.3919 -0.2623 -0.2881
19731W        W35915  11.812   1.150   0.625  0.0765 -0.0834 -0.1389
19732W        W35916  16.676   0.898   1.261 -0.1853  0.1248  0.2286
19733W        W35917  14.969  13.500  11.384  0.0190  0.2405  0.3133
19734W        W35918   3.802  10.608   2.738  0.0392  0.1537 -0.0529
19735W        W35919  10.888   6.626   1.047  0.3726 -0.1923 -0.1999
19736W        W35920   4.861  14.609  11.622 -0.3035 -0.4151 -0.2655
19737W        W35921   5.742  17.594   3.281  0.0351 -0.1945  0.0333
19738W        W35922  18.126  14.322   1.883 -0.5736  0.2761  0.2040
19739W        W35923  17.299   4.787   1.795 -0.1079  0.0353  0.1866
19740W        W35924  10.732  11.429  14.466  0.2693  0.0708  0.0127
19741W        W35925  18.885  19.010   2.527  0.0499 -0.1346  0.1427
19742W        W35926   8.802   3.099   0.242 -0.3699 -0.2929 -0.1315
19743W        W35927  17.313  11.477   5.212 -0.0394  0.2689  0.1045
19744W        W35928   7.359   0.530   2.689 -0.5300  0.1228 -0.0892
19745W        W35929  10.581   7.089  14.387  0.1718  0.1678  0.4074
19746W        W35930  16.088   5.962  12.601  0.2725  0.1625 -0.1127
19747W        W35931  12.212   1.593  11.189  0.2355 -0.3951 -0.0419
19748W        W35932   1.623   1.088  11.648 -0.0845  0.1121 -0.3015
19749W        W35933  16.085   7.549   2.813 -0.2051 -0.2901  0.0446
19750W        W35934   4.382  12.682  12.201  0.0383 -0.2905 -0.2462
19751W        W35935   4.430  10.807   3.625  0.0644  0.0150  0.1588
19752W        W35936   9.365  14.716   9.962 -0.0275 -0.0490  0.1868
19753W        W35937   2.797   7.473   4.493 -0.0179 -0.0270 -0.0510
19754W        W35938   0.896  13.344   2.038  0.2340  0.0768 -0.1446
19755W        W35939   4.854  15.389  12.041 -0.0428  0.1633 -0.0944
19756W        W35940  14.431   8.317  14.003 -0.1491  0.0610 -0.0474
19757W        W35941  14.786   2.003   0.974 -0.1255 -0.2108 -0.0087
19758W        W35942   6.891  14.048  10.259  0.1886 -0.1418 -0.2380
19759W        W35943  17.432  15.632   3.800  0.1048 -0.1156 -0.1577
19760W        W35944  15.839   0.619  12.625  0.0983 -0.0563  0.0143
19761W        W35945  17.188  14.667   4.746  0.0388  0.3276 -0.1857
19762W        W35946  17.876   3.648   4.116  0.0702  0.0817 -0.3651
19763W        W35947   1.019   8.748   3.072 -0.1052  0.1466 -0.0262
19764W        W35948   0.236  12.899  12.489 -0.2847  0.3700 -0.1030
19765W        W35949  13.351  13.390   5.438 -0.3033  0.0554 -0.4258
19766W        W35950  13.731  13.240   0.663 -0.0505  0.1020  0.0542
19767W        W35951   4.052  16.796   5.808  0.0527  0.2898 -0.0358
19768W        W35952   3.725  12.375  11.441  0.0029 -0.0217 -0.0998
19769W        W35953  15.217   3.595   4.507 -0.0752  0.0518  0.2577
19770W        W35954  11.595  12.568   4.110  0.0967 -0.2219 -0.2084
19771W        W35955   9.166  10.806   1.071 -0.0761  0.0718 -0.2336
19772W        W35956  18.724   7.329   0.394  0.0732 -0.0247  0.3761
19773W        W35957   8.053  12.242  11.308  0.1628 -0.0900  0.0284
19774W        W35958   0.300   0.885   1.086 -0.0254 -0.1184  0.0091
19775W        W35959   9.774   3.213   3.397  0.2351 -0.0805  0.0212
19776W        W35960   2.627   0.199  12.427  0.3643  0.3189 -0.1258
19777W        W35961  16.507   1.948   3.922  0.4068 -0.1010 -0.3210
19778W        W35962  16.387  16.229   4.446  0.0114  0.0797 -0.0930
19779W        W35963  12.534  12.480   3.255 -0.3279 -0.1143 -0.0624
19780W        W35964   7.488  10.735  12.422  0.2356  0.0331  0.1277
19781W        W35965   6.925  17.848  12.384  0.1769  0.1663 -0.1095
19782W        W35966  11.535  14.375   0.115 -0.1808 -0.3814  0.3882
19783W        W35967  18.757   2.512  14.066  0.0418 -0.0770 -0.2940
19784W        W35968  10.188   2.882  10.976  0.2630  0.2072 -0.0065
19785W        W35969   6.035   5.337   1.210 -0.3722 -0.3139  0.5260
19786W        W35970   0.983   1.096  13.302  0.0952 -0.1309  0.1644
19787W        W35971   5.599   2.032   2.920 -0.3746 -0.1567 -0.1425
19788W        W35972  14.428  10.534   4.667 -0.2238  0.0661  0.0638
19789W        W35973  10.361  15.597   0.819  0.1181  0.3588  0.0849
19790W        W35974  14.789  10.358  14.326 -0.3691 -0.0935 -0.2058
19791W        W35975   2.833  12.531  10.574 -0.2417  0.1716 -0.1096
19792W        W35976  11.378  17.045  12.849 -0.0912  0.2330  0.0827
19793W        W35977  11.539   4.652   2.949  0.2139  0.0477  0.1203
19794W        W35978  14.726  11.721   1.244  0.2404 -0.0504  0.0740
19795W        W35979   8.195  12.277   2.994 -0.3335 -0.1792 -0.1338
19796W        W35980  13.312   2.574   3.585 -0.0159  0.1887  0.1626
19797W        W35981   1.543   3.481   2.375 -0.1343 -0.0771  0.2393
19798W        W35982   7.183  17.126  14.601 -0.3742 -0.1648 -0.1157
19799W        W35983   3.997   3.652  10.617 -0.1106 -0.3394 -0.0789
19800W        W35984   8.075   5.076   0.538 -0.0433 -0.1695 -0.3500
19801W        W35985   6.397  14.516  11.881  0.0445  0.0445 -0.2070
19802W        W35986   0.042   8.855   1.221 -0.1282 -0.0689 -0.0843
19803W        W35987  10.669   2.186   4.066 -0.1983 -0.2396  0.2579
19804W        W35988  10.156   6.182  14.382  0.2742 -0.0704 -0.0852
19805W        W35989   3.208   5.263  14.226 -0.1539 -0.2821 -0.3034
19806W        W35990  14.365  13.291  14.903 -0.4398  0.1719 -0.0553
19807W        W35991   5.868  17.131   3.111  0.4757 -0.0236 -0.0332
19808W        W35992   3.381  16.198  12.168 -0.0626  0.0122  0.0508
19809W        W35993  18.837   2.691   1.754 -0.0254  0.0272  0.4075
19810W        W35994   1.032  15.943   3.043  0.4726 -0.2493 -0.0754
19811W        W35995   5.957  16.246  13.973  0.0274 -0.4411 -0.1660
19812W        W35996   4.698  18.739   6.137 -0.2694 -0.1959  0.1287
19813W        W35997  15.386   0.227   3.529  0.2686 -0.1871 -0.3640
19814W        W35998  16.710  16.152  14.828  0.0014  0.1771  0.2459
19815W        W35999  16.876   0.540   0.990  0.2600 -0.0124 -0.2220
19816W        W36000   7.806  19.323  13.809  0.2782  0.1362 -0.0691
19817W        W36001   9.200   2.825  12.141 -0.0410 -0.0519 -0.1866
19818W        W36002   0.788   4.240  13.057  0.0753  0.1721  0.2072
19819W        W36003  17.634   4.562  14.311  0.1189 -0.0606  0.0628
19820W        W36004   7.658   5.271   0.778  0.0557  0.1106  0.2411
19821W        W36005  13.333   7.569  13.818  0.2434  0.3368 -0.0799
19822W        W36006  10.427   5.024   9.958  0.0356 -0.0190 -0.2599
19823W        W36007  12.426  17.272  13.689 -0.0258  0.2338 -0.4393
19824W        W36008  11.270   8.398  10.522 -0.1213  0.2491 -0.1646
19825W        W36009   4.595   5.226   0.200  0.4470 -0.0201 -0.3587
19826W        W36010  16.411  19.138   0.974 -0.1115  0.2866 -0.1594
19827W        W36011  14.737   1.493   4.313 -0.3500 -0.2503  0.0234
19828W        W36012  10.416   3.025   0.045  0.0045 -0.1389  0.0091
19829W        W36013   4.626   7.114  14.843 -0.1930 -0.2186  0.1472
19830W        W36014   4.097  16.996  13.218  0.2463  0.0912  0.0639
19831W        W36015  12.258   7.279  12.328 -0.3985  0.1553 -0.1841
19832W        W36016  15.287  14.934   2.457  0.0574 -0.1941 -0.1060
19833W        W36017   0.112   0.026   4.382 -0.3000  0.0021  0.0594
19834W        W36018  15.267   1.471   2.670  0.1863  0.0433 -0.0098
19835W        W36019  18.462  17.668   2.832 -0.1105  0.1401 -0.2247
19836W        W36020   6.976  10.840   1.104 -0.2317 -0.0699  0.2768
19837W        W36021  17.409  10.833  14.447 -0.1854 -0.1642  0.1126
19838W        W36022  13.073   4.916   3.816  0.0176  0.0260 -0.2127
19839W        W36023   8.560  10.722  14.089 -0.2301  0.0630 -0.2932
19840W        W36024  15.019   9.318   3.248  0.1968  0.2091  0.0035
19841W        W36025  16.151   0.989  14.382  0.1815  0.0082 -0.1377
19842W        W36026  12.636  11.955  11.170  0.2312 -0.2052  0.0872
19843W        W36027  18.735  18.060  14.119 -0.2592  0.0883 -0.0887
19844W        W36028  15.203  16.979   0.134  0.4743  0.4059  0.0105
19845W        W36029  15.572  10.564  10.768 -0.2443 -0.1722 -0.2175
19846W        W36030   6.360   7.343  10.748 -0.0859  0.2476 -0.1047
19847W        W36031   1.872  18.143  11.845 -0.1124 -0.1452 -0.3038
19848W        W36032  17.567   0.394  14.830 -0.1702 -0.1210  0.0195
19849W        W36033   3.386   1.855  12.393 -0.2328  0.2851  0.2259
19850W        W36034   7.108  12.294   3.287  0.1052  0.4009 -0.2834
19851W        W36035  14.268   6.945  12.192  0.1463 -0.1980  0.1888
19852W        W36036  16.895   0.396   4.326  0.1474 -0.0184  0.2174
19853W        W36037  11.598  16.546  12.633  0.0733  0.2311 -0.0295
19854W        W36038   4.400   3.393   4.316 -0.0445 -0.0028  0.0371
19855W        W36039   2.932   8.421   1.768 -0.1751  0.0656  0.2435
19856W        W36040  15.814   4.995  13.380  0.1785 -0.0750  0.4435
19857W        W36041   7.276   1.999   3.520 -0.0345  0.1704 -0.0419
19858W        W36042  15.571  15.447   9.946  0.0134 -0.4509 -0.3379
19859W        W36043   9.674  17.643  14.539 -0.1210  0.0618 -0.1621
19860W        W36044  16.202   7.463  12.110  0.1699 -0.0603  0.0249
19861W        W36045  15.863   2.305   4.464 -0.0817  0.1968  0.1634
19862W        W36046  13.271   8.177   0.339  0.0369  0.0747  0.0320
19863W        W36047  14.615  10.003   9.764  0.0596 -0.1750 -0.2777
19864W        W36048  10.260   6.990   2.707  0.0710  0.3274  0.0677
19865W        W36049  11.453   4.281   3.395  0.0500 -0.3093  0.0916
19866W        W36050   7.541  18.536   2.026 -0.0110  0.0515  0.1299
19867W        W36051  11.979   3.785   4.043 -0.1349  0.2161  0.0806
19868W        W36052  18.498   9.137   4.910  0.3895 -0.2499  0.1899
19869W        W36053  14.024   3.842   5.001  0.0577  0.2364 -0.2116
19870W        W36054  11.656  19.179   4.468 -0.1019 -0.1743  0.0194
19871W        W36055   1.193   9.585  11.863  0.0780  0.1094  0.1899
19872W        W36056  19.136   1.304   1.331 -0.1405 -0.1526 -0.2030
19873W        W36057   9.401  16.809   5.155  0.3843  0.2085  0.2926
19874W        W36058   3.011   7.786   0.293  0.2969  0.1615 -0.4340
19875W        W36059   6.921  19.253   3.037 -0.2135  0.0055 -0.0692
19876W        W36060  15.127   0.294   2.373  0.3289 -0.0809  0.0132
19877W        W36061  13.240   9.018  12.857  0.1441  0.0746 -0.0439
19878W        W36062  13.881  15.158   3.796 -0.0796  0.2660  0.0525
19879W        W36063   1.764   0.706  12.434 -0.1619 -0.2769  0.1248
19880W        W36064   5.586   4.180   4.580 -0.0137 -0.0535 -0.1190
19881W        W36065   2.502  12.063  12.398 -0.5564 -0.1134 -0.0590
19882W        W36066   6.347   3.946   2.438  0.0796 -0.0646  0.2408
19883W        W36067   9.039  14.591  12.686  0.0111 -0.0828  0.1783
19884W        W36068  11.128  16.027   1.085 -0.0304 -0.2328 -0.0669
19885W        W36069  15.355  10.290  13.863 -0.1706  0.0721 -0.3111
19886W        W36070  12.391  10.458   2.182  0.0193  0.1513  0.1026
19887W        W36071   4.476   1.290   0.451 -0.1088 -0.3067  0.1586
19888W        W36072   8.870  13.350  12.283 -0.1669  0.0112  0.2249
19889W        W36073  18.645  14.717  11.323  0.2188  0.1195  0.6102
19890W        W36074  10.245  19.217  14.899 -0.0501  0.1361  0.1005
19891W        W36075  12.903   0.039  12.769 -0.1742 -0.0568 -0.3238
19892W        W36076  16.047   6.148  11.109  0.0899  0.1795  0.1074
19893W        W36077  11.674   2.166   4.079 -0.1386  0.3979 -0.0386
19894W        W36078  17.030   8.147  12.006 -0.1593 -0.1085 -0.0457
19895W        W36079   5.466   4.404   2.230 -0.1355  0.0551 -0.0117
19896W        W36080  13.964  18.863   2.431 -0.1202  0.2915 -0.0833
19897W        W36081   6.762   1.983   4.349  0.0636 -0.4310 -0.0971
19898W        W36082   5.672   1.451  11.064 -0.3113 -0.0480 -0.2714
19899W        W36083   9.669   0.619  13.957  0.0815  0.2261 -0.0762
19900W        W36084   8.728  18.246  12.356  0.1117  0.3423 -0.3416
19901W        W36085   2.510   7.877   2.119 -0.2133 -0.1993  0.0086
19902W        W36086   7.385   2.222  12.673 -0.1965  0.0640  0.3924
19903W        W36087  15.164   2.716   4.680  0.0670 -0.0928 -0.3220
19904W        W36088   7.016  15.728  13.643  0.3090 -0.1194  0.0383
19905W        W36089   6.597  12.887  11.971  0.2144  0.2884 -0.0418
19906W        W36090   5.656   1.784   4.207 -0.0114  0.0295  0.1264
19907W        W36091   3.947   0.978  12.268 -0.3087  0.1428 -0.2402
19908W        W36092   0.934  15.708   2.051  0.1467  0.3278  0.0605
19909W        W36093   8.422   4.703   2.237 -0.1947  0.1371 -0.0110
19910W        W36094   6.557   9.745  10.895 -0.1061  0.1815 -0.1394
19911W        W36095  18.926  11.709   3.243  0.4709 -0.0192 -0.0235
19912W        W36096   9.838   5.961   3.711  0.0320 -0.2889 -0.1498
19913W        W36097   7.146   4.241  11.361 -0.0228 -0.0511  0.0388
19914W        W36098   4.147  13.921  11.162  0.0785 -0.3962 -0.1641
19915W        W36099   2.426  15.322   2.915 -0.1023 -0.2672  0.0244
19916W        W36100   7.633   0.782  10.126 -0.6298  0.0100 -0.2096
19917W        W36101   0.548  10.564   0.633  0.1423 -0.0945 -0.0737
19918W        W36102  12.266   3.479  10.428 -0.0721  0.0043  0.0334
19919W        W36103   0.793  16.903  13.704 -0.0917  0.2852  0.1960
19920W        W36104   4.537  11.289  10.736  0.0058 -0.1996 -0.1956
19921W        W36105  15.666   3.833   4.631 -0.1349 -0.2296  0.0608
19922W        W36106   8.919   0.832  11.596  0.1350 -0.0146 -0.0008
19923W        W36107   1.959  11.320   3.066  0.1225 -0.0239 -0.3239
19924W        W36108   4.753  17.327  14.901  0.1425 -0.1537 -0.0433
19925W        W36109   4.568  17.130   3.137  0.1854  0.0026 -0.2897
19926W        W36110   0.247   7.275  14.151  0.1701 -0.1694 -0.2501
19927W        W36111   6.275   4.417   1.740  0.2451  0.3402  0.1649
19928W        W36112   0.430   5.535   2.125  0.1411 -0.0587  0.1958
19929W        W36113   5.485   8.841  10.969  0.3202 -0.0244  0.4344
19930W        W36114   1.352   6.430  11.031  0.0547  0.1339  0.0922
19931W        W36115   0.043  16.404   9.924 -0.0154 -0.2341 -0.0863
19932W        W36116  13.778   3.640   1.445  0.2180 -0.0226 -0.1267
19933W        W36117   5.329   4.455   3.409  0.1660  0.1011  0.2615
19934W        W36118  14.989  10.446   0.693  0.2900 -0.0376 -0.2926
19935W        W36119   1.117   0.305  11.195 -0.0243  0.0179 -0.0990
19936W        W36120   4.685   6.971   0.359 -0.0738 -0.1666 -0.2715
19937W        W36121   7.678  17.429   2.507 -0.1142 -0.1222  0.0824
19938W        W36122   9.519  18.614   4.594 -0.0307  0.2243  0.3354
19939W        W36123  13.846   2.790  13.916  0.3120 -0.4468  0.0452
19940W        W36124   9.539  15.621   2.837 -0.2750 -0.1396 -0.1718
19941W        W36125  12.238   5.193  14.641 -0.1678  0.1717 -0.0680
19942W        W36126   1.757   1.650  11.714  0.0528 -0.1089  0.3495
19943W        W36127  17.245   8.244   4.642  0.1255 -0.1109  0.0197
19944W        W36128  17.821  16.322  12.480  0.0425  0.1194  0.0994
19945W        W36129   5.315  10.216  11.754  0.2657 -0.2616  0.1730
19946W        W36130   9.354  12.753   2.293  0.1159  0.0833  0.0072
19947W        W36131  11.727   3.481   2.215  0.1130 -0.3862  0.0959
19948W        W36132  10.484  13.501   0.571  0.5536  0.0463  0.3341
19949W        W36133   6.650   1.517  14.766 -0.0176 -0.1344 -0.1513
19950W        W36134   8.024   9.013   5.197  0.4655  0.0482  0.2366
19951W        W36135  12.865  16.033   3.581 -0.0852 -0.0037 -0.3477
19952W        W36136  19.010   1.077   4.280 -0.0152 -0.1099 -0.3820
19953W        W36137   3.238   0.351  14.903  0.0477 -0.0218 -0.1536
19954W        W36138   5.308  11.976   2.113  0.4801 -0.2944 -0.0270
19955W        W36139   2.567  10.298  10.476  0.3727  0.0400  0.2776
19956W        W36140  12.277   3.152   2.739 -0.2694 -0.3376 -0.0374
19957W        W36141   5.904  15.882   2.222  0.0470  0.1544  0.2556
19958W        W36142  18.466  11.719  13.939 -0.3275  0.1492  0.3212
19959W        W36143  16.965  17.654   1.443 -0.2416 -0.2799  0.3276
19960W        W36144  15.096   5.542  14.655 -0.0337 -0.0292 -0.0341
19961W        W36145  14.776  14.745   3.277 -0.0957  0.1504 -0.1809
19962W        W36146   1.117  14.861   0.053  0.1680  0.2852 -0.0552
19963W        W36147  10.661   1.693  13.442 -0.0128 -0.0814 -0.0626
19964W        W36148   5.512  15.665   2.455  0.2635  0.0004 -0.1889
19965W        W36149   2.496  14.262   3.575  0.2439  0.3537 -0.0251
19966W        W36150   3.361  13.229   4.419 -0.1730  0.2504 -0.1091
19967W        W36151   0.845  19.099  12.494 -0.0518 -0.1198 -0.1578
19968W        W36152   4.769  14.267   4.018  0.1893 -0.0764  0.3808
19969W        W36153  11.071  11.113  13.348  0.0800 -0.0608  0.1419
19970W        W36154  15.331  13.469   4.227  0.0358  0.1603 -0.1269
19971W        W36155  16.546  17.027  12.669 -0.0118  0.2544  0.1812
19972W        W36156  17.792   1.609   2.386  0.1456  0.1810  0.1217
19973W        W36157  16.996  18.791   0.164 -0.0722  0.1223 -0.0131
19974W        W36158   3.651   0.500  11.533 -0.0726  0.0882  0.2023
19975W        W36159  17.334   3.065   0.574 -0.0128  0.0360  0.1957
19976W        W36160  13.989  17.209   0.823 -0.0320  0.2576 -0.2640
19977W        W36161   8.456   8.393  13.424  0.3021 -0.1483 -0.1256
19978W        W36162  11.257   9.206   1.437 -0.1657  0.0191  0.1585
19979W        W36163  16.432  16.507   1.861 -0.0061  0.1845  0.1678
19980W        W36164   8.441   9.907   1.239  0.3030  0.2095 -0.3035
19981W        W36165   2.386   0.978   3.558 -0.1514  0.2304  0.0752
19982W        W36166   4.085  13.925  13.439  0.0406  0.0995  0.0480
19983W        W36167   4.069   4.521  11.080 -0.1490  0.2734  0.0368
19984W        W36168   7.782  11.803   3.811  0.1060 -0.3858 -0.1812
19985W        W36169  10.943   1.309   0.422  0.0507  0.1337 -0.0970
19986W        W36170  15.618  18.476   0.419 -0.1845  0.1096 -0.3916
19987W        W36171   4.074  17.274   3.990  0.1913 -0.1143 -0.3096
19988W        W36172   3.316   5.921   1.596 -0.1881 -0.0873  0.1811
19989W        W36173  18.906   0.822   1.423 -0.1373 -0.2990 -0.0337
19990W        W36174   2.539   2.029   3.933 -0.1508  0.1750  0.0949
19991W        W36175  11.706   2.485   4.481 -0.1258  0.2065  0.2388
19992W        W36176  15.392  15.390  10.649  0.2916  0.3299 -0.0487
19993W        W36177   9.658  16.854   0.701 -0.1629  0.0858  0.2388
19994W        W36178  18.223  18.320   3.442 -0.2533 -0.1942 -0.3024
19995W        W36179   7.812   0.790   2.292  0.0513  0.2567 -0.1369
19996W        W36180   3.915  13.468  13.210  0.0165  0.0772  0.1953
19997W        W36181   3.530   7.666   5.127 -0.0313 -0.3303 -0.0921
19998W        W36182   8.760  17.701   4.749  0.1498  0.3672 -0.2046
19999W        W36183  17.998   2.750   3.119  0.1040  0.0564  0.0720
20000W        W36184   0.114   1.730   2.947 -0.1108 -0.1905 -0.1038
20001W        W36185   1.630   3.319   4.532 -0.0966  0.0425  0.2290
20002W        W36186   7.930  12.944  10.496  0.0173  0.1600  0.1021
20003W        W36187  17.505   0.119  10.679  0.4992  0.1230  0.1068
20004W        W36188  11.565   7.966   3.453 -0.0230  0.0486 -0.1761
20005W        W36189  11.619   3.699  11.261 -0.0951 -0.0628  0.0009
20006W        W36190   0.511   5.778  14.781  0.1084  0.2415  0.1771
20007W        W36191  11.604   9.320  13.936  0.1952 -0.2735  0.0087
20008W        W36192  14.434   6.426   1.334 -0.2538 -0.0314 -0.1354
20009W        W36193  10.175   1.511  13.389  0.1867 -0.0626 -0.3624
20010W        W36194  15.698  14.074  13.923 -0.2226  0.1049  0.1759
20011W        W36195  14.053   5.966   0.078  0.0033  0.0063  0.2005
20012W        W36196  17.305  12.090  14.171  0.1454  0.0609 -0.1292
20013W        W36197   0.841   7.750  11.531  0.4496 -0.3603  0.1871
20014W        W36198  14.495   4.754   3.376  0.0549 -0.0280 -0.2830
20015W        W36199   8.056  16.284   1.153 -0.0836  0.0938 -0.1708
20016W        W36200  18.727   9.721  12.163  0.0943 -0.0261 -0.1727
20017W        W36201  10.335  11.343  11.174 -0.1141  0.1675  0.0654
20018W        W36202   1.924   3.077   4.891  0.1781 -0.0754  0.0337
20019W        W36203   9.955   8.661   4.740 -0.1563  0.0270 -0.3108
20020W        W36204   0.674  16.228  12.987  0.3003  0.2337  0.0809
20021W        W36205  11.415   3.289  14.923 -0.2866  0.0767 -0.1806
20022W        W36206  13.975  10.149  12.028  0.0543 -0.1994 -0.2305
20023W        W36207  15.455   6.310   4.957  0.0642  0.1175 -0.1003
20024W        W36208   8.168  17.491   1.325 -0.1325 -0.0709  0.0391
20025W        W36209   2.226  19.070  13.766 -0.2369  0.1227 -0.2820
20026W        W36210  17.414   9.629   2.063  0.1402 -0.1236 -0.1580
20027W        W36211  15.262   2.001  12.719  0.1352  0.3160 -0.0874
20028W        W36212   8.408   4.112  13.628 -0.1677  0.0073 -0.0307
20029W        W36213   2.678  14.984  11.297  0.2238  0.1205 -0.1601
20030W        W36214   7.420   4.743   3.787 -0.1170 -0.1443 -0.2983
20031W        W36215  13.435  12.585  12.449  0.1576 -0.2064 -0.3581
20032W        W36216   8.047  14.023  13.125  0.1626 -0.4495  0.0981
20033W        W36217   9.912   8.263  13.777  0.1782  0.1740 -0.1111
20034W        W36218   8.316  11.671  13.408 -0.1100 -0.0265 -0.3584
20035W        W36219  18.948   1.300   0.555  0.0845  0.0057 -0.1298
20036W        W36220   6.921   8.280  14.789  0.0248  0.0439  0.0559
20037W        W36221  15.839  10.231  13.831 -0.0338  0.2961  0.2005
20038W        W36222   1.695   7.237  13.715 -0.3162 -0.1951 -0.1815
20039W        W36223  15.902  14.353   5.201 -0.3430 -0.3741 -0.0012
20040W        W36224   9.382  14.965  12.758 -0.0557  0.0539 -0.2001
20041W        W36225   1.638  10.927   3.129  0.2313  0.2131  0.3075
20042W        W36226   2.933  17.068   2.434 -0.1546 -0.1868 -0.1976
20043W        W36227  13.039   4.319  14.395  0.0046 -0.2415 -0.0866
20044W        W36228   6.386   6.346   9.997 -0.2904 -0.1644 -0.4038
20045W        W36229   9.455   3.841   1.032 -0.2498  0.2212  0.3646
20046W        W36230   6.945  13.465  13.030 -0.1332 -0.0718  0.0379
20047W        W36231  19.336   9.373  10.615 -0.1420 -0.3551  0.1062
20048W        W36232   9.890  10.104  10.522  0.1071  0.0453 -0.0695
20049W        W36233  15.293   9.175   1.386 -0.1402  0.0151  0.0912
20050W        W36234  13.055   6.286   2.553 -0.1624  0.1530  0.1733
20051W        W36235  18.459   6.447  11.702 -0.1229  0.1949  0.1876
20052W        W36236   8.101  15.423   4.205 -0.1222  0.1498 -0.1986
20053W        W36237   5.106   9.743   3.002  0.0027 -0.4312  0.2385
20054W        W36238   1.558   1.301  14.070  0.0196 -0.0308 -0.1694
20055W        W36239  13.349   1.249   1.566  0.1486 -0.0137 -0.2120
20056W        W36240  15.387  11.342  10.550  0.1869  0.0207 -0.0278
20057W        W36241   3.415  13.334  13.172  0.0808 -0.4526  0.0113
20058W        W36242  10.959   2.550  10.402  0.2269 -0.1561  0.3804
20059W        W36243   6.125   0.685   0.856 -0.1529  0.0576  0.0315
20060W        W36244   3.395  18.879  12.490  0.3674  0.1411  0.1055
20061W        W36245   1.728   2.662   1.165 -0.1066 -0.0911 -0.1916
20062W        W36246   1.585  16.907  14.389  0.0184 -0.0647  0.0309
20063W        W36247   3.612   3.534   0.201 -0.1197  0.0813 -0.2095
20064W        W36248   8.148   7.404  14.702  0.1587 -0.0339 -0.2577
20065W        W36249   8.788  12.616  13.805 -0.1578  0.4791  0.0229
20066W        W36250   0.311  15.372   2.166  0.1119  0.1183  0.0379
20067W        W36251   5.513  15.979  13.451  0.1992  0.0362 -0.1062
20068W        W36252  11.682   1.684   3.162 -0.1565 -0.3485 -0.1440
20069W        W36253  15.510   7.319  11.968  0.3552  0.6940 -0.1848
20070W        W36254   0.611   5.695  11.976 -0.4345  0.0966  0.0814
20071W        W36255   0.419  17.565  14.145  0.0987 -0.0021  0.1560
20072W        W36256  10.585   4.350  10.557  0.5125  0.4739 -0.1362
20073W        W36257  15.708  16.625  11.464  0.1478  0.1370 -0.1057
20074W        W36258   2.825  18.730  12.977  0.2049  0.0958  0.0143
20075W        W36259  16.456  10.043  10.987  0.0904  0.2527 -0.2007
20076W        W36260   6.617   9.131   1.845  0.0946  0.1803  0.0587
20077W        W36261  18.335  16.119  11.297  0.0509  0.0356 -0.0603
20078W        W36262   7.752   8.537   0.384 -0.1104 -0.1109  0.3708
20079W        W36263   3.949   3.777   1.428 -0.1552 -0.3057 -0.2047
20080W        W36264   6.140   2.763   4.430 -0.1374 -0.1235  0.0007
20081W        W36265  10.343   4.697  12.023  0.2185  0.1730 -0.1716
20082W        W36266  14.510  17.318   0.829  0.0899 -0.1416 -0.1974
20083W        W36267   2.098  11.477  12.099 -0.3035 -0.0657 -0.0129
20084W        W36268   3.977  16.222  13.922 -0.2424 -0.4717 -0.0647
20085W        W36269   7.899  15.048   4.528  0.3139  0.1017 -0.0673
20086W        W36270   4.878  13.191   1.989  0.1001  0.2367 -0.0241
20087W        W36271   6.365   4.656   5.254 -0.3235  0.0349  0.0787
20088W        W36272   6.032   3.475   0.141 -0.1844  0.0516  0.0027
20089W        W36273  13.629   0.955   2.809  0.0721  0.0291 -0.0347
20090W        W36274  17.088   0.108   4.820 -0.1972 -0.1716 -0.0285
20091W        W36275  15.664  11.500   0.865  0.0140 -0.1007  0.0046
20092W        W36276  12.527  17.371   4.877 -0.1014  0.5164  0.1114
20093W        W36277  15.647  18.501   1.588  0.1097 -0.2396  0.1255
20094W        W36278   3.877   2.060  12.681 -0.3056  0.0671 -0.2210
20095W        W36279  17.221  11.107   1.629 -0.4035 -0.0420  0.1775
20096W        W36280   4.886  11.892   3.828 -0.0636 -0.2734 -0.1698
20097W        W36281   5.392   6.882   0.306  0.6084  0.0336  0.2579
20098W        W36282  11.301  16.276  13.022  0.0125  0.0345 -0.0484
20099W        W36283  12.364   7.504   3.375  0.1527 -0.3507  0.2029
20100W        W36284  14.197   6.222   4.263 -0.1078  0.0613 -0.1073
20101W        W36285  10.488  18.025   0.226 -0.2251  0.1086 -0.0489
20102W        W36286   2.682   9.771  13.212  0.0059  0.3131  0.0182
20103W        W36287   2.739  16.765  12.539  0.3452  0.0801 -0.1483
20104W        W36288   2.570   8.059   0.840  0.4067 -0.3646 -0.0802
20105W        W36289   6.098   9.527   0.057 -0.1784  0.2657  0.0407
20106W        W36290   2.193  14.743   3.617  0.2235 -0.0978 -0.0160
20107W        W36291   6.025  19.081   4.325  0.0731 -0.0452 -0.1196
20108W        W36292   8.257   4.727   1.383 -0.0424 -0.3265 -0.0027
20109W        W36293   6.482  17.719   1.904 -0.3165  0.1061 -0.0376
20110W        W36294   7.771  10.427   0.045  0.2145  0.0308 -0.4041
20111W        W36295   0.041  12.459   4.526  0.2790 -0.2670  0.1230
20112W        W36296  12.940   3.866  11.883  0.2457  0.0777 -0.1703
20113W        W36297   5.458   4.792   2.537  0.3443  0.0353  0.0676
20114W        W36298   0.795  14.970   1.471  0.2488  0.1349  0.0855
20115W        W36299  19.083  12.598   3.276 -0.1536 -0.1090  0.1677
20116W        W36300   3.323   7.503   2.303  0.2266  0.0233  0.3977
20117W        W36301  18.813   3.532  12.110  0.2158  0.2574  0.1531
20118W        W36302  18.903   6.102  12.424  0.4186 -0.0405  0.0494
20119W        W36303   7.558   4.864  12.903 -0.0024  0.0264 -0.0143
20120W        W36304   5.590   1.675   5.010 -0.0594 -0.2848  0.2144
20121W        W36305  16.485  17.584   4.171  0.0093  0.3124 -0.2530
20122W        W36306   9.400  15.681  11.847  0.1038 -0.3289 -0.1230
20123W        W36307   8.957  10.694  12.520 -0.0662 -0.0460  0.2502
20124W        W36308  10.819   4.684   2.235 -0.0266 -0.1080  0.0908
20125W        W36309   1.913  15.433  10.798  0.1159  0.1726 -0.0456
20126W        W36310  11.537  10.056   1.936  0.0996  0.0043 -0.0425
20127W        W36311  15.380   8.697   1.065 -0.1562 -0.2442 -0.1215
20128W        W36312  15.228  11.884   2.546 -0.0630  0.4280 -0.0580
20129W        W36313  17.262   5.029   3.680  0.2557 -0.4342  0.0074
20130W        W36314  17.174  16.782  14.099 -0.2375  0.0514  0.0217
20131W        W36315  13.162   1.663  10.446  0.1532  0.2216  0.4067
20132W        W36316  18.333  18.176   1.464 -0.0440 -0.1484  0.0294
20133W        W36317  11.310  16.273   3.552 -0.1525 -0.2190 -0.2408
20134W        W36318  17.834   1.106   4.965 -0.1977  0.2543  0.2851
20135W        W36319   3.172   7.299   0.718  0.4694 -0.0645  0.0832
20136W        W36320   3.274  15.041  14.263 -0.1659  0.1894  0.1399
20137W        W36321  16.571  12.548  14.828 -0.0928  0.0333 -0.0430
20138W        W36322   9.594   6.658  10.570 -0.1400 -0.0191  0.2029
20139W        W36323   8.491  14.128   3.688 -0.0913 -0.2100  0.0880
20140W        W36324   9.391   6.360  12.215  0.0374  0.0346 -0.1580
20141W        W36325  15.079  16.957  13.298 -0.1484  0.1913 -0.1138
20142W        W36326  11.853   1.168  12.469  0.2264  0.3043  0.1264
20143W        W36327   7.250   8.135   4.857 -0.1690 -0.1341  0.2088
20144W        W36328   7.894   9.405   1.466  0.3225  0.1816 -0.1165
20145W        W36329  13.483   3.706   4.106  0.1521  0.0979 -0.3153
20146W        W36330   1.106  18.810  10.884  0.2141  0.1349  0.2814
20147W        W36331   5.283   2.142   9.555 -0.1006  0.2129  0.0362
20148W        W36332  12.923  19.026   2.890 -0.2353  0.1025  0.0010
20149W        W36333  11.637  15.486   2.907  0.0161  0.2125  0.2804
20150W        W36334  18.442  16.117   1.608  0.1456 -0.3327  0.0530
20151W        W36335   1.511   2.574   5.411  0.0528  0.1118 -0.3486
20152W        W36336  18.325  18.151   4.865 -0.1200 -0.3840  0.1760
20153W        W36337   3.514  18.938  13.547  0.0786 -0.0376  0.2080
20154W        W36338   0.725  17.323   2.637 -0.0177 -0.0154 -0.1003
20155W        W36339  12.719   8.849   0.461  0.3652 -0.1323  0.1666
20156W        W36340   9.033   8.398   1.451  0.1362 -0.1876  0.1652
20157W        W36341  13.659   2.724  13.429  0.0503  0.1225  0.2364
20158W        W36342  15.483   4.950   4.084 -0.0381  0.2415  0.2515
20159W        W36343  16.962   9.454  11.472 -0.0020 -0.2080  0.0485
20160W        W36344   1.881   5.488  12.458 -0.1263 -0.0304  0.0387
20161W        W36345   0.323   2.628   0.113  0.2770  0.2104 -0.0909
20162W        W36346  16.845  11.499  12.123 -0.1620  0.2712  0.3530
20163W        W36347   3.549   3.972   0.569 -0.1980  0.1648  0.1616
20164W        W36348  11.453  13.446  13.807  0.1453 -0.1622 -0.1291
20165W        W36349  12.461   5.859  12.940 -0.0427  0.1902 -0.1209
20166W        W36350  17.368   9.407  13.689  0.1785  0.0480 -0.1201
20167W        W36351   0.933  16.158  14.076  0.1537 -0.1701 -0.1334
20168W        W36352   6.398   7.097   1.336 -0.1306  0.0808 -0.0188
20169W        W36353  18.365   2.149  14.166  0.4364 -0.0876  0.0068
20170W        W36354   9.080  15.303   3.880  0.0435 -0.4051 -0.4257
20171W        W36355  11.416   5.963  10.025  0.0784  0.1989  0.1424
20172W        W36356  12.731  18.043  13.825 -0.0149 -0.0244  0.1512
20173W        W36357  12.395  10.847  11.406  0.1800 -0.0401 -0.0157
20174W        W36358   2.345   3.879   2.070  0.0792 -0.3197 -0.4236
20175W        W36359  12.553  16.833   4.750 -0.1980 -0.0513  0.0648
20176W        W36360   0.824  17.778   1.388  0.1203  0.1482  0.0871
20177W        W36361   2.320   5.555  12.792 -0.1776  0.2084  0.0857
20178W        W36362  11.624  14.989  13.538  0.1450 -0.1496 -0.0462
20179W        W36363   4.893   6.928   0.878  0.3314 -0.2180 -0.0934
20180W        W36364  16.460   7.973   0.347 -0.0275 -0.3162  0.1011
20181W        W36365  10.443   0.564   2.168 -0.1358  0.1668  0.0302
20182W        W36366  11.341   3.456  10.056  0.1861  0.1166 -0.2438
20183W        W36367  10.503   9.346  10.440 -0.1539 -0.1155  0.2113
20184W        W36368  16.138  12.234  12.345  0.2012 -0.5340  0.0187
20185W        W36369   2.007   8.114   0.664 -0.2439  0.3356 -0.2311
20186W        W36370   1.623  18.538   0.203 -0.1055  0.1153 -0.3408
20187W        W36371  10.389  14.172   3.629  0.0009 -0.0264 -0.2295
20188W        W36372  19.309   9.189   2.872 -0.0414  0.1135 -0.0708
20189W        W36373   4.258  15.554   2.281  0.1906  0.1880  0.1516
20190W        W36374  14.264  13.401   3.824  0.0299 -0.0082 -0.2835
20191W        W36375  17.113  17.798   1.935  0.1332 -0.0185  0.1340
20192W        W36376   6.763   2.225  14.127 -0.0822  0.1943  0.1259
20193W        W36377  17.591  11.854  13.686 -0.0047 -0.0048  0.0670
20194W        W36378   5.731   0.753   3.709 -0.4681  0.2268  0.1011
20195W        W36379  12.579   8.521  14.115 -0.3476 -0.0169  0.0310
20196W        W36380   6.598   0.338   3.872 -0.0963 -0.0316 -0.0897
20197W        W36381  17.628   4.434   1.863 -0.1096  0.1159 -0.3080
20198W        W36382   9.228  18.976   4.897 -0.0617 -0.1482  0.1191
20199W        W36383   7.445  14.508   5.827 -0.1341 -0.1566  0.1239
20200W        W36384   2.864   6.028  11.905 -0.2933 -0.0756  0.2953
20201W        W36385  16.786   2.572  10.797  0.3178 -0.1073  0.2047
20202W        W36386   5.080  17.601  13.142  0.2749 -0.1995  0.2230
20203W        W36387   9.864  16.497   3.007 -0.2198  0.0114 -0.0233
20204W        W36388  15.022  13.115   1.997 -0.2139 -0.1228 -0.2380
20205W        W36389  12.050   7.165   0.313  0.2814 -0.1477  0.0787
20206W        W36390   2.721  18.859   2.564 -0.0258  0.0524 -0.1311
20207W        W36391  12.981   8.633   3.870 -0.1736  0.1352 -0.1770
20208W        W36392  14.190  17.829   2.209  0.1630  0.3902 -0.1026
20209W        W36393   9.821   1.615   0.693 -0.1175  0.1390 -0.0514
20210W        W36394  11.529   8.678  11.111  0.0128  0.3280  0.5005
20211W        W36395  16.515   6.221  10.913 -0.1307 -0.0090  0.1541
20212W        W36396   5.655   6.067   1.029 -0.0191 -0.2690 -0.0835
20213W        W36397  11.324  16.590   2.575 -0.0332 -0.1788  0.0214
20214W        W36398  15.532   5.398   0.181 -0.2410  0.0572  0.1740
20215W        W36399   1.976   4.116  13.742  0.1687 -0.1653 -0.2016
20216W        W36400  15.666  18.675   4.453  0.1448  0.1106  0.1058
20217W        W36401   0.455  14.679   1.258  0.0487  0.0433 -0.3820
20218W        W36402   7.806  15.000   3.111  0.1029 -0.1225  0.0689
20219W        W36403   1.887  14.388   3.433  0.1217 -0.0644 -0.0245
20220W        W36404  18.729   7.824   0.590  0.1193  0.2550  0.0351
20221W        W36405  10.095   6.564  10.236  0.1314 -0.0258 -0.0671
20222W        W36406  10.511  16.901   1.234 -0.0349 -0.5638  0.0015
20223W        W36407  11.525  19.287   3.395  0.2441  0.2108  0.0271
20224W        W36408   3.189   8.719   2.059  0.3128 -0.1391  0.0011
20225W        W36409   3.337   6.663  12.256 -0.2495 -0.2014  0.1790
20226W        W36410  13.628  18.320  11.366  0.0106 -0.0421 -0.5317
20227W        W36411   3.680  15.511  13.407  0.1075  0.3529  0.0753
20228W        W36412   5.089  17.501  12.102  0.2085 -0.1136 -0.0043
20229W        W36413  15.686   2.938   2.439  0.0952 -0.0124 -0.0492
20230W        W36414  18.562  11.691  10.971 -0.0483  0.0515 -0.1185
20231W        W36415   2.404   5.617   0.909 -0.1009  0.1231  0.1781
20232W        W36416   3.707  10.271   3.133 -0.0247 -0.2023  0.2527
20233W        W36417  16.752  11.339   1.397 -0.2355  0.1408 -0.1528
20234W        W36418  19.313   9.977  10.504 -0.2569  0.5049  0.2008
20235W        W36419   9.075  12.456   0.433 -0.1510  0.3498  0.4049
20236W        W36420   9.799   6.069  11.414 -0.2807  0.1508 -0.1993
20237W        W36421   6.273   4.361  10.044  0.0330  0.0394  0.0467
20238W        W36422  12.395   2.584  10.649 -0.3166 -0.2646 -0.1102
20239W        W36423   5.225  10.461  10.953  0.0770 -0.1333 -0.0504
20240W        W36424  19.279  15.106   1.926  0.2061 -0.2492  0.0663
20241W        W36425   1.113  12.409   3.685 -0.1827  0.6286 -0.0210
20242W        W36426  13.170   1.867  14.639 -0.3025  0.2567 -0.1082
20243W        W36427   7.815   1.577   2.974  0.2916  0.0431 -0.0339
20244W        W36428  13.285   0.209  11.273  0.0078  0.0687 -0.0380
20245W        W36429  16.395  15.321  14.848  0.3305 -0.0612  0.0682
20246W        W36430   3.800   1.391   3.336  0.2706  0.2602  0.0156
20247W        W36431  14.371   7.171  14.567  0.1935  0.3077 -0.0820
20248W        W36432  10.875   9.346   3.434 -0.4484  0.3958 -0.2437
20249W        W36433  10.324   6.362   0.194  0.0736  0.1077 -0.4210
20250W        W36434  18.167   1.141   4.037 -0.0163 -0.2705 -0.1217
20251W        W36435   5.165  17.786   2.645  0.2073  0.1341  0.0372
20252W        W36436  14.122   7.864   0.029 -0.0707  0.0926 -0.0920
20253W        W36437   5.551   8.497   0.002  0.1323  0.2324 -0.0179
20254W        W36438   5.644  14.757   1.493  0.2048 -0.2747 -0.0453
20255W        W36439   6.160  14.272   0.790 -0.0952 -0.0145 -0.2268
20256W        W36440  12.150  15.224  13.571  0.0391 -0.0872 -0.1471
20257W        W36441  16.999   9.201  10.732  0.1852 -0.0108 -0.0560
20258W        W36442   3.954   8.906   2.369  0.1032  0.1297 -0.3501
20259W        W36443  10.842  15.765   4.616  0.0168  0.0526 -0.0539
20260W        W36444   9.799  17.335   0.055 -0.0509  0.0736 -0.0501
20261W        W36445   1.442   5.351   2.136  0.0169 -0.0451  0.0171
20262W        W36446  18.271  10.339  11.679  0.0990 -0.1846  0.1488
20263W        W36447   3.069   5.272   0.585  0.1097 -0.0005  0.1891
20264W        W36448   9.727   4.036  12.215 -0.2000 -0.1733 -0.0033
20265W        W36449   9.367   5.496  14.617 -0.6145 -0.1090 -0.0076
20266W        W36450   7.181   9.315   3.638  0.2250  0.4233 -0.0229
20267W        W36451   6.176  17.853   3.591 -0.0669  0.2355 -0.0564
20268W        W36452   9.803  10.136   1.425  0.1087  0.1533 -0.0561
20269W        W36453   2.103  18.225   4.801 -0.2286  0.1319  0.0486
20270W        W36454  13.722   3.488   4.607 -0.1836  0.1278 -0.3425
20271W        W36455  13.318   7.134  12.845  0.3110 -0.1655 -0.0254
20272W        W36456  10.036  16.645  14.250 -0.1825  0.1159  0.2478
20273W        W36457   4.418  14.515   3.677  0.0567 -0.1885  0.0617
20274W        W36458  12.140  11.962  13.482  0.3215  0.3022 -0.1187
20275W        W36459   2.600  16.710  11.160  0.0035 -0.2072 -0.0803
20276W        W36460  11.525   5.589   0.538 -0.0718  0.4091  0.0117
20277W        W36461  15.739   1.254  14.390 -0.1598 -0.0381 -0.2912
20278W        W36462  15.562   5.344  10.558  0.1114  0.2106 -0.2276
20279W        W36463   9.104  11.353  11.623  0.1286 -0.0893 -0.3315
20280W        W36464   2.470  11.697   0.329  0.0440 -0.1448 -0.3553
20281W        W36465   5.441  18.290  12.068 -0.2286  0.0614  0.0478
20282W        W36466  12.348  16.597   1.622  0.0778  0.1085 -0.1054
20283W        W36467  17.081   1.902   9.183 -0.0956  0.0668 -0.0136
20284W        W36468   8.742  17.405   3.974 -0.2852 -0.0914  0.1317
20285W        W36469   0.946   4.260   3.804  0.0459 -0.1580 -0.1605
20286W        W36470   4.392   4.316  14.471 -0.0407 -0.0815  0.1156
20287W        W36471  16.294   8.040   2.826  0.0060  0.0600  0.0575
20288W        W36472   1.434   6.860  12.690 -0.1684 -0.4267 -0.0856
20289W        W36473   4.985  15.082   4.263 -0.0668  0.2273  0.2143
20290W        W36474  16.850   1.659  12.361  0.0153 -0.1333  0.0398
20291W        W36475   5.256   1.932  10.867 -0.2283  0.0161 -0.2572
20292W        W36476   6.056   5.351   5.195  0.1129  0.1859 -0.0679
20293W        W36477  10.663   8.827  14.597 -0.0424 -0.2558 -0.1775
20294W        W36478  10.838  12.457   2.816 -0.3873  0.1774  0.3523
20295W        W36479   0.325  10.015  11.915 -0.1312  0.1289 -0.1771
20296W        W36480  13.428   3.986  12.009  0.2094 -0.0337 -0.4127
20297W        W36481  14.305   9.624   4.490 -0.1367 -0.0436 -0.2082
20298W        W36482   9.664  19.221   4.571 -0.2809 -0.3959 -0.0114
20299W        W36483   3.672   5.030   3.220  0.0984 -0.3238 -0.0347
20300W        W36484   4.495   6.707   2.550  0.0302  0.0801  0.0187
20301W        W36485  12.063   2.956   0.344  0.0772  0.0513  0.1413
20302W        W36486  15.982  16.206  10.006 -0.1064 -0.0397  0.0021
20303W        W36487  18.966   8.359   9.252  0.1560 -0.0232 -0.1284
20304W        W36488   5.281  17.434  13.686  0.0465  0.0007  0.0039
20305W        W36489   5.839  12.198  11.879  0.2876 -0.4782  0.0158
20306W        W36490   2.893   8.161   9.706 -0.2042 -0.2251  0.0388
20307W        W36491  16.993  10.989   3.806  0.3929  0.2745  0.4691
20308W        W36492  18.105  16.448  12.093 -0.3188  0.1897  0.0708
20309W        W36493  15.492  11.682  11.835 -0.1210 -0.0357  0.1101
20310W        W36494   1.224   2.999   2.609 -0.3036  0.0055 -0.0532
20311W        W36495  13.086  11.079   2.605 -0.1194  0.1426  0.2815
20312W        W36496  17.279  14.809  11.536  0.1930 -0.2410 -0.1107
20313W        W36497  11.440   6.340   1.966  0.3642 -0.0529  0.1417
20314W        W36498  12.963   5.782  14.186 -0.0431  0.5011  0.0199
20315W        W36499  15.921  15.655  11.883 -0.0145  0.2195  0.0256
20316W        W36500  17.789  11.401   2.723 -0.0816  0.0084  0.3272
20317W        W36501   8.831   6.193  14.886  0.1602  0.0012 -0.3536
20318W        W36502  15.758  16.581  13.192  0.1182 -0.1466 -0.1774
20319W        W36503  13.614  18.417  13.764  0.0650 -0.2247  0.0736
20320W        W36504   3.957   0.240  12.634  0.0340  0.0217 -0.6056
20321W        W36505  19.138   7.319   3.410  0.2863  0.3108  0.0682
20322W        W36506  18.263   8.851   9.818  0.1436 -0.2173 -0.1218
20323W        W36507   2.556   7.926   5.107 -0.0137  0.1398  0.0122
20324W        W36508   3.158   1.831   1.122  0.2136 -0.0123 -0.2078
20325W        W36509  10.973  15.321   3.391 -0.0362 -0.0308  0.2020
20326W        W36510   1.219   2.516   2.613 -0.1507 -0.0348 -0.1512
20327W        W36511  15.106   3.911  14.691 -0.3025 -0.3333 -0.4024
20328W        W36512  11.269   6.029   0.280  0.0607 -0.2938  0.0268
20329W        W36513  15.390  10.981   9.405  0.2351  0.1979  0.1952
20330W        W36514   1.253   2.051   2.488 -0.2442  0.2077  0.1167
20331W        W36515   7.339   7.671   2.760  0.1768  0.1342 -0.0273
20332W        W36516   4.032   0.875  13.446  0.1895 -0.1936  0.1073
20333W        W36517  13.949   7.132   1.540  0.2382  0.2549  0.0038
20334W        W36518  15.004   6.740  14.482  0.2055 -0.0629  0.0489
20335W        W36519  10.547  19.072  14.511 -0.0215  0.0037  0.0390
20336W        W36520   1.625  12.818   0.191  0.3096 -0.2128 -0.2500
20337W        W36521  12.492   3.983  10.718 -0.1741  0.2472 -0.2305
20338W        W36522   3.325   7.234   2.837  0.0158  0.1728 -0.1878
20339W        W36523   5.797  17.483  13.588 -0.0842  0.3813 -0.1549
20340W        W36524  19.247  11.042  14.059 -0.3060 -0.2378  0.0455
20341W        W36525  15.327  14.155   3.683  0.2609 -0.2455 -0.0182
20342W        W36526  17.032   0.551  13.378 -0.1847 -0.1883  0.0465
20343W        W36527   9.416  17.714   0.033 -0.1386  0.1756  0.1254
20344W        W36528  12.760  14.902   2.665  0.1469 -0.2399  0.1998
20345W        W36529  13.109   9.835  10.631 -0.1996 -0.0233  0.0259
20346W        W36530  17.620  15.529  12.239 -0.0114 -0.2864 -0.1274
20347W        W36531  10.529   0.714   3.151  0.0205 -0.1011  0.1265
20348W        W36532   2.864  10.644  10.291 -0.1154  0.0129  0.0269
20349W        W36533  17.687  14.390  12.770  0.2237  0.0931 -0.2320
20350W        W36534   4.708  12.339   9.335  0.4836  0.0861  0.0316
20351W        W36535   7.913   8.314   0.976 -0.1021  0.2474  0.3246
20352W        W36536   7.680   7.802   3.785  0.2288 -0.3863 -0.3330
20353W        W36537  10.111   2.096  12.101 -0.0374 -0.0133 -0.0070
20354W        W36538  11.990   8.005   1.295  0.0353  0.0734 -0.1237
20355W        W36539   1.849  10.032  12.304 -0.3583  0.2251 -0.1431
20356W        W36540   8.736   9.190  11.951 -0.1781 -0.0266  0.3267
20357W        W36541   3.438  15.381   2.961 -0.3786 -0.0763  0.0323
20358W        W36542  19.247  13.887  14.449  0.2067  0.0337  0.0015
20359W        W36543   3.537  16.169   0.466  0.3342  0.4451  0.1048
20360W        W36544   3.115   2.410  14.557  0.0957 -0.2427  0.1236
20361W        W36545   8.455  10.531   3.503 -0.0765 -0.1763 -0.3142
20362W        W36546   0.804  14.462  14.941 -0.2812  0.3018  0.2554
20363W        W36547   8.310   2.949   9.317 -0.1298  0.3695 -0.1254
20364W        W36548   4.503   5.887   2.134 -0.2294  0.2417 -0.0224
20365W        W36549  15.956   5.995   0.737 -0.1622 -0.0171  0.2166
20366W        W36550   1.619  12.038  14.807 -0.2536 -0.1490 -0.0128
20367W        W36551   7.330  10.945   3.039  0.1577 -0.0800 -0.0159
20368W        W36552  16.061   3.528  10.023 -0.1214 -0.1734 -0.3672
20369W        W36553   8.494  13.036  12.140 -0.0863 -0.0704  0.0201
20370W        W36554  13.764   4.947  11.851 -0.2704  0.1141 -0.1518
20371W        W36555  15.852   8.432   0.272 -0.1155  0.0552  0.3708
20372W        W36556  15.056  16.163  11.895  0.2165  0.1162 -0.0010
20373W        W36557  15.806   0.991   3.419 -0.0072  0.0006  0.1232
20374W        W36558   2.572  10.623   2.965  0.0373  0.3358 -0.0350
20375W        W36559   8.894   5.267   0.985 -0.1862  0.3275 -0.4949
20376W        W36560   0.682   4.262  10.838  0.0895 -0.1582 -0.0100
20377W        W36561   5.475  12.034  11.071  0.3149 -0.1207 -0.0764
20378W        W36562   7.345   6.314  10.225 -0.1394  0.0471 -0.4801
20379W        W36563  13.373   0.090  12.995  0.1403 -0.2559 -0.0069
20380W        W36564   9.262   1.160   0.938 -0.1679 -0.0624 -0.1034
20381W        W36565  11.105   7.118  14.786  0.4189  0.3387  0.1269
20382W        W36566   1.904   7.281   4.731  0.1786 -0.0635 -0.1542
20383W        W36567   3.391   6.868   1.026  0.0243 -0.2934 -0.4075
20384W        W36568   5.161  15.675  12.338  0.3049 -0.1215 -0.3935
20385W        W36569  15.161   6.821   4.023  0.2964  0.0944  0.0215
20386W        W36570   0.639   4.289  12.315  0.2802 -0.0084  0.3392
20387W        W36571   2.797  11.180   5.068 -0.0789  0.2816  0.0781
20388W        W36572   5.202  12.960  13.353 -0.0796  0.0614  0.2793
20389W        W36573  14.057  12.609   4.501 -0.1656  0.0761 -0.3077
20390W        W36574  12.301  16.948  10.720 -0.2672  0.0918 -0.0441
20391W        W36575  12.394   3.497   5.126  0.0476 -0.0185 -0.0999
20392W        W36576   7.128   3.968   2.695 -0.3254  0.1770 -0.1046
20393W        W36577   1.275  12.785  10.048  0.0057 -0.0297  0.0202
20394W        W36578  19.347  18.806   3.835  0.2007  0.1598 -0.0493
20395W        W36579  15.961  13.667   1.808  0.0448  0.0677 -0.0914
20396W        W36580   5.225  13.258  12.032 -0.1179  0.0813  0.1215
20397W        W36581   0.299  15.509  14.249 -0.1452 -0.0927 -0.1697
20398W        W36582   1.172   4.936  12.768  0.3261 -0.1624 -0.1767
20399W        W36583  11.267  17.064  12.341 -0.0498  0.0839  0.2527
20400W        W36584  13.797  10.230  11.619  0.0967  0.0631  0.1761
20401W        W36585   1.930  13.269   0.840 -0.2711  0.0882 -0.1383
20402W        W36586  19.166  11.940  11.277 -0.2182 -0.0708  0.0735
20403W        W36587  10.729   2.888  13.578  0.0354  0.1325 -0.0239
20404W        W36588  16.664  16.860  11.291 -0.2072 -0.0947  0.3110
20405W        W36589  14.087   6.996   2.773  0.2614  0.2181 -0.1018
20406W        W36590  11.432  16.727   5.678  0.1921  0.3264  0.1279
20407W        W36591  12.273  17.975   2.258  0.0336 -0.1599  0.1319
20408W        W36592  16.673  14.182   2.246  0.3024 -0.0522 -0.2654
20409W        W36593   8.425  18.350   0.806 -0.1603  0.3468 -0.1484
20410W        W36594  17.531   4.109  14.558  0.0402  0.1803  0.2612
20411W        W36595  12.999  17.773   1.501  0.2168 -0.3525 -0.1300
20412W        W36596   1.598  11.624   3.316 -0.2444 -0.1814 -0.1766
20413W        W36597   7.900  13.600   0.975  0.0286  0.1282  0.0327
20414W        W36598  14.394  14.325  12.805 -0.3272 -0.2025 -0.1993
20415W        W36599   3.758  17.167   4.371  0.1784  0.5319 -0.0420
20416W        W36600  17.684  11.001   1.837  0.0921  0.0644  0.0956
20417W        W36601  12.312   2.883  14.300  0.3191 -0.1168  0.1448
20418W        W36602  16.712   4.869   0.849  0.2758 -0.0275  0.1317
20419W        W36603   7.166   3.895   2.197 -0.0495 -0.0381 -0.3427
20420W        W36604  14.500   6.905   2.326 -0.1077 -0.2588 -0.1134
20421W        W36605   7.159   2.082  13.487  0.1548 -0.1009  0.2180
20422W        W36606   9.571   8.325  10.469 -0.0459  0.0383 -0.1412
20423W        W36607  17.120  15.447  11.434 -0.0748 -0.1800  0.0041
20424W        W36608  16.743   0.501  10.293 -0.4159 -0.2761  0.0635
20425W        W36609   6.271   2.496   3.747  0.1499 -0.0234 -0.1385
20426W        W36610  16.611   7.350   2.757  0.0266  0.4154  0.0506
20427W        W36611   7.673   7.259  13.590  0.2843 -0.2108  0.3465
20428W        W36612  14.768  11.137  12.227  0.0577 -0.2986  0.0068
20429W        W36613   6.323   6.002   0.161 -0.0174 -0.1285 -0.3730
20430W        W36614   1.993   8.350  10.028 -0.0872  0.0870  0.1967
20431W        W36615  12.828   7.664   1.578  0.2202 -0.1035 -0.0160
20432W        W36616   6.997   7.941   4.507 -0.1597 -0.1931  0.1471
20433W        W36617  17.605   4.753  11.360 -0.2097 -0.1230 -0.0187
20434W        W36618   9.226  11.539   3.870  0.2474 -0.0933 -0.2345
20435W        W36619   2.477   8.553   2.646  0.3708  0.0405 -0.0310
20436W        W36620   2.623  18.654  12.545 -0.4628 -0.2760  0.0253
20437W        W36621  17.698   4.881   4.886  0.0235 -0.1295  0.0640
20438W        W36622  15.114  17.452   2.843 -0.1143  0.1025 -0.1207
20439W        W36623  16.240  18.436  11.602 -0.1013 -0.1702  0.2564
20440W        W36624   3.449  13.457   2.517  0.3061 -0.3061 -0.0055
20441W        W36625   1.172  15.903  11.858 -0.1650  0.0421  0.0738
20442W        W36626   6.381   4.395  13.985 -0.0404  0.0799 -0.3030
20443W        W36627  11.494  11.490  14.300 -0.0111 -0.0032  0.1385
20444W        W36628   9.719  10.401   0.496  0.4571  0.0948 -0.2092
20445W        W36629  15.616   4.758  12.278  0.1942  0.1927 -0.0333
20446W        W36630   9.199   2.679   0.214 -0.2798 -0.1876  0.3422
20447W        W36631   1.344   7.131  10.457 -0.0043  0.0233 -0.2996
20448W        W36632  18.709   7.011  14.954  0.0184  0.2278  0.0059
20449W        W36633   6.449   3.936  12.014 -0.0579 -0.1200  0.1085
20450W        W36634  18.911  16.813   2.490  0.3782  0.0021  0.3335
20451W        W36635  17.308   2.447   3.617 -0.1263 -0.3423  0.1189
20452W        W36636   8.219   2.934  14.256  0.0295  0.1935  0.0976
20453W        W36637   8.004   0.591  10.612  0.0879  0.0634 -0.0969
20454W        W36638   0.871  11.958  13.439  0.1859  0.0032 -0.0401
20455W        W36639  18.611   0.233  11.813  0.0075 -0.0273  0.0418
20456W        W36640   8.110   6.567   3.070  0.0774 -0.0034 -0.3981
20457W        W36641  10.349  11.698   2.104 -0.3534 -0.0170  0.1776
20458W        W36642   4.097  17.628   0.649  0.0509 -0.1164  0.2683
20459W        W36643   2.526   1.264  13.904  0.1042  0.1344  0.1952
20460W        W36644  17.411   1.790  11.407 -0.1257 -0.4829 -0.4917
20461W        W36645   5.972  10.621   3.614 -0.0768 -0.0780 -0.1269
20462W        W36646  17.871   2.637   5.023 -0.0645 -0.1021 -0.2585
20463W        W36647  11.030   5.181  14.207 -0.0586 -0.4309  0.0830
20464W        W36648   3.131  18.724  13.836  0.1383  0.0027  0.0495
20465W        W36649   6.089  16.178   5.094  0.0389 -0.1617 -0.1110
20466W        W36650  16.106  13.944   5.608 -0.1948  0.2149 -0.0566
20467W        W36651  10.585   5.295   3.779 -0.0887 -0.0171  0.1437
20468W        W36652  10.001   2.893   4.227  0.0426 -0.0578 -0.0097
20469W        W36653  10.760   9.527  10.892 -0.0716 -0.1565 -0.3116
20470W        W36654   6.538   1.980  14.559 -0.2663  0.1671 -0.2234
20471W        W36655   7.012   4.483   3.593 -0.4215 -0.1716  0.2664
20472W        W36656   3.053  15.301   2.425  0.0024 -0.1932 -0.0476
20473W        W36657   8.719  18.671   1.605  0.1591  0.1481 -0.0301
20474W        W36658   3.648  10.051   0.339 -0.2597  0.3350  0.1310
20475W        W36659   6.915   1.626   3.978 -0.0908 -0.3020 -0.1331
20476W        W36660   6.460  18.008  12.071 -0.0695 -0.1101  0.2225
20477W        W36661  11.590   8.128  13.344  0.2663  0.1870  0.0739
20478W        W36662  14.365   7.606   1.439 -0.2283  0.1541 -0.1529
20479W        W36663   4.174  12.379   3.699 -0.1709  0.1225  0.0160
20480W        W36664   8.873  12.766   2.744  0.2722 -0.2103 -0.0425
20481W        W36665  17.230   7.393  11.378  0.0495  0.0967 -0.2097
20482W        W36666   4.046  12.643  13.834  0.3677 -0.0127 -0.3014
20483W        W36667   4.499   9.090   4.655  0.1142 -0.1301 -0.1724
20484W        W36668   6.927   5.485  13.993 -0.1831  0.1618 -0.1869
20485W        W36669  12.722  12.664  14.884  0.4270  0.0661  0.1576
20486W        W36670   2.235   7.141  13.645 -0.2282  0.1316  0.0281
20487W        W36671  18.841  17.195   0.095  0.3284  0.1375  0.0236
20488W        W36672   8.013  18.073   4.066  0.1812  0.1093  0.0332
20489W        W36673  10.368  16.405   1.301  0.0077  0.3810 -0.1771
20490W        W36674  12.284  14.510   4.215  0.1981  0.0152 -0.3245
20491W        W36675   0.228   7.061   0.223  0.2465  0.0735 -0.0765
20492W        W36676   9.092   8.274  11.871 -0.0149  0.2734 -0.1058
20493W        W36677  10.906   3.720   0.946  0.4230  0.0557  0.0168
20494W        W36678   8.578  12.980  12.909 -0.3012 -0.2539 -0.0324
20495W        W36679  17.530  14.852  11.109 -0.1276 -0.0478 -0.3462
20496W        W36680  11.704   9.742  13.713  0.0038 -0.0598 -0.3008
20497W        W36681  13.551  11.388   4.532 -0.1589 -0.1022 -0.2330
20498W        W36682  12.896  14.291  14.982  0.2524  0.2808  0.0955
20499W        W36683  12.747   7.111  12.509  0.1479 -0.1780  0.1596
20500W        W36684  18.491   4.001   3.380  0.0984  0.0391  0.0564
20501W        W36685  12.170   9.836  10.475  0.2123 -0.3255  0.3282
20502W        W36686   4.437  13.886   3.430 -0.3596  0.4063 -0.0085
20503W        W36687  16.241  15.105   0.973 -0.0887  0.1974 -0.0407
20504W        W36688   2.155  13.250   1.559 -0.2759 -0.1941 -0.0204
20505W        W36689  14.126   9.746  12.320 -0.2383  0.0345  0.3238
20506W        W36690  12.337   6.652   0.671  0.1719 -0.0298 -0.0383
20507W        W36691  12.057   4.062  10.480 -0.2823  0.1425  0.3126
20508W        W36692   2.556   9.614   1.046  0.2836 -0.1966 -0.1624
20509W        W36693   5.951   0.020  12.618 -0.1840  0.0269  0.1355
20510W        W36694  11.847  16.113  14.832 -0.0607  0.2976 -0.3750
20511W        W36695   6.216   5.973  11.679 -0.2146  0.5474 -0.0359
20512W        W36696   6.471   8.221  10.301  0.1366  0.1767  0.6851
20513W        W36697  15.976  11.381  13.624 -0.1239 -0.0148 -0.2122
20514W        W36698   8.505   4.928   1.802 -0.2828 -0.0664  0.2458
20515W        W36699  10.613  18.485   2.710  0.0978 -0.1817 -0.2274
20516W        W36700  13.872  16.310   0.923  0.0385  0.1108 -0.3325
20517W        W36701   5.375   7.573  14.279 -0.4542  0.1694  0.3420
20518W        W36702   4.487  14.370  11.338 -0.3702  0.0663  0.2624
20519W        W36703  18.255   2.593  11.879  0.0621 -0.0034  0.2370
20520W        W36704  10.668   4.932  14.003  0.0206  0.1832 -0.3719
20521W        W36705   2.300   2.984   2.809  0.0516 -0.1910 -0.2031
20522W        W36706  14.723  14.376  12.389  0.1415  0.3129 -0.2880
20523W        W36707   2.099  12.121   1.594  0.2384  0.1576  0.0177
20524W        W36708  11.192   7.011   1.358 -0.2758 -0.1542 -0.0006
20525W        W36709  17.811  17.551   4.050 -0.1480 -0.2053  0.2343
20526W        W36710   5.521   1.750   2.082  0.0851 -0.2845  0.0606
20527W        W36711   9.622   0.306   3.068 -0.1293  0.0624  0.0808
20528W        W36712  17.833   0.740   3.872 -0.1642  0.0739 -0.2005
20529W        W36713  10.556   6.055   2.899 -0.0497 -0.2286 -0.1175
20530W        W36714   2.614  14.886  13.433  0.1766 -0.2512  0.0793
20531W        W36715   3.576  16.899  13.835  0.0134  0.1541 -0.1166
20532W        W36716   3.946   8.771  10.510  0.0417  0.0442 -0.0345
20533W        W36717  12.217  17.198  14.712  0.1953 -0.2271 -0.3750
20534W        W36718  14.308   1.777   4.684 -0.1245  0.1362  0.1782
20535W        W36719   4.820   7.748   3.721  0.4245  0.1143 -0.4623
20536W        W36720   3.378   7.869   4.116 -0.2577  0.0131  0.2190
20537W        W36721   1.136   3.587  12.745 -0.2977  0.1224  0.0407
20538W        W36722   9.041  11.459   4.382 -0.3823  0.1947 -0.2363
20539W        W36723  16.404   4.447   2.799  0.3325  0.0892  0.1749
20540W        W36724  10.796   4.758   0.991 -0.3327  0.1553 -0.4356
20541W        W36725   4.968  16.605   0.075  0.0754 -0.1181 -0.1961
20542W        W36726  12.000   5.948  10.256  0.0179 -0.0173 -0.1539
20543W        W36727  10.813   1.118  13.977  0.0071  0.0685  0.0717
20544W        W36728  17.792   9.057   2.794 -0.2290  0.2163 -0.5155
20545W        W36729  16.137   2.417   0.841 -0.4175  0.0921  0.0465
20546W        W36730   1.726  17.515  12.669 -0.2948 -0.4716  0.0672
20547W        W36731   8.900  16.520   1.740  0.0035  0.1187 -0.0522
20548W        W36732   3.045  18.865   1.865 -0.4606 -0.0776 -0.0918
20549W        W36733   5.068   8.748   4.574  0.1814 -0.0922  0.0135
20550W        W36734   3.634   2.992   3.245  0.3176 -0.1774  0.0013
20551W        W36735   7.695  11.617   5.111  0.1364 -0.1777  0.2065
20552W        W36736  18.570   6.095  13.815  0.2009  0.1203 -0.0305
20553W        W36737   0.772   6.163  14.631 -0.3133 -0.2269  0.2539
20554W        W36738  13.765   5.231   3.234  0.0227 -0.1764  0.2596
20555W        W36739   5.702  18.760  13.382  0.0299  0.2253 -0.0461
20556W        W36740   6.567   3.804   4.673  0.1721  0.0826  0.3929
20557W        W36741  14.861  11.889  11.046  0.0876 -0.1426 -0.0408
20558W        W36742  19.378  12.066   1.690 -0.3365 -0.1531  0.0925
20559W        W36743   0.357  10.918  10.382 -0.1766 -0.3293  0.0748
20560W        W36744  18.063  16.881   0.944 -0.0210 -0.1057 -0.4954
20561W        W36745   2.751  15.613  12.031  0.1928 -0.2263  0.1149
20562W        W36746   2.277   5.789   9.550  0.1976  0.0628 -0.1251
20563W        W36747  12.433  17.852  13.433  0.2962 -0.4542 -0.2402
20564W        W36748  15.803   9.216  11.041 -0.1324 -0.0642  0.0618
20565W        W36749   9.162  16.778  13.442 -0.1631 -0.3514  0.1773
20566W        W36750  17.861   9.855   1.832  0.0380 -0.2971  0.2829
20567W        W36751  11.435   2.501   0.967 -0.0519  0.1615  0.3425
20568W        W36752   4.239  11.478   5.047  0.0662 -0.2594 -0.0027
20569W        W36753  19.181   4.056   1.759 -0.0336  0.3616  0.0887
20570W        W36754   0.883  12.606   0.001 -0.1509  0.1273 -0.3057
20571W        W36755  12.468   3.318  13.790  0.2863  0.1693 -0.1503
20572W        W36756  18.727   6.595   2.339 -0.0347  0.0395 -0.1225
20573W        W36757   6.906  18.997   0.489  0.1451  0.1873  0.1574
20574W        W36758  11.118   1.067   3.168  0.0291  0.0205  0.2488
20575W        W36759   8.012  12.035  14.308  0.0317 -0.2750  0.1241
20576W        W36760  18.606   3.469   9.322 -0.0665  0.2067 -0.1542
20577W        W36761  16.187   2.826   2.596 -0.0963 -0.2245  0.0877
20578W        W36762  17.642  14.245  14.350 -0.0434 -0.1965 -0.0279
20579W        W36763  14.181  11.833   1.749  0.0861  0.0513  0.2881
20580W        W36764  16.834  13.982  12.884  0.1629  0.0834 -0.0473
20581W        W36765   5.825   5.364  12.543 -0.0648  0.2513 -0.0924
20582W        W36766   5.675  15.256  10.767  0.0555 -0.1302  0.1092
20583W        W36767  18.432  12.641  11.527  0.0387  0.0178  0.0072
20584W        W36768   3.909  11.459   4.654  0.3103 -0.2301  0.3476
20585W        W36769   2.139  16.090   1.511 -0.0380  0.1171  0.1707
20586W        W36770   9.530  18.619   0.329 -0.1769  0.0908  0.0611
20587W        W36771   6.367   0.987  14.525 -0.1896  0.2423  0.1026
20588W        W36772  19.372   4.494   4.858 -0.0467  0.1418 -0.2468
20589W        W36773  11.830   8.565  12.262 -0.3799  0.0473 -0.0811
20590W        W36774  19.072   8.662  14.465 -0.0373 -0.1396 -0.3705
20591W        W36775   3.789   1.739   0.653  0.0675  0.2925  0.1105
20592W        W36776   7.509   5.449  12.939 -0.0164  0.0429  0.2221
20593W        W36777  15.890  11.784  14.978  0.0814 -0.0524 -0.0905
20594W        W36778  18.354  14.665  14.501  0.2272  0.4355  0.0315
20595W        W36779   1.952   3.258   2.606  0.2070  0.0203 -0.0495
20596W        W36780   7.196  14.653  10.902 -0.1911 -0.1218 -0.2904
20597W        W36781  13.370  11.994   3.543  0.1983 -0.2808  0.3298
20598W        W36782  18.354   1.588   0.162 -0.1014  0.0492 -0.2489
20599W        W36783  16.623   3.248   3.703 -0.0805  0.4937  0.3715
20600W        W36784  10.149  11.855  13.804 -0.0739 -0.0194  0.1836
20601W        W36785  15.460  17.468  12.761 -0.1719  0.3595  0.5291
20602W        W36786  17.495  11.416  11.900  0.1305 -0.3095 -0.3616
20603W        W36787   9.256   3.636  13.327  0.1903  0.0798 -0.1084
20604W        W36788   1.818   7.446  12.797  0.1977  0.1246 -0.2814
20605W        W36789  13.469   9.265   5.518 -0.2138  0.0277 -0.3018
20606W        W36790   4.593  11.355  13.958 -0.0426 -0.1413  0.0404
20607W        W36791  15.158   7.412  11.021  0.1268 -0.1676  0.0174
20608W        W36792   6.871  14.540  10.446  0.1304  0.2235 -0.0093
20609W        W36793   4.023  16.755   4.073  0.0061  0.1927  0.0813
20610W        W36794  12.278   4.319   4.724 -0.0850  0.0548 -0.1552
20611W        W36795  16.755   0.314  14.448 -0.0449  0.1970 -0.0841
20612W        W36796  16.461   0.516   0.689  0.2152 -0.1455 -0.2693
20613W        W36797   4.044   9.331   4.649 -0.2070  0.0648 -0.3064
20614W        W36798  15.639  13.295  12.912  0.2599 -0.0364 -0.0548
20615W        W36799   4.800   2.793   2.487  0.0876  0.0062 -0.0119
20616W        W36800  17.883  13.284  13.437  0.1973 -0.1695 -0.0783
20617W        W36801   4.027   8.154   0.551 -0.0389 -0.0547 -0.1592
20618W        W36802   3.038  11.865  13.559 -0.1487 -0.1523 -0.0212
20619W        W36803   5.994   7.885  14.935  0.1105 -0.1282  0.1132
20620W        W36804   6.654  18.794   1.729 -0.1940 -0.1205 -0.2480
20621W        W36805   9.979   4.777   9.992  0.2140 -0.0879  0.0587
20622W        W36806  12.210   9.248  12.913  0.2706 -0.1702 -0.0553
20623W        W36807  12.053   2.434   0.101 -0.2375  0.2806  0.1189
20624W        W36808   8.004   9.426   4.057 -0.1273  0.3368  0.1841
20625W        W36809  19.036   4.315   1.021 -0.0021 -0.1087 -0.2273
20626W        W36810  14.541  15.776   4.177 -0.1744 -0.0908  0.0984
20627W        W36811  12.827   8.069  10.556  0.1265 -0.0755 -0.0262
20628W        W36812  12.693  18.414   2.169  0.0918 -0.2198 -0.1612
20629W        W36813  15.142  14.137  11.168  0.1110 -0.2334  0.0947
20630W        W36814   5.416   6.098   9.767 -0.2744 -0.0308  0.0454
20631W        W36815   5.607   2.938   3.671  0.2786 -0.1543 -0.0815
20632W        W36816  15.531  16.969   2.727 -0.0264 -0.1506 -0.2632
20633W        W36817   2.937   4.509  13.374 -0.2407  0.0280  0.1098
20634W        W36818  15.390  14.104   1.047 -0.1253 -0.0640  0.1227
20635W        W36819   8.970  17.902  11.564  0.0935 -0.5239 -0.0317
20636W        W36820  16.692  16.479  11.912 -0.1636  0.3222  0.0133
20637W        W36821  13.016  11.552   5.331  0.1246 -0.1012  0.0791
20638W        W36822  16.038   7.046   2.760 -0.0316  0.4636 -0.1452
20639W        W36823  13.976   0.565  11.517  0.2001  0.5601  0.1060
20640W        W36824  12.104  13.895  11.783 -0.0273 -0.2399 -0.1276
20641W        W36825   7.442   8.907  11.210 -0.2898 -0.1311 -0.0140
20642W        W36826   0.144   7.711  12.182 -0.0808 -0.0322  0.2460
20643W        W36827  10.808  15.709  13.529  0.2029  0.0800 -0.0776
20644W        W36828   3.025  16.628  12.179  0.2384  0.3803 -0.0692
20645W        W36829  18.424   4.426   2.225 -0.1497  0.2047 -0.4021
20646W        W36830   7.800  13.898  14.022 -0.3466  0.1225  0.2117
20647W        W36831  17.001  12.462  14.003 -0.3154  0.1121  0.1042
20648W        W36832  13.816   4.332  12.176  0.3547 -0.0322  0.3822
20649W        W36833   8.563  12.544   2.281  0.1014  0.1684 -0.1155
20650W        W36834   6.806   9.357   1.081  0.0895 -0.0338 -0.0073
20651W        W36835   4.173  16.673   1.111  0.1760  0.2357 -0.2104
20652W        W36836  15.520  14.626  12.646 -0.0795  0.0387 -0.0079
20653W        W36837   3.677   2.881   4.913 -0.2096  0.1523  0.1060
20654W        W36838  16.114   4.769  12.275  0.0162  0.0676 -0.1529
20655W        W36839  18.483   1.433   4.981 -0.0267 -0.1866 -0.1763
20656W        W36840   7.621   3.372   0.212 -0.0421  0.0531 -0.1462
20657W        W36841  18.888   1.345   4.715  0.2505 -0.1984 -0.1876
20658W        W36842  13.674   2.021   0.360 -0.2150  0.4797  0.0959
20659W        W36843  17.557   4.019   3.887  0.0671  0.0468  0.0943
20660W        W36844  10.340  16.094  10.599  0.0956  0.0448 -0.1816
20661W        W36845   5.227   8.756  13.443  0.1313 -0.0887  0.2038
20662W        W36846  14.534   3.201   4.969  0.1856 -0.0049 -0.1885
20663W        W36847   2.269   2.686  11.380 -0.1172  0.2011  0.0113
20664W        W36848  12.101   8.261   1.667 -0.0303 -0.1776  0.0235
20665W        W36849  14.054  14.002   6.101  0.1362 -0.2594  0.2165
20666W        W36850  13.703   9.786  13.293 -0.1858  0.1375  0.0651
20667W        W36851  13.869   8.050  13.189 -0.0842 -0.0945  0.1675
20668W        W36852  12.175  11.007  14.578 -0.1715 -0.1902  0.0110
20669W        W36853   1.838   3.447  13.961  0.1735 -0.1777  0.3104
20670W        W36854  19.339   5.227  10.954  0.2266 -0.2119 -0.0123
20671W        W36855  13.478   5.975  14.290 -0.0399  0.2253 -0.2738
20672W        W36856  12.446  17.555  14.450  0.1416  0.0790  0.2077
20673W        W36857  10.876   1.538  12.624 -0.0959  0.1958 -0.0817
20674W        W36858  10.181  13.565   4.627  0.2786 -0.0066  0.0745
20675W        W36859  14.294  12.388   5.568 -0.1968 -0.2026 -0.0870
20676W        W36860  18.038  19.026   2.700  0.2916  0.1055 -0.3617
20677W        W36861  18.216   9.110   3.157  0.1597  0.1600 -0.0291
20678W        W36862  12.701   5.506   2.964 -0.0787  0.0278 -0.0548
20679W        W36863   1.926  10.045   2.944 -0.0191 -0.0266 -0.3558
20680W        W36864  10.133  15.625  12.472 -0.0187  0.1094  0.0092
20681W        W36865   7.824  12.980   1.518  0.0243  0.0253  0.0410
20682W        W36866   6.709   8.071   1.990  0.0563  0.1646 -0.0973
20683W        W36867   7.648   9.367   4.911 -0.3517  0.1229 -0.0822
20684W        W36868   3.762  13.027  12.960 -0.2049  0.1638 -0.2620
20685W        W36869   5.016   5.612   0.383  0.0112  0.2564 -0.0080
20686W        W36870   0.444  15.807   1.969  0.2482 -0.3359  0.1306
20687W        W36871   0.959  16.787   2.378  0.0295  0.1963 -0.3461
20688W        W36872   6.340   1.209  14.971  0.5067 -0.0715 -0.0676
20689W        W36873  16.741  19.007  13.059  0.1169 -0.0268 -0.1017
20690W        W36874   7.987   8.402  10.903 -0.0959 -0.2557  0.3881
20691W        W36875   7.300   9.979   3.157  0.0477  0.3053  0.2744
20692W        W36876   2.461  18.562   9.904  0.0053  0.0408  0.0810
20693W        W36877  12.060  10.531  11.136  0.2303  0.2659  0.1829
20694W        W36878   4.277   8.080   4.545  0.0897  0.0172  0.1649
20695W        W36879   7.525  10.169   3.605 -0.1016  0.1100  0.5077
20696W        W36880  14.311   8.128  12.958  0.0323  0.1442  0.2178
20697W        W36881   6.836  10.712   3.199  0.0280  0.0694 -0.0626
20698W        W36882  19.244   1.581   2.438 -0.2087  0.0777  0.1749
20699W        W36883   9.763   1.774  13.151 -0.0213  0.1090 -0.0046
20700W        W36884   8.202  11.365   2.633 -0.0684 -0.0988  0.0714
20701W        W36885   6.148  14.124  12.116  0.2633 -0.2307 -0.2370
20702W        W36886  17.626  12.907   1.696 -0.0119 -0.2531  0.0894
20703W        W36887   5.070  18.337   2.901  0.0775 -0.2544  0.0748
20704W        W36888   1.339   3.622   3.383 -0.0578 -0.1538 -0.1953
20705W        W36889  15.582   6.141  12.673 -0.1076 -0.1880 -0.0767
20706W        W36890   3.820   2.836   9.881 -0.3796  0.2131 -0.0494
20707W        W36891  18.917   2.171  14.463 -0.0959  0.4516  0.0214
20708W        W36892  13.333   8.333   4.162  0.0188 -0.0726  0.2597
20709W        W36893   2.561  14.995   3.389 -0.1138  0.1208  0.0537
20710W        W36894   4.649  13.291  14.772  0.0234  0.1519  0.1012
20711W        W36895   3.335   8.768   1.557  0.0649  0.1393  0.3538
20712W        W36896  10.806   6.636  13.137  0.0328  0.3769  0.2212
20713W        W36897   3.030   1.476  12.626 -0.1485  0.1354  0.2444
20714W        W36898  17.077   0.946  11.798 -0.2803 -0.0564  0.0573
20715W        W36899  10.065   1.999   0.137 -0.2983 -0.2114 -0.2463
20716W        W36900   0.802  16.808   1.883 -0.2513  0.2306 -0.1930
20717W        W36901   7.733   9.977   2.447 -0.3822 -0.1044  0.2631
20718W        W36902  12.675  18.434  14.159  0.3104  0.2166  0.0156
20719W        W36903   1.094   4.939   2.846 -0.1928 -0.0493 -0.2311
20720W        W36904  12.345  13.362   4.622 -0.1620 -0.1580 -0.0861
20721W        W36905  10.134   3.023   3.746  0.4634 -0.1029 -0.2189
20722W        W36906  13.339   2.249   0.645  0.0403 -0.2045  0.2103
20723W        W36907  16.038   9.639   4.209  0.0900  0.3050 -0.2967
20724W        W36908  14.066   6.049  11.128  0.0981  0.0540 -0.1229
20725W        W36909   0.976   6.890  10.836 -0.0580  0.2303  0.0288
20726W        W36910   3.158  13.373  14.431 -0.1411  0.1994 -0.3059
20727W        W36911  13.540   0.789   2.311 -0.0779 -0.2283 -0.0278
20728W        W36912   7.785   4.165  11.142 -0.0811 -0.0913  0.2280
20729W        W36913   2.458   0.270   0.728 -0.1715  0.0858  0.2561
20730W        W36914   4.613  16.446   3.354 -0.2087  0.3671  0.0261
20731W        W36915  15.013  13.807   3.339 -0.1634 -0.0720  0.2875
20732W        W36916  18.692   3.061   0.055  0.1714 -0.2089  0.1470
20733W        W36917   8.994   8.678  13.998 -0.0377 -0.0989  0.4103
20734W        W36918   9.054  15.494  13.552  0.0279  0.0485 -0.0945
20735W        W36919  15.228  16.418   3.892 -0.0132 -0.0353 -0.2056
20736W        W36920  18.043   7.918  13.548 -0.1995  0.1350 -0.0006
20737W        W36921   8.678  10.577   0.951  0.2013  0.4345  0.1282
20738W        W36922  16.767  12.017   2.737  0.3411 -0.2160 -0.2046
20739W        W36923  19.255   5.784  13.201 -0.1499 -0.0408 -0.1058
20740W        W36924   9.935   6.473   2.894 -0.2164  0.2909 -0.0602
20741W        W36925  18.886   3.152   3.336 -0.2080 -0.0707 -0.0546
20742W        W36926   6.216   8.325  10.734 -0.3767  0.1510  0.1061
20743W        W36927   1.091   5.133   3.708 -0.2291 -0.3018 -0.0177
20744W        W36928   3.469  17.882   0.831 -0.2545  0.1459 -0.0532
20745W        W36929  17.703   6.644  12.280 -0.0637 -0.0374 -0.4326
20746W        W36930   5.256   0.810   3.971  0.0616  0.4487 -0.0143
20747W        W36931  10.694  12.245  14.964 -0.0704  0.0060 -0.4165
20748W        W36932  13.579   8.417  14.493 -0.0068 -0.2437 -0.2034
20749W        W36933  17.742  10.673  13.451  0.1627  0.2386 -0.1633
20750W        W36934  10.166  11.087   3.307 -0.1151  0.4975 -0.3530
20751W        W36935   8.468   9.728   3.828  0.0351  0.1746  0.0334
20752W        W36936   4.018  15.995   4.706  0.0208  0.1981 -0.1330
20753W        W36937  14.058   8.351  14.815  0.1254 -0.0855 -0.0385
20754W        W36938   1.986   4.010   0.469 -0.1049  0.0674  0.0881
20755W        W36939   4.584  16.863  14.889  0.1282 -0.1472 -0.1393
20756W        W36940  16.763   7.385   4.036 -0.3364  0.1346  0.0944
20757W        W36941   4.943   4.312  14.103 -0.0840 -0.1272  0.0465
20758W        W36942   6.936   2.416  14.626  0.2335 -0.2215 -0.0032
20759W        W36943  13.930   9.128  10.618  0.2267 -0.2107  0.0949
20760W        W36944  14.035  10.475  10.787 -0.2460 -0.0830 -0.0481
20761W        W36945  18.395  11.549   0.866 -0.4549 -0.2853  0.1336
20762W        W36946   4.276   3.326  12.148 -0.0251 -0.0903  0.0364
20763W        W36947   4.727   2.814   4.662 -0.0489 -0.1388 -0.3441
20764W        W36948  17.924   3.557  14.283 -0.0659  0.0912 -0.0497
20765W        W36949   2.653   8.467   9.386 -0.2652  0.0415 -0.0741
20766W        W36950  14.956  13.295   5.243  0.1148 -0.1333 -0.1070
20767W        W36951   4.013   7.339  11.195 -0.1756  0.0430  0.2492
20768W        W36952   8.944  17.343  14.785 -0.0619  0.1729 -0.4256
20769W        W36953   6.471  12.932  11.461 -0.2587  0.0561  0.0910
20770W        W36954  11.016  13.234  13.664  0.1631 -0.0016 -0.3415
20771W        W36955  13.499  13.426   2.690  0.2211 -0.1272  0.1259
20772W        W36956   0.208   6.856   3.402  0.2334 -0.1782  0.3033
20773W        W36957   2.170   9.781  11.994 -0.1224 -0.2026 -0.0382
20774W        W36958  13.947   4.093  10.623  0.0164 -0.0438 -0.1576
20775W        W36959  15.442   0.446  14.013  0.0778  0.1626  0.1864
20776W        W36960   8.938  16.026   2.584  0.1698  0.0079  0.1446
20777W        W36961  12.399   2.976  13.330  0.0806 -0.0400 -0.2589
20778W        W36962  13.332   7.212  14.867 -0.2525  0.1374 -0.2960
20779W        W36963  13.252  13.653   0.651  0.2836 -0.0353 -0.2916
20780W        W36964   3.716  16.107   1.597 -0.0540 -0.1581  0.2757
20781W        W36965   3.479   7.474  14.098 -0.0515 -0.1141  0.0583
20782W        W36966   6.905  12.114   2.805 -0.3472  0.0889  0.0620
20783W        W36967  10.064   2.833   2.015  0.1747  0.1503  0.2069
20784W        W36968   2.603   6.942  13.946 -0.1693 -0.1657 -0.0233
20785W        W36969   6.312  10.142  13.508 -0.0369 -0.1543  0.0954
20786W        W36970   0.964   7.548  14.162  0.3680 -0.3051 -0.1740
20787W        W36971   7.336   5.735  11.197  0.1857  0.1139  0.0677
20788W        W36972   6.326  12.975  10.998 -0.2957  0.1852  0.1069
20789W        W36973   1.640   5.734  10.429  0.0449  0.3619  0.2577
20790W        W36974   7.278  17.381   1.282  0.1960 -0.0640  0.1164
20791W        W36975   8.423   6.658  14.172  0.0497 -0.0663  0.1251
20792W        W36976   7.440   5.554   2.363  0.1847  0.2504 -0.1551
20793W        W36977   0.805   3.165  11.340 -0.3732  0.0944  0.2416
20794W        W36978   9.160  10.791  11.895 -0.0766 -0.1170  0.0200
20795W        W36979   1.652   9.858  10.626  0.0268 -0.0380 -0.1555
20796W        W36980   5.807   6.195  11.495  0.0268  0.0013  0.2752
20797W        W36981  15.469  15.879  14.479  0.2519  0.0769  0.0679
20798W        W36982  16.568  18.331   4.499  0.1838 -0.4086 -0.0893
20799W        W36983  13.262   7.184  10.880  0.5128  0.3623  0.1836
20800W        W36984   7.454  10.366   2.427  0.1514 -0.3613 -0.2073
20801W        W36985   7.780   6.911  10.837  0.1292  0.0205 -0.1287
20802W        W36986   7.672  11.355   4.653  0.0350  0.0293 -0.0341
20803W        W36987   0.491   3.501   4.534 -0.3066 -0.1927 -0.1933
20804W        W36988   5.403   2.035   2.483  0.2572  0.1005  0.0736
20805W        W36989  17.081  14.994   0.313  0.1723  0.1294 -0.1501
20806W        W36990   4.858  18.975  14.727  0.2538  0.3124  0.0030
20807W        W36991   5.127   4.758   0.590  0.1763  0.1651  0.0330
20808W        W36992   7.090  13.989  14.549  0.4165  0.3910  0.1533
20809W        W36993  13.725  10.215  12.853 -0.4873  0.0083  0.2284
20810W        W36994  13.083  14.793  10.553 -0.2037 -0.1103  0.1181
20811W        W36995  11.777   8.994  13.132  0.0072  0.2890 -0.0214
20812W        W36996  18.256   2.314   1.724  0.0558  0.1866 -0.0630
20813W        W36997   3.279  17.517   0.166  0.1483  0.4299 -0.0861
20814W        W36998   7.306  18.540   4.320 -0.4319 -0.0182 -0.0603
20815W        W36999   7.254   3.430   9.937  0.0306  0.1241 -0.0750
20816W        W37000  18.785  11.206   5.300 -0.1439 -0.2193  0.2464
20817W        W37001  10.361  13.980   4.131  0.0353 -0.0159  0.2785
20818W        W37002  16.005  15.904  14.268  0.0117 -0.2344 -0.2186
20819W        W37003   2.601   7.377  12.924  0.0826 -0.0593 -0.0741
20820W        W37004   2.735  10.642  11.271 -0.1364 -0.0563  0.1199
20821W        W37005   2.844  12.282   0.935 -0.0008 -0.1874  0.0391
20822W        W37006   2.440  19.286  10.969 -0.1396 -0.3348  0.1820
20823W        W37007   5.432   8.321   1.655 -0.1232 -0.2842  0.0062
20824W        W37008  14.241  18.579   4.965  0.2378  0.1300  0.5862
20825W        W37009  17.218   4.753  14.155  0.2613  0.2135  0.0647
20826W        W37010  17.195   4.716   3.206  0.0506 -0.0234  0.0093
20827W        W37011   9.316  15.337   1.060  0.1180 -0.0974 -0.0267
20828W        W37012   4.124   1.573  14.343  0.0439  0.1076 -0.0262
20829W        W37013  16.922   3.381  12.928  0.0042  0.0812  0.1458
20830W        W37014   0.883  11.734  11.424 -0.1384 -0.1309  0.0515
20831W        W37015   3.199  12.855  10.507 -0.2699 -0.0580  0.3946
20832W        W37016  18.422  15.495   4.064  0.0498  0.4033 -0.1772
20833W        W37017   7.307  12.707  14.330  0.0600  0.0249 -0.2675
20834W        W37018  14.995   1.133  11.531 -0.4616 -0.0226  0.3215
20835W        W37019  15.157   5.860   5.444  0.3624 -0.1773  0.2044
20836W        W37020  11.144   4.987  13.639  0.0598  0.0620  0.2010
20837W        W37021  11.932   7.100  14.751  0.2769  0.3994  0.2144
20838W        W37022   6.163   3.894  14.085  0.2203 -0.0388 -0.0456
20839W        W37023   1.441   5.888  13.564  0.1939 -0.1686 -0.3218
20840W        W37024   2.366  14.852   2.978 -0.1844  0.3099  0.0972
20841W        W37025  13.405   7.081  14.250 -0.2799 -0.0709  0.3370
20842W        W37026   8.743   3.326  10.534  0.0749  0.0554  0.0389
20843W        W37027   3.214   7.471   5.451  0.1117 -0.3105  0.2800
20844W        W37028   3.367   1.782   2.568 -0.0577  0.2340  0.3522
20845W        W37029   7.698   5.895  10.816  0.3416  0.0524 -0.2426
20846W        W37030  17.796  15.743   1.307  0.0918 -0.2913  0.0198
20847W        W37031   4.596  16.098  11.823 -0.0232  0.1679 -0.1183
20848W        W37032   5.344  17.128  10.791  0.0442  0.0697  0.2437
20849W        W37033  14.289   1.662  10.494  0.0304 -0.1830 -0.0825
20850W        W37034   1.955   0.868   2.448  0.0389  0.7272 -0.0663
20851W        W37035   6.236  17.944  14.808 -0.1876  0.0686 -0.0432
20852W        W37036   7.942   0.090  10.706  0.4859  0.0771 -0.0814
20853W        W37037  18.995   6.607   3.800  0.1200 -0.0744  0.4424
20854W        W37038   6.031   5.773  13.925 -0.1695 -0.0735 -0.2194
20855W        W37039   7.167  16.018   5.167  0.3143  0.0630 -0.0086
20856W        W37040   2.446  13.039  10.679  0.0289 -0.1171 -0.2228
20857W        W37041   1.862  15.131   3.727 -0.1154 -0.1772  0.0213
20858W        W37042  14.337  15.310   5.111  0.2142  0.2325  0.1559
20859W        W37043  15.207   8.172   5.468  0.0917 -0.2931 -0.2854
20860W        W37044   3.974   4.932  14.286 -0.0843 -0.0282  0.5689
20861W        W37045   6.423   7.158   4.132  0.1118  0.0793  0.0551
20862W        W37046   9.069   7.313  14.367  0.0482  0.0220 -0.0835
20863W        W37047  15.968   9.203  13.521  0.2158 -0.2026 -0.1186
20864W        W37048   1.344  11.341   1.552 -0.0114 -0.1263 -0.3076
20865W        W37049  14.034   5.650   1.272 -0.2809 -0.1049  0.0673
20866W        W37050  12.784   5.538   5.384 -0.0288  0.0912 -0.0985
20867W        W37051  18.407   9.648   4.902 -0.0472  0.1131  0.2240
20868W        W37052   2.298   8.486  13.634  0.0198 -0.2648  0.3813
20869W        W37053   5.005   0.038   4.848 -0.3234 -0.1708  0.0012
20870W        W37054  17.507  18.204   1.937  0.2584  0.0120  0.0932
20871W        W37055  10.409   3.674  11.133 -0.3569 -0.0556  0.1165
20872W        W37056   8.033   8.229  13.215 -0.1837  0.1537  0.0592
20873W        W37057  14.225  15.843  11.488  0.0958  0.0756  0.2001
20874W        W37058   5.416   7.661  13.571  0.2006 -0.1407 -0.1485
20875W        W37059   0.190  15.852   5.550 -0.1580 -0.4719 -0.2296
20876W        W37060  16.903   0.628   3.905 -0.0194  0.1908 -0.0625
20877W        W37061   0.526   1.593  12.577 -0.1133  0.1508 -0.2164
20878W        W37062   7.754   4.947  11.956  0.1025 -0.1445  0.0026
20879W        W37063   8.360   5.629   4.508 -0.1064 -0.0465 -0.1041
20880W        W37064   2.735  11.495   3.258 -0.1211  0.0430  0.0678
20881W        W37065   4.088  18.689   3.097 -0.1370 -0.1875 -0.2500
20882W        W37066  12.737   0.099   3.805  0.4256 -0.0998  0.1079
20883W        W37067   1.825   7.764  10.587  0.1417 -0.2258 -0.0327
20884W        W37068  15.086   2.456   0.952  0.1477  0.2094 -0.2793
20885W        W37069  14.151   1.244  14.803  0.1386 -0.0258  0.2114
20886W        W37070   7.922  19.044  11.179 -0.3154  0.1545 -0.0340
20887W        W37071  16.413   8.564  12.595  0.0110 -0.2743 -0.1431
20888W        W37072   8.343   5.537  14.601  0.0405  0.1662 -0.1789
20889W        W37073  10.842  10.657  12.386  0.0376  0.0780 -0.3481
20890W        W37074  12.297  14.866  12.125 -0.0237 -0.0255 -0.1350
20891W        W37075   7.994  12.965  12.652 -0.0799 -0.2342  0.1151
20892W        W37076  17.783   5.581   1.988 -0.4685  0.3340  0.1631
20893W        W37077   5.474   5.225   3.013 -0.2484  0.3166 -0.0363
20894W        W37078  13.553   3.617   1.993  0.1778 -0.0387  0.1971
20895W        W37079   0.225  17.805  11.050  0.1158 -0.3775  0.2317
20896W        W37080   9.829  10.324  14.724 -0.2228 -0.0406  0.0136
20897W        W37081   9.789   1.722  10.864  0.3328 -0.0626  0.0881
20898W        W37082  17.738  12.337  10.855 -0.1704 -0.0619  0.0877
20899W        W37083  18.334  17.279  14.216 -0.0008 -0.1518 -0.0468
20900W        W37084  17.445   1.084   4.610 -0.3181  0.1532 -0.1783
20901W        W37085   1.815  17.452   1.209  0.0386 -0.1981 -0.0998
20902W        W37086   6.804   6.801   1.150  0.7257 -0.1234 -0.1116
20903W        W37087  14.704  15.852  10.532  0.0855  0.1478 -0.0957
20904W        W37088   9.721  19.204  12.701 -0.1672 -0.0788 -0.2125
20905W        W37089   2.208  10.214  12.745  0.0218 -0.0028  0.0235
20906W        W37090   0.206  12.930   0.472 -0.0061 -0.2717 -0.0425
20907W        W37091   3.770  15.243   5.619  0.0097  0.3906  0.2330
20908W        W37092  12.025  17.463  10.980  0.1200  0.1583 -0.0252
20909W        W37093   5.191   6.570  14.516  0.4309  0.1849  0.2392
20910W        W37094  18.143  16.544  13.456 -0.1544 -0.4480  0.1678
20911W        W37095   7.900  15.484  13.292  0.2091 -0.2303 -0.2956
20912W        W37096   5.122   9.256  12.724  0.0095  0.1283 -0.0612
20913W        W37097  13.813   2.301  12.657 -0.0419  0.1570 -0.1212
20914W        W37098   4.146  12.361   4.888 -0.2124  0.1857  0.2133
20915W        W37099  16.037   5.082   4.837  0.2565 -0.1350  0.2276
20916W        W37100  15.076  16.557  13.591  0.0419  0.1991 -0.2207
20917W        W37101   3.305  16.703   2.342 -0.0614  0.2891  0.0245
20918W        W37102   6.886   1.222  11.695  0.0809  0.1074  0.1714
20919W        W37103   1.997   2.991   0.682  0.1924  0.3606 -0.0376
20920W        W37104   2.199  18.515  11.585  0.1007 -0.0116 -0.1510
20921W        W37105   7.149   9.131   0.307  0.1425  0.0495 -0.2377
20922W        W37106  10.003   5.187  10.828  0.2322  0.2335 -0.1367
20923W        W37107   2.929  14.730   1.189 -0.1679  0.1671  0.2903
20924W        W37108   3.469   0.063  12.530 -0.1618 -0.1488  0.0358
20925W        W37109  13.441  11.945   4.055 -0.0381 -0.0485 -0.1184
20926W        W37110  13.386   6.018  10.884 -0.2614  0.2516 -0.2511
20927W        W37111   6.768   8.361  10.690 -0.1488  0.2857 -0.3096
20928W        W37112  16.259   6.266   1.363  0.0419 -0.0615 -0.3980
20929W        W37113  15.650  10.016  12.995 -0.3416  0.0158  0.1972
20930W        W37114   9.295   4.321  12.010  0.0861  0.1643  0.2578
20931W        W37115  13.608   4.245   2.905 -0.0666 -0.1838 -0.1314
20932W        W37116   0.226  15.448   0.874  0.0438  0.1595  0.2419
20933W        W37117   9.706   5.219   2.652  0.0604 -0.1691  0.1130
20934W        W37118   5.381  11.553   2.728  0.0010 -0.1512 -0.1091
20935W        W37119  15.155  10.976   2.171  0.0085 -0.0354 -0.1205
20936W        W37120  13.650  19.187  11.397  0.1136  0.3005 -0.2602
20937W        W37121  17.064   6.133  14.816  0.1283 -0.2676 -0.0255
20938W        W37122   8.550  19.010   1.321 -0.2942  0.1257  0.0755
20939W        W37123  14.228  15.452  12.532  0.1037  0.1166 -0.0419
20940W        W37124   5.466   3.402   0.270 -0.2196  0.0140  0.2696
20941W        W37125   2.936   5.572   3.080 -0.0172 -0.1036  0.0475
20942W        W37126  10.744  17.061  10.790 -0.2176 -0.2325 -0.1011
20943W        W37127   5.098   7.237   0.098  0.0407 -0.2313 -0.2526
20944W        W37128   6.606   7.168   0.025  0.0831  0.0653  0.0935
20945W        W37129  15.714  11.815   4.266 -0.1626  0.1916 -0.1531
20946W        W37130  15.547   8.931  14.175  0.0896  0.2124  0.0011
20947W        W37131   8.185  17.970   2.429  0.2617 -0.1623 -0.2428
20948W        W37132  17.613  12.107  12.349  0.0933 -0.0406  0.0910
20949W        W37133   7.637   4.798   1.423 -0.0101 -0.3895 -0.1724
20950W        W37134   7.885  11.214  14.814  0.2405  0.3009  0.0249
20951W        W37135   0.125   1.354  11.789 -0.2708 -0.0664 -0.2702
20952W        W37136   4.663   4.271   2.737 -0.0193 -0.1611 -0.0323
20953W        W37137  10.768  10.586   2.365 -0.0904  0.2853 -0.1953
20954W        W37138  11.498  15.696  12.996 -0.0459  0.2114 -0.3010
20955W        W37139  18.997   1.896   3.051 -0.2362  0.4228 -0.1289
20956W        W37140  10.923   9.761  11.282 -0.0420 -0.1265 -0.0245
20957W        W37141   7.184   2.650  12.760  0.0248  0.2697 -0.1880
20958W        W37142   9.148   4.826  13.252  0.1323  0.0451  0.3969
20959W        W37143  14.520   7.290  14.112 -0.0410  0.1485  0.0745
20960W        W37144   2.790  15.417  13.509  0.0049 -0.1428  0.0672
20961W        W37145  17.560   8.867   1.693  0.3492 -0.0720 -0.3936
20962W        W37146   6.853   0.403   1.309 -0.0613  0.1720  0.3607
20963W        W37147  17.758  15.787   2.531  0.3812  0.0491 -0.1987
20964W        W37148   7.763  17.741  12.104  0.3921 -0.1501 -0.3944
20965W        W37149   4.653   9.098  10.494  0.2332  0.0178 -0.0671
20966W        W37150  18.964  14.662  13.214  0.1192 -0.1209 -0.0831
20967W        W37151   0.466   8.036   4.196 -0.0681  0.1812 -0.1753
20968W        W37152  18.538  15.178   4.556  0.5240 -0.2565 -0.2288
20969W        W37153   3.859   4.404   4.773 -0.1675  0.0413 -0.3317
20970W        W37154  18.012  11.714   3.074 -0.1249  0.0921  0.3039
20971W        W37155   1.212   9.942  14.216  0.4174 -0.0376  0.2473
20972W        W37156  11.883   2.129  14.783 -0.0679 -0.1505 -0.0643
20973W        W37157  18.071  19.028   4.055  0.1110 -0.2407 -0.1745
20974W        W37158  10.099   2.133  10.669  0.2446 -0.2316 -0.0065
20975W        W37159   0.206   6.399  12.610 -0.1219 -0.2229  0.0017
20976W        W37160   6.138  13.812   0.605 -0.3757  0.0813 -0.0939
20977W        W37161   5.307   2.220  10.411 -0.2234 -0.2714 -0.1889
20978W        W37162  17.639  10.585   0.354  0.2032 -0.0131 -0.3685
20979W        W37163  15.519  17.613  12.116  0.1346 -0.2200 -0.2302
20980W        W37164   3.584  11.823  14.239 -0.3406 -0.1046 -0.0960
20981W        W37165  18.273   8.707   3.624  0.1190  0.0988  0.4328
20982W        W37166   9.865  17.259  12.171 -0.0221  0.0040  0.0459
20983W        W37167  15.179   4.397  12.496 -0.2145 -0.1898 -0.0027
20984W        W37168   7.771  11.740  12.029 -0.2413  0.1110 -0.3327
20985W        W37169   3.257   8.482  13.606  0.2396  0.0062  0.1304
20986W        W37170   0.602   6.473   3.155  0.0450  0.0377  0.1027
20987W        W37171  15.252   9.951  11.365 -0.0039 -0.1545  0.0650
20988W        W37172   0.625  14.923  11.646  0.0799  0.0320 -0.2160
20989W        W37173  16.096  17.237  12.731  0.1140  0.1425  0.0974
20990W        W37174   9.220  14.906  12.169 -0.0832 -0.0205  0.0767
20991W        W37175  13.703   3.839   3.287  0.3086  0.1118  0.2464
20992W        W37176   9.147   9.083   5.434 -0.6071 -0.3140 -0.1905
20993W        W37177   0.920   0.658   2.324  0.4802 -0.0183 -0.2588
20994W        W37178  12.847  15.030  14.500  0.0806 -0.0899 -0.1130
20995W        W37179   5.729   6.170   0.257  0.1513 -0.1301  0.1496
20996W        W37180  15.559  14.964   0.403 -0.1187 -0.0121 -0.0797
20997W        W37181  15.896  11.730   9.582  0.2427 -0.0656  0.0480
20998W        W37182  15.265   4.467  14.050  0.3105  0.1953  0.1841
20999W        W37183   6.873   3.205   9.041 -0.1671 -0.2139 -0.2744
21000W        W37184  15.528  19.237  13.859 -0.0465 -0.1160 -0.2981
21001W        W37185  12.024   7.038  11.899 -0.1811  0.5070  0.0068
21002W        W37186   7.108   1.794   4.790 -0.2409  0.3578  0.2850
21003W        W37187  15.493  13.796   3.391  0.0079  0.0322 -0.0208
21004W        W37188   4.535   8.647   3.047  0.0174  0.1036  0.2470
21005W        W37189  15.975  16.594  14.713 -0.2025 -0.0926  0.3290
21006W        W37190  17.641  17.097   3.972 -0.0012 -0.2603  0.3392
21007W        W37191  13.801   5.648   2.934  0.1014  0.0269  0.0184
21008W        W37192  16.140  18.406   2.064  0.1058  0.1299  0.0318
21009W        W37193  15.624   1.005   2.749 -0.1794 -0.0197  0.1459
21010W        W37194  10.693  14.808   3.557 -0.1508 -0.1247 -0.1062
21011W        W37195  10.398  12.059   5.474  0.2006 -0.0028 -0.3586
21012W        W37196   8.851   3.537   1.947  0.2614 -0.0140  0.0487
21013W        W37197   3.038   6.392   3.070 -0.0889  0.1424 -0.0606
21014W        W37198  17.859   7.070   1.295  0.1020 -0.4942  0.2270
21015W        W37199  14.177   8.118   1.415  0.2214 -0.1992 -0.0151
21016W        W37200   0.003   4.088   0.731  0.2550 -0.0672  0.0536
21017W        W37201  17.533  12.988  14.669  0.1884  0.1163 -0.0202
21018W        W37202  15.170  17.133   1.961  0.1310 -0.4413  0.2852
21019W        W37203   0.319  10.872   2.694 -0.1591 -0.0496  0.0281
21020W        W37204   9.929   1.287   2.128  0.0862 -0.1330  0.0621
21021W        W37205   7.020  17.220  14.115  0.0928 -0.1518  0.0956
21022W        W37206   5.084  13.423   1.579 -0.1167  0.4783  0.1778
21023W        W37207  19.109  13.259  14.755 -0.0777 -0.0803  0.0097
21024W        W37208   1.552   9.922  14.602 -0.2558 -0.0318 -0.1581
21025W        W37209  13.027   1.874   5.125 -0.0987 -0.1412  0.3187
21026W        W37210  13.646   1.809  10.372  0.0622 -0.0152 -0.3791
21027W        W37211   6.661  15.691   0.505  0.0427 -0.0571 -0.1532
21028W        W37212   2.457  16.493   1.571  0.1810 -0.0563  0.0213
21029W        W37213   8.038   4.232   2.016 -0.1087  0.2352 -0.1447
21030W        W37214  10.128   6.470  10.787  0.3607 -0.0625  0.2074
21031W        W37215   6.923  14.105   5.117 -0.1714 -0.1740  0.2167
21032W        W37216   1.621   4.968   3.788 -0.1310 -0.1767  0.0555
21033W        W37217  19.160   2.873  12.870 -0.2902  0.4630 -0.3176
21034W        W37218   6.935   0.983   1.243  0.1377 -0.2380  0.1145
21035W        W37219   4.661   0.664  13.630  0.1111  0.1565  0.0370
21036W        W37220   1.858   1.785   4.122 -0.3076 -0.0911 -0.0176
21037W        W37221  16.419  12.976  13.557 -0.1503  0.0162 -0.1916
21038W        W37222   8.714  15.477   2.277  0.1105 -0.1798 -0.0588
21039W        W37223  11.618   6.683   9.461  0.0463 -0.2878 -0.0206
21040W        W37224   2.278  10.821   4.755 -0.0025  0.3347 -0.0702
21041W        W37225   5.387  11.014  13.691 -0.1945 -0.4327  0.4089
21042W        W37226   7.125  16.489   3.804 -0.1473 -0.0933  0.1856
21043W        W37227  13.369  10.933   2.161  0.3549  0.2294  0.3834
21044W        W37228   9.297   1.995   3.638  0.2425  0.0070 -0.1411
21045W        W37229  18.981  10.544   0.508 -0.2440  0.1731 -0.4076
21046W        W37230   3.240   9.382   3.186 -0.0228  0.1412 -0.0330
21047W        W37231   1.266   7.939   4.581 -0.0776 -0.0838  0.2225
21048W        W37232   9.309  11.527  14.683  0.1160 -0.0193  0.4370
21049W        W37233   3.629  12.048  10.909  0.0396  0.2264  0.0104
21050W        W37234   1.177  15.748   4.349  0.0832  0.1116 -0.3238
21051W        W37235   8.511  14.349  10.184 -0.2302  0.1940 -0.0346
21052W        W37236   1.283   8.426   0.814 -0.1006 -0.4155  0.1272
21053W        W37237   3.178   9.636  12.791  0.2147 -0.0499 -0.2000
21054W        W37238  16.371   6.284   9.985 -0.3901 -0.4785 -0.2487
21055W        W37239   6.585  12.922   2.895  0.0924 -0.3504 -0.0889
21056W        W37240  17.376   8.955  12.359 -0.1911 -0.0795  0.1217
21057W        W37241  18.715   7.108  10.463 -0.0683 -0.0018 -0.0012
21058W        W37242  17.044   8.278   4.113  0.0232 -0.0337 -0.4076
21059W        W37243   4.073   9.276   0.633  0.3468  0.2989  0.1195
21060W        W37244  10.629   1.947  12.960  0.0574 -0.1757 -0.3649
21061W        W37245  10.921  17.228   9.996  0.0381  0.1471 -0.1222
21062W        W37246  10.007   8.709  10.462 -0.1768 -0.1814 -0.0408
21063W        W37247   1.926   0.848  10.339 -0.2211  0.1043  0.2542
21064W        W37248  13.522  12.439   3.247 -0.2390 -0.0303  0.0394
21065W        W37249  16.771  16.592   0.823  0.1127 -0.0554 -0.0791
21066W        W37250   1.331  12.431  11.774 -0.0890  0.4273  0.1968
21067W        W37251   0.155   1.226   1.735 -0.3383  0.2713 -0.2042
21068W        W37252   0.382  17.170  14.958 -0.0659 -0.0212  0.1639
21069W        W37253  11.499   1.628   2.116 -0.0793 -0.4061  0.1541
21070W        W37254   3.269   9.938   5.430 -0.4046 -0.2321  0.0927
21071W        W37255   4.674  12.399   2.528 -0.0149 -0.2165 -0.3331
21072W        W37256  15.545   0.052   4.302  0.2108  0.1775 -0.3332
21073W        W37257  18.677   4.853  12.072 -0.2429  0.0935 -0.0869
21074W        W37258   4.554   1.292  14.444 -0.1249 -0.0721 -0.1513
21075W        W37259  18.882  13.326  13.061  0.0418 -0.1067  0.0807
21076W        W37260  12.959  16.477   0.394 -0.0522  0.0936 -0.1038
21077W        W37261  16.760   6.324   1.911 -0.0602 -0.2584 -0.1048
21078W        W37262  14.741   5.507   4.694  0.1404 -0.4003  0.2684
21079W        W37263   3.779  18.251  13.161 -0.2813 -0.2743 -0.2192
21080W        W37264  14.611  13.399   2.159  0.0560 -0.1346 -0.0148
21081W        W37265  15.783   6.426  11.447 -0.1032  0.0585 -0.0214
21082W        W37266   8.474   3.301  13.768 -0.1485 -0.0937 -0.0204
21083W        W37267   1.629   8.121  14.394  0.1700 -0.1558 -0.0686
21084W        W37268  18.413  14.827   0.494 -0.0501 -0.3020  0.2534
21085W        W37269   8.566   1.605   1.639 -0.1309 -0.0236 -0.1277
21086W        W37270  12.093   6.970  13.818 -0.0407  0.2882  0.1833
21087W        W37271   0.906   9.823   0.155  0.3962 -0.0424  0.1311
21088W        W37272   1.576   8.764   3.121  0.2079 -0.4261 -0.1081
21089W        W37273   1.967  11.792   1.191 -0.1965  0.1944 -0.1372
21090W        W37274  16.000   4.127  10.779  0.0391 -0.0881  0.1669
21091W        W37275   2.410  12.986  14.970  0.1711  0.1802  0.2490
21092W        W37276  16.655  10.144  11.548  0.1963  0.1073 -0.0393
21093W        W37277  19.331  11.582   3.928 -0.1718 -0.0317 -0.1292
21094W        W37278   9.258  17.517  12.344 -0.2084  0.0278 -0.2723
21095W        W37279  14.753   9.151  10.976 -0.1692 -0.0452 -0.1696
21096W        W37280   2.594   5.569  10.711 -0.2114 -0.2243  0.3334
21097W        W37281   7.845  14.186  11.534 -0.3468  0.0962 -0.2293
21098W        W37282  11.701  13.560  11.633  0.0893 -0.1990  0.0981
21099W        W37283   0.813  11.488   1.500 -0.2726  0.2150 -0.1356
21100W        W37284   4.870   9.697  12.587  0.2448  0.1347 -0.0557
21101W        W37285   4.844   7.129   2.923 -0.3125  0.0201  0.1939
21102W        W37286  16.182  18.764   2.484  0.0001 -0.3239  0.0113
21103W        W37287   4.827   5.090  13.526  0.0634 -0.0973 -0.0227
21104W        W37288  19.288  14.667  14.631  0.0426 -0.1598 -0.2855
21105W        W37289   1.353  11.139  12.906 -0.1322 -0.3415 -0.1190
21106W        W37290  17.956  13.771   0.606 -0.0985 -0.1488  0.2265
21107W        W37291  18.992   4.660  12.642  0.0368  0.0779  0.3681
21108W        W37292  18.606   2.282   0.649  0.0758  0.1280 -0.0991
21109W        W37293   9.327  13.402   1.026 -0.0521  0.2210 -0.1483
21110W        W37294  16.824  13.790  14.578  0.1366  0.3131  0.0609
21111W        W37295  14.034  18.636   1.436  0.0870  0.2084 -0.3428
21112W        W37296   9.040  15.205   2.533  0.1748  0.2332 -0.2379
21113W        W37297  10.906   0.264  11.954  0.0756 -0.0880 -0.0693
21114W        W37298  12.565  13.604  14.834  0.0189  0.0937  0.2932
21115W        W37299  13.245   5.370  11.238  0.0759  0.5279  0.2301
21116W        W37300   0.836  12.270  14.181 -0.0509 -0.1493  0.1732
21117W        W37301  15.689   4.273  14.854  0.4054  0.2094 -0.3322
21118W        W37302   6.195  13.788   4.742  0.0832 -0.2515 -0.2790
21119W        W37303   5.687   0.042  12.205 -0.3691 -0.4609 -0.0370
21120W        W37304  13.659   6.457  10.951 -0.0472  0.1609  0.0082
21121W        W37305  16.314  12.677   3.924 -0.2779 -0.1319  0.0246
21122W        W37306  15.268   1.887   1.174  0.1447  0.0522 -0.1217
21123W        W37307  14.638   9.013   3.339 -0.2838 -0.1161 -0.2274
21124W        W37308   2.651  10.495   0.593 -0.0381  0.1582  0.0813
21125W        W37309   4.854  16.262  10.001  0.3104 -0.1747  0.1377
21126W        W37310   1.925  15.414   0.706  0.4058  0.0971 -0.1163
21127W        W37311   4.283   0.518   4.612 -0.0072  0.0864  0.0487
21128W        W37312  15.466   3.984  10.621 -0.1990  0.2297  0.4106
21129W        W37313  13.034  19.043  13.546 -0.0102 -0.0007 -0.2417
21130W        W37314   0.772  13.923  13.066 -0.0879 -0.0410 -0.4795
21131W        W37315  10.816  16.817  13.533 -0.1292  0.0622  0.1288
21132W        W37316  19.267  11.317   3.397  0.0521  0.0489  0.0195
21133W        W37317  10.292  14.627   0.975  0.1021  0.1710 -0.2651
21134W        W37318   2.011  16.509  11.834 -0.1052 -0.1163  0.1077
21135W        W37319   5.248   6.904   2.025  0.0237 -0.2921  0.0996
21136W        W37320  12.490   2.031  12.522 -0.2968 -0.1423 -0.2083
21137W        W37321  16.592   0.149   2.109  0.1069 -0.1580 -0.1891
21138W        W37322  13.506   4.339  13.238  0.1955  0.0157  0.2720
21139W        W37323   7.449   5.892  11.728 -0.0544 -0.1089 -0.3127
21140W        W37324   8.713   4.464  13.488  0.0519 -0.2506 -0.0097
21141W        W37325   6.047   8.122   4.147 -0.1826 -0.0611  0.0320
21142W        W37326   8.334  12.995   4.479  0.0737 -0.0695  0.2481
21143W        W37327   2.460   6.677   3.018  0.2881 -0.2716  0.0039
21144W        W37328   2.870  16.648  13.163 -0.1038  0.0463 -0.2167
21145W        W37329   1.841   9.657   2.583  0.1030  0.0639  0.0590
21146W        W37330  12.539   0.442   0.385  0.0143 -0.0252  0.3454
21147W        W37331  15.092  11.293  13.613 -0.2240  0.0104 -0.2155
21148W        W37332  17.687   2.155  12.925  0.1049 -0.4325  0.3468
21149W        W37333  11.778  15.451  10.541  0.1382  0.2181  0.4028
21150W        W37334  13.734   1.552   1.855  0.1702  0.3484  0.1238
21151W        W37335  11.968  13.046   3.653  0.0809  0.3881 -0.1502
21152W        W37336   1.364  18.884   1.634 -0.0067 -0.1000  0.0078
21153W        W37337   5.518   0.076   4.845  0.4133  0.0388  0.2401
21154W        W37338   0.968   5.219   5.490 -0.0460 -0.1331 -0.1487
21155W        W37339  16.412   0.397  11.702  0.0625  0.0355  0.0176
21156W        W37340  10.135   1.256   4.327 -0.1496 -0.0756 -0.0934
21157W        W37341   9.387  17.325   3.465 -0.3580 -0.0648  0.2226
21158W        W37342   5.056  10.901  13.266  0.4285  0.1603  0.1798
21159W        W37343  12.624  10.720   4.217  0.0703  0.0960  0.1228
21160W        W37344  11.695  12.568   9.376 -0.0507 -0.2894  0.3415
21161W        W37345  14.985   6.296   3.938  0.0859 -0.2622 -0.0202
21162W        W37346  15.282  15.414   4.845  0.1488  0.1014 -0.3537
21163W        W37347  15.462  13.799  14.895 -0.0310 -0.1916 -0.1406
21164W        W37348   4.330   2.772   2.163  0.1326 -0.0193 -0.1426
21165W        W37349   6.565   6.159   2.865 -0.0152 -0.0160  0.0747
21166W        W37350   9.981  10.893   1.205 -0.1869  0.0224 -0.0465
21167W        W37351   8.129   1.252   4.879 -0.2340  0.3507  0.2572
21168W        W37352  11.933   7.928  11.106 -0.2117  0.2349 -0.1406
21169W        W37353  10.775   3.309  14.746  0.3424 -0.2215 -0.1149
21170W        W37354  17.835   0.925  10.176 -0.1395  0.1823  0.1016
21171W        W37355   1.750  14.917  10.100 -0.2854  0.0145 -0.1542
21172W        W37356  10.447   2.073   5.732  0.1249  0.0017  0.1688
21173W        W37357  14.947  12.551   4.647  0.0857  0.0024 -0.1942
21174W        W37358  19.305   5.429   2.243  0.1775  0.3577  0.0570
21175W        W37359  10.625  18.251  10.681  0.1270 -0.0446 -0.1868
21176W        W37360  14.292  18.015  13.519 -0.2454  0.2814  0.3566
21177W        W37361   0.696   6.793   2.573 -0.0084  0.4627 -0.1055
21178W        W37362  18.396   4.047  10.484 -0.0688  0.4129  0.2438
21179W        W37363   6.969   0.382   2.919 -0.2031 -0.1072  0.2672
21180W        W37364   0.530  11.733  10.904  0.0486  0.1848  0.0738
21181W        W37365  12.573   1.478  14.230  0.1866 -0.2072 -0.1324
21182W        W37366  12.738   4.319  11.044 -0.3910 -0.0688 -0.1252
21183W        W37367   9.057   6.154   4.487 -0.0223  0.3845  0.0930
21184W        W37368   2.898   2.076   2.841  0.0233  0.1836  0.0729
21185W        W37369   1.432  11.218   5.416 -0.0435  0.1769 -0.0675
21186W        W37370  11.796   7.756   1.658  0.3960  0.0979  0.1303
21187W        W37371   8.490  14.295  14.915  0.0462  0.0732  0.0129
21188W        W37372   8.976  12.396   3.114  0.0896  0.2153 -0.1053
21189W        W37373  18.953  14.160  11.970 -0.2050  0.1469  0.2013
21190W        W37374   2.812   2.504   0.333 -0.1569  0.0769  0.0061
21191W        W37375  14.956  12.419  11.046 -0.2092  0.6552  0.3375
21192W        W37376   2.868  12.296  13.331 -0.1925  0.2068  0.0697
21193W        W37377  18.654   8.992  11.413  0.0633 -0.2451 -0.0094
21194W        W37378   8.795   5.943  11.269  0.0999  0.1844 -0.2369
21195W        W37379   7.672   6.586   0.905 -0.1078  0.0395 -0.0566
21196W        W37380   6.375   0.909  11.037 -0.0804  0.0567 -0.0518
21197W        W37381   4.721  15.638   0.187  0.3430  0.2343  0.1260
21198W        W37382  13.990   5.886  14.568 -0.2223  0.0133  0.3566
21199W        W37383   2.469  11.494  12.469  0.0884  0.3200  0.0693
21200W        W37384  15.134   2.538   1.768 -0.1573  0.2544 -0.0008
21201W        W37385  18.876  18.514   2.005  0.4128  0.0077  0.0717
21202W        W37386   5.367  10.969  10.758 -0.2261  0.0785  0.2874
21203W        W37387  16.119  13.757   2.951  0.1186 -0.1891 -0.1552
21204W        W37388   2.732   0.122  14.777 -0.0078  0.0263  0.0114
21205W        W37389   7.028   4.095   1.381  0.2211  0.0591  0.0740
21206W        W37390  14.080   5.113   1.261 -0.2640 -0.0440 -0.1824
21207W        W37391  16.693  10.589   0.150  0.2224 -0.0914  0.2192
21208W        W37392  16.938   6.944  13.247 -0.0533  0.1560 -0.1095
21209W        W37393   2.359   0.680  13.683  0.0374 -0.0999  0.2303
21210W        W37394  19.218  12.673  12.617 -0.1132 -0.1170 -0.1097
21211W        W37395   1.903  18.254   1.780  0.2277  0.1674 -0.0566
21212W        W37396  15.929   1.469   4.906 -0.0117 -0.0723 -0.4110
21213W        W37397   7.930  16.823   2.105  0.0025  0.0018 -0.1981
21214W        W37398  13.657  11.016  10.572  0.0834 -0.2917 -0.1118
21215W        W37399   9.886   1.512   1.664 -0.2819 -0.0198 -0.1539
21216W        W37400   2.851  17.870  12.638  0.0096  0.1159 -0.1947
21217W        W37401  18.760  13.880   3.790 -0.0836  0.1313 -0.1869
21218W        W37402  18.687   6.010  14.741  0.1542 -0.0077  0.1521
21219W        W37403  18.803   1.574  13.005 -0.2222  0.4994 -0.1946
21220W        W37404   4.363  15.191   0.045  0.1764  0.1524 -0.1779
21221W        W37405  12.689   8.317   2.756  0.3328  0.2964  0.1670
21222W        W37406   5.260  17.475  11.109 -0.1369 -0.1052  0.0030
21223W        W37407  12.161   7.777  12.540  0.2189  0.0168  0.1075
21224W        W37408  17.938   9.851   1.081  0.2744 -0.2417 -0.0414
21225W        W37409   9.136  15.807  10.226  0.1709  0.2237 -0.2564
21226W        W37410   2.300   8.321   3.583 -0.2522  0.3542  0.2689
21227W        W37411   5.676  17.854  11.346  0.1729 -0.2467  0.0465
21228W        W37412  18.602   8.875   5.303  0.2738  0.2087 -0.4202
21229W        W37413   4.536  12.765   2.154 -0.3102 -0.1340 -0.1148
21230W        W37414  12.234   4.127   3.361  0.2124  0.0572  0.0619
21231W        W37415   7.568   2.988  13.160  0.2389 -0.4758 -0.0910
21232W        W37416   7.550  13.075   3.238  0.0121 -0.1997 -0.2350
21233W        W37417   2.107   1.690  12.066 -0.3215 -0.0626 -0.2965
21234W        W37418  18.863   1.277  13.858 -0.3173  0.1136  0.0179
21235W        W37419   6.109   1.030  13.604 -0.1887  0.3223  0.0221
21236W        W37420   1.053   8.379  10.956 -0.2966  0.2260  0.2432
21237W        W37421  10.572  17.456   1.892  0.2383 -0.1640  0.3396
21238W        W37422  13.306  19.057   0.153 -0.3107 -0.0226 -0.0258
21239W        W37423  17.593   6.564  14.751  0.0674  0.4000  0.1870
21240W        W37424  18.149  11.482   2.162 -0.4099 -0.0169 -0.4863
21241W        W37425   4.543   2.999  11.710  0.0613 -0.0863 -0.2432
21242W        W37426   4.946  12.305  10.186  0.3843  0.0192 -0.1061
21243W        W37427  18.556  18.537  13.927  0.1945 -0.0694  0.2314
21244W        W37428  18.637  12.022  14.459 -0.1268  0.0849  0.1842
21245W        W37429   3.112  13.069   1.206  0.4172  0.0571  0.1879
21246W        W37430   6.560  11.566   3.487 -0.0472 -0.1066 -0.0595
21247W        W37431  17.078   5.231   1.587  0.1653  0.1329  0.0207
21248W        W37432  14.702  13.613   0.565 -0.1183 -0.1700  0.0843
21249W        W37433   1.032   9.346   3.853  0.1868  0.0717  0.1233
21250W        W37434  10.862   5.763  14.940 -0.0977  0.1071 -0.1216
21251W        W37435  11.948  10.331  13.214 -0.0730 -0.1788 -0.0335
21252W        W37436   7.482   6.471  14.550  0.0499 -0.0387  0.0206
21253W        W37437  10.807  11.087  10.999 -0.0043 -0.1303 -0.3208
21254W        W37438   2.406   0.942  14.264 -0.0526 -0.4468 -0.0087
21255W        W37439   2.292   3.143   1.478  0.2064 -0.2203 -0.1491
21256W        W37440  19.146  16.466   1.551 -0.2565 -0.1610 -0.0032
21257W        W37441  11.562   3.342   3.401  0.1927 -0.1832 -0.0566
21258W        W37442  15.217   6.483  14.154  0.3465 -0.1405  0.5104
21259W        W37443  11.028   5.351   2.426 -0.1569  0.1062 -0.2572
21260W        W37444   9.444  14.351   0.972  0.1336  0.1407  0.0474
21261W        W37445   1.413  18.615  14.438  0.0537  0.1899 -0.1996
21262W        W37446  18.845  11.802   1.044 -0.0322  0.2015 -0.1148
21263W        W37447  16.703   1.256   3.398  0.0508 -0.1175  0.0312
21264W        W37448  18.728  14.345   4.526 -0.2518 -0.0940  0.0766
21265W        W37449  10.486   6.580  14.341  0.1320 -0.1490  0.0120
21266W        W37450  16.302  10.138  11.905  0.2497 -0.0448  0.0554
21267W        W37451  14.212  15.133   4.212 -0.0600  0.3152  0.0107
21268W        W37452  14.269  19.103   2.819  0.1175 -0.2954  0.2882
21269W        W37453  18.408   0.875   4.895 -0.0169  0.0943  0.2208
21270W        W37454   4.695   0.453  14.150 -0.2101  0.0048 -0.1197
21271W        W37455  16.319   8.556   1.542 -0.0853 -0.4983  0.1925
21272W        W37456  13.907   5.928  13.119 -0.4003 -0.3765 -0.0647
21273W        W37457  19.295   1.081   0.868 -0.2275 -0.0902  0.5664
21274W        W37458  12.154   8.679  10.243  0.1821 -0.3835 -0.2390
21275W        W37459  13.192  13.091  11.816  0.0072 -0.0451 -0.1186
21276W        W37460   3.776   7.915   1.416  0.2102  0.1747  0.1083
21277W        W37461   0.484  14.883   5.295 -0.1456 -0.1119  0.1368
21278W        W37462   5.810   4.533  10.238 -0.1483  0.0839 -0.1899
21279W        W37463  10.098  11.446   0.301 -0.0866 -0.2114 -0.1884
21280W        W37464  17.046  13.486   0.177 -0.0922  0.0085  0.4019
21281W        W37465  17.982  10.927   4.800 -0.1804 -0.3661 -0.1248
21282W        W37466  13.589  19.301   0.973  0.0361  0.0338  0.0351
21283W        W37467  13.289   8.842   4.211  0.2115  0.1918 -0.0790
21284W        W37468  13.558  18.339  10.228  0.2455 -0.1481  0.3142
21285W        W37469   7.833   3.052  12.162 -0.0148 -0.0356 -0.0740
21286W        W37470   0.512   2.427  10.372 -0.0345  0.1954  0.0573
21287W        W37471  19.000   3.925   0.258 -0.0925  0.1538  0.1452
21288W        W37472  13.655  15.811   3.741  0.1076 -0.1145 -0.2351
21289W        W37473   4.025   1.612   3.000 -0.0126 -0.2448  0.2816
21290W        W37474  16.231   8.463   2.124 -0.0216 -0.1293  0.0301
21291W        W37475  16.754   9.518   3.259  0.1204 -0.1311  0.1177
21292W        W37476  15.672   9.024   0.416 -0.4705 -0.2563 -0.0203
21293W        W37477   9.085  15.076  14.398 -0.3988 -0.0293 -0.2057
21294W        W37478  18.978   5.663  11.673  0.1450  0.5046  0.0853
21295W        W37479  10.302  16.511  11.767 -0.1015  0.1447  0.0594
21296W        W37480   4.795   0.576  12.372  0.0812 -0.1011  0.0801
21297W        W37481  18.574   4.868   4.318 -0.2765 -0.0060 -0.3123
21298W        W37482   5.430   9.621   2.554 -0.0373 -0.1195  0.0935
21299W        W37483  13.762  10.680   1.692 -0.0145 -0.1585 -0.0099
21300W        W37484   4.372  18.549   4.635  0.3779  0.0024  0.4615
21301W        W37485   4.981  18.591   5.232 -0.0269  0.1286  0.2096
21302W        W37486   8.559  10.981  13.542  0.2214 -0.2044  0.2989
21303W        W37487   5.722   7.792   1.915 -0.1114 -0.0482  0.0922
21304W        W37488  13.557  10.390   4.727 -0.0386  0.1692  0.3571
21305W        W37489  13.336   4.058   0.243  0.4553  0.2491 -0.3011
21306W        W37490   8.711  13.885   0.197  0.0028  0.0725  0.2367
21307W        W37491  11.293  13.276   2.616  0.1089 -0.0772  0.1413
21308W        W37492   4.461  19.277   0.540  0.0667 -0.1709 -0.1768
21309W        W37493   7.611   9.018   3.771  0.1229  0.4123  0.0568
21310W        W37494   0.333  11.116   3.219  0.0484 -0.0275 -0.0710
21311W        W37495  18.276   3.671  13.575 -0.2692 -0.3607 -0.0796
21312W        W37496  18.248  10.710  13.540 -0.0724 -0.0312 -0.0180
21313W        W37497   4.660   6.120   2.564  0.0605 -0.1447 -0.0946
21314W        W37498  15.077  12.404  13.358 -0.0486  0.0134 -0.1251
21315W        W37499   0.819   0.943  10.741  0.3661 -0.1042  0.5329
21316W        W37500   8.327   9.043   2.489  0.1097 -0.2052  0.0661
21317W        W37501   1.706  18.563   3.748  0.0322  0.0634  0.4789
21318W        W37502   7.427  18.309   2.910  0.1743  0.1003 -0.0169
21319W        W37503   8.211  12.485   4.477 -0.1471 -0.2371 -0.1308
21320W        W37504   3.824  16.351  11.912  0.0789  0.0916 -0.0590
21321W        W37505  16.613  15.456   1.180 -0.2269  0.0621 -0.0982
21322W        W37506   4.976  18.856   3.928  0.0587 -0.1170 -0.3156
21323W        W37507  12.906   2.599  14.830 -0.0692 -0.4256  0.0639
21324W        W37508   6.685  18.267  10.079 -0.2303 -0.3234 -0.0057
21325W        W37509   1.589   5.349  12.848 -0.0219  0.1800 -0.1573
21326W        W37510   5.601  16.776   5.562 -0.2209 -0.1559 -0.0084
21327W        W37511   9.418  10.708   0.245  0.0171  0.0976 -0.1223
21328W        W37512  14.175   8.729  13.855  0.0277 -0.2124  0.3473
21329W        W37513  16.184   6.894  12.657 -0.1828 -0.1872 -0.1270
21330W        W37514  16.564   2.298  12.178  0.3306  0.0786  0.2902
21331W        W37515  14.982  12.687   2.782  0.5656 -0.1796  0.2388
21332W        W37516   1.942   7.278   9.853 -0.0722  0.0122  0.0608
21333W        W37517  19.218  18.456   3.437  0.2697  0.0171 -0.0189
21334W        W37518   8.214  17.078  14.831 -0.1405 -0.1907 -0.2596
21335W        W37519   1.618  19.031  13.601 -0.0784  0.0596 -0.0504
21336W        W37520   2.746  11.653   1.126 -0.3104  0.0537  0.2387
21337W        W37521  15.923  13.109   1.940 -0.0274 -0.0332 -0.1174
21338W        W37522   2.195   9.749   1.373 -0.3305  0.0742  0.1110
21339W        W37523   8.296   6.220  12.461 -0.4354  0.2224  0.0216
21340W        W37524  13.722  18.355   1.804 -0.0474  0.0907  0.0763
21341W        W37525  18.738  13.072   0.479  0.2273 -0.1149 -0.0074
21342W        W37526  14.814   0.761   5.306 -0.0566  0.0928 -0.0836
21343W        W37527   1.412   5.684   3.113 -0.0172  0.3126 -0.0417
21344W        W37528  12.175  13.351  14.496 -0.1523  0.0538  0.2443
21345W        W37529  13.713  18.798   2.017  0.1654  0.2853  0.1276
21346W        W37530   6.645  16.247   3.688  0.0098  0.1450 -0.0493
21347W        W37531   9.750   7.334   2.571 -0.0515  0.0400  0.2307
21348W        W37532  16.252   6.284   1.853  0.1934 -0.0243 -0.0391
21349W        W37533  17.684  16.972   4.920 -0.3590  0.3829 -0.2058
21350W        W37534   1.859   9.639   5.025 -0.2553 -0.2113 -0.4424
21351W        W37535  18.710  13.408  14.968  0.1974 -0.2691  0.1237
21352W        W37536  15.380  12.867  12.713  0.1097  0.0316  0.0473
21353W        W37537   2.046  16.633  13.807  0.2497  0.1540  0.4919
21354W        W37538   9.431  15.376  14.602  0.0153 -0.1485 -0.1681
21355W        W37539  10.472  16.563  12.494  0.2273 -0.0820  0.4514
21356W        W37540   1.706  11.345   2.009  0.3945  0.0180 -0.0346
21357W        W37541   9.370  10.907  13.713 -0.3755 -0.0675  0.1613
21358W        W37542  16.821  11.731   4.244 -0.1004  0.3100  0.2844
21359W        W37543   9.843   8.770  14.669  0.2239 -0.3727  0.1917
21360W        W37544  18.937   5.007  14.097  0.4719  0.1205  0.0599
21361W        W37545   8.106  14.238   4.444  0.2257 -0.1508 -0.0423
21362W        W37546  16.999   7.850  14.362  0.0837  0.0319  0.0600
21363W        W37547  12.677   4.965  13.817  0.1666  0.2046 -0.0966
21364W        W37548  18.736  16.624   4.194  0.0712 -0.0392 -0.2447
21365W        W37549   2.697   3.947   3.414  0.0874 -0.0780 -0.1985
21366W        W37550   2.909  15.605   2.809  0.3550 -0.0954 -0.0487
21367W        W37551  18.746   3.517  10.762 -0.1376  0.5472 -0.1204
21368W        W37552   7.844   2.540   0.966 -0.1965  0.0911  0.0456
21369W        W37553   8.444   2.335  13.068 -0.1310  0.1084 -0.1712
21370W        W37554   3.114   0.328   2.860 -0.3392  0.1145 -0.1336
21371W        W37555   7.174  11.932  11.284 -0.0557  0.0279 -0.0773
21372W        W37556  11.610  16.925   4.707 -0.3720 -0.4237 -0.0758
21373W        W37557   0.187   0.559  11.622 -0.1272  0.0547  0.0590
21374W        W37558  14.900  13.828  12.343  0.0495 -0.2488 -0.2666
21375W        W37559   6.364  10.420   0.597 -0.3400 -0.3566 -0.0118
21376W        W37560  11.542  18.892  12.369 -0.1527  0.1816  0.1685
21377W        W37561  16.294   1.021  13.418 -0.0919 -0.1247  0.0052
21378W        W37562   1.793  14.685   3.992 -0.0716  0.1674 -0.3358
21379W        W37563   2.305  11.130  13.921 -0.0860  0.0278  0.1678
21380W        W37564  13.959   1.574   2.924 -0.2585 -0.3433 -0.1709
21381W        W37565  16.719  11.091   0.254  0.2135 -0.1216 -0.0169
21382W        W37566   6.359   8.455  13.839  0.2655  0.0030  0.1057
21383W        W37567  15.779   0.968   1.418 -0.1002 -0.0827  0.0997
21384W        W37568  16.952  17.303   4.549 -0.0445 -0.1115 -0.1758
21385W        W37569   1.461  17.765  12.322  0.0518 -0.0492  0.0469
21386W        W37570   0.644   3.004   1.891  0.0644  0.0361 -0.2254
21387W        W37571  12.901  14.560   4.997 -0.0839  0.0833 -0.2455
21388W        W37572   5.129   2.255   2.833  0.1229  0.0174  0.1024
21389W        W37573  11.399   5.529  12.360  0.1023 -0.2350 -0.0581
21390W        W37574   1.217   2.067  12.238 -0.2049  0.0141 -0.1271
21391W        W37575  12.396  19.349   2.774  0.0403 -0.3467  0.0547
21392W        W37576   4.686  18.916   4.788 -0.1658 -0.1148 -0.0715
21393W        W37577  11.448   0.035  14.460  0.0317 -0.0571  0.1369
21394W        W37578   3.865  13.395  14.878 -0.3928 -0.3156 -0.3804
21395W        W37579  19.270  19.226   0.026 -0.1060  0.0128  0.0204
21396W        W37580  11.022  16.113   1.629  0.1961 -0.1000  0.0733
21397W        W37581  12.411   1.797   0.142 -0.1078 -0.4353  0.0580
21398W        W37582   7.882  11.988   2.105  0.0556  0.1852  0.2346
21399W        W37583   0.450   0.078   3.775 -0.1891 -0.3396  0.4069
21400W        W37584  17.883   0.380   0.895 -0.0525  0.3571  0.0959
21401W        W37585  12.988  11.673   0.829  0.0656 -0.0229 -0.3741
21402W        W37586   9.164  19.138   2.648  0.6571  0.0921  0.0214
21403W        W37587  12.683  13.771  14.275 -0.1762  0.1389  0.0001
21404W        W37588  18.429  14.794   2.008  0.0699 -0.0865 -0.2926
21405W        W37589   6.657  13.923  12.564 -0.2488 -0.2454 -0.0660
21406W        W37590   8.778  11.505   2.516 -0.1856 -0.0628 -0.0732
21407W        W37591  15.040   2.456  10.000  0.2374 -0.2718  0.0015
21408W        W37592  16.150   9.646  11.775  0.1129 -0.2371 -0.2242
21409W        W37593  17.246   6.415   1.637 -0.1291  0.3359  0.1769
21410W        W37594  12.690  16.357   2.754 -0.1232  0.1496  0.4817
21411W        W37595   3.294   3.321   2.848 -0.0132  0.0245 -0.1103
21412W        W37596  13.635  15.511  14.938 -0.2588 -0.0489 -0.0592
21413W        W37597   7.432   9.284  11.973 -0.2246 -0.1954  0.0558
21414W        W37598  14.074   7.301   0.058  0.0120  0.2912  0.0140
21415W        W37599   5.209  14.047  14.548  0.1823 -0.1463  0.0359
21416W        W37600  16.903   5.068  10.553  0.1636 -0.0380 -0.1557
21417W        W37601  10.840   8.251  14.026  0.2337  0.1604 -0.0261
21418W        W37602  17.497   6.030  14.557  0.1306 -0.5512 -0.0089
21419W        W37603   0.575  18.562   4.552  0.0442 -0.4370  0.3055
21420W        W37604   0.971   9.190  11.713  0.2875  0.0248  0.3076
21421W        W37605   9.784  15.752   5.527  0.2969 -0.0726 -0.1888
21422W        W37606  10.161  10.176  11.920 -0.2029  0.3179 -0.2389
21423W        W37607  15.792   1.371   1.700 -0.3066  0.2201 -0.0160
21424W        W37608  16.994  12.774  12.213  0.1939  0.0711 -0.6281
21425W        W37609   1.843   3.048   9.514  0.1022 -0.0955  0.0831
21426W        W37610   4.533   1.400  12.193  0.1166  0.3609 -0.0227
21427W        W37611  14.750   5.594  10.607  0.0155  0.3063  0.2243
21428W        W37612   1.508   0.934   1.792  0.0866 -0.2550 -0.0752
21429W        W37613   7.680  16.403  12.109 -0.2992 -0.0971  0.1287
21430W        W37614  14.575   5.111   0.412  0.0465  0.3837 -0.1521
21431W        W37615   6.483   4.136  13.029  0.0777  0.0173 -0.0086
21432W        W37616   8.754  15.273  11.406  0.0107 -0.0866 -0.0420
21433W        W37617   3.630   1.229   1.688  0.1436 -0.0966 -0.3131
21434W        W37618   8.256   5.357  13.181 -0.0973 -0.1190  0.0216
21435W        W37619  14.909  15.196   5.120 -0.1350  0.0892  0.0676
21436W        W37620  12.452  19.306  12.414  0.0657  0.3872 -0.1212
21437W        W37621   2.762  11.667  10.957 -0.0084 -0.2241 -0.0665
21438W        W37622  15.588   7.385   2.784 -0.0989  0.1675 -0.0247
21439W        W37623   1.311   2.770  10.139  0.0539  0.2720  0.2218
21440W        W37624  14.088  13.955   1.797 -0.0799  0.0177  0.2188
21441W        W37625  17.298   7.047   1.602 -0.0013 -0.3782 -0.1735
21442W        W37626  19.376   1.660  10.887 -0.0877  0.3387  0.3580
21443W        W37627  11.443  14.621  12.335 -0.0688 -0.1927  0.1939
21444W        W37628  15.096  16.089   4.842  0.0938  0.0701 -0.2132
21445W        W37629   9.874  12.669  14.492 -0.1378 -0.0366  0.2579
21446W        W37630  15.601   8.995  12.760  0.0159  0.0160 -0.1431
21447W        W37631  14.021  17.446  10.938  0.0439 -0.1855 -0.2689
21448W        W37632  11.326  18.330   1.225 -0.0027  0.2211  0.2207
21449W        W37633   8.047   1.735  14.815  0.4230  0.1244 -0.1945
21450W        W37634  13.835  12.263   1.794  0.1506 -0.0120  0.0963
21451W        W37635   1.717   8.003   2.697 -0.2055 -0.0308 -0.2695
21452W        W37636  17.767   2.985   4.621  0.1832  0.0994  0.0118
21453W        W37637   4.096   6.273  14.790  0.0166  0.1548 -0.0358
21454W        W37638  13.238  12.854   4.034 -0.1041  0.0455 -0.0840
21455W        W37639   6.981   4.938   0.145  0.2448  0.1275  0.2627
21456W        W37640   4.712   1.588  13.488 -0.0402 -0.0280  0.0009
21457W        W37641   5.039  13.634   9.213  0.2468  0.0957  0.1356
21458W        W37642  16.332   5.907   2.685 -0.0426 -0.0410 -0.2339
21459W        W37643   3.900   2.047   3.989 -0.1851 -0.0049 -0.0236
21460W        W37644  11.374  12.649   5.024  0.0155  0.1178 -0.1554
21461W        W37645   8.141  16.617   4.152  0.0540 -0.1648  0.1960
21462W        W37646   8.129   7.971   2.498  0.3374 -0.1867 -0.0173
21463W        W37647  12.252  18.234  13.156  0.0557 -0.1132  0.2306
21464W        W37648   8.484   2.627   3.541 -0.0674  0.3901 -0.0334
21465W        W37649  15.907  16.502   0.366  0.0390  0.3229  0.1446
21466W        W37650  13.017  13.549  11.685 -0.0909 -0.0567 -0.1568
21467W        W37651   0.730  18.786   1.785  0.2687  0.0662  0.1485
21468W        W37652   9.824   9.208   2.795  0.2968  0.1507  0.0385
21469W        W37653  18.298  12.455  12.936 -0.1309 -0.3774 -0.1081
21470W        W37654  18.032   4.017  13.089 -0.1171 -0.1472  0.1611
21471W        W37655   4.536   3.377  13.356 -0.3205 -0.0987  0.1138
21472W        W37656  16.174  17.680  13.606 -0.1856  0.3688 -0.3317
21473W        W37657  11.278  18.540   0.628 -0.0578 -0.1494 -0.2142
21474W        W37658  16.611  17.419  13.610  0.1326  0.1219  0.0032
21475W        W37659  12.699   6.042   4.436  0.0373  0.0011 -0.0296
21476W        W37660   9.601   5.154  12.524  0.1667  0.1033  0.3093
21477W        W37661  10.199   4.246  12.278 -0.1094  0.2408  0.1996
21478W        W37662   4.125  10.944  10.759 -0.3338  0.3384 -0.1367
21479W        W37663   6.976   9.051  13.899 -0.0619  0.0211  0.0203
21480W        W37664  16.981   8.741  10.996 -0.1960  0.2423  0.0700
21481W        W37665   1.948   5.880  11.555  0.1684  0.1417  0.3314
21482W        W37666   1.782  11.544   4.576 -0.1955 -0.2799  0.3945
21483W        W37667  11.808  13.805  14.075 -0.1203  0.3508  0.0999
21484W        W37668   0.887  14.037  10.687 -0.0836  0.1919 -0.0798
21485W        W37669   3.201   6.252  14.317 -0.4344  0.0082 -0.0078
21486W        W37670  15.588   0.273   2.597 -0.2615 -0.1924  0.0951
21487W        W37671   0.688  13.850   1.859 -0.0256  0.1513  0.2041
21488W        W37672  12.257   3.714   2.625 -0.2512  0.0898 -0.2849
21489W        W37673  10.406  16.632  14.635  0.2137  0.1719 -0.1400
21490W        W37674  12.674  18.681  10.068 -0.2698 -0.0481  0.1864
21491W        W37675   8.881   0.059  13.782 -0.3345 -0.1168  0.2704
21492W        W37676  11.829   5.302  12.469 -0.2317  0.1123 -0.0495
21493W        W37677   0.879  13.199  11.179 -0.1317 -0.0159  0.1313
21494W        W37678   8.321   0.842   2.092  0.1063  0.3044  0.0424
21495W        W37679  10.404   3.900   0.656  0.3689  0.3194  0.1177
21496W        W37680   8.258   1.510   0.758 -0.1373  0.0061 -0.0725
21497W        W37681  17.008   5.092  14.564  0.0356 -0.1236  0.1135
21498W        W37682   2.723   8.560   3.235  0.1207 -0.0127 -0.0124
21499W        W37683   1.191   9.810   5.550 -0.3011  0.0759 -0.0200
21500W        W37684   5.193  17.570   5.047 -0.3082  0.1311 -0.4693
21501W        W37685  16.372   3.286  12.687 -0.1669 -0.2418 -0.2310
21502W        W37686  12.620   8.520  10.614 -0.2831  0.0401  0.0641
21503W        W37687  10.429  13.444  11.638 -0.2142 -0.1316  0.0752
21504W        W37688  12.828  18.597   1.686 -0.0629  0.0662 -0.3542
21505W        W37689  11.750  10.023   1.443  0.0584  0.2226 -0.1128
21506W        W37690   1.809   3.951   3.244  0.0031 -0.0531 -0.1640
21507W        W37691   9.572   5.655   0.481 -0.0473  0.0257  0.1235
21508W        W37692   3.189  10.015  13.144  0.4378 -0.2385 -0.0793
21509W        W37693   1.472  16.034   4.607 -0.1277 -0.1308  0.1732
21510W        W37694  15.350  10.953  13.903  0.0578  0.0136  0.2347
21511W        W37695  14.084   6.988  13.107 -0.2289  0.0879 -0.4522
21512W        W37696   8.738  10.131   3.614 -0.2081  0.0679 -0.0906
21513W        W37697  16.473  16.019   0.939 -0.0415 -0.0808 -0.0479
21514W        W37698   9.616   0.460   2.557 -0.3140  0.1323  0.1626
21515W        W37699   2.216  16.820  12.828 -0.0355 -0.3172  0.2915
21516W        W37700  15.364   0.912   1.772  0.1050  0.1857  0.4474
21517W        W37701   9.689  11.569  14.321  0.2730 -0.0097  0.0046
21518W        W37702  12.883  16.657   1.721 -0.2380 -0.1445 -0.3148
21519W        W37703  14.957   8.513  14.766 -0.0956 -0.2933  0.0530
21520W        W37704   0.866   5.695  10.679 -0.1275 -0.0683 -0.0815
21521W        W37705   4.171  12.619   1.000  0.0104 -0.1978 -0.0027
21522W        W37706  17.863  18.316  14.607 -0.1264 -0.3289  0.0269
21523W        W37707  18.203  14.956   3.496 -0.0669  0.1193 -0.0584
21524W        W37708  18.284   2.569  13.927  0.1982 -0.1558  0.1309
21525W        W37709  14.984   3.217  13.360 -0.0934  0.0882 -0.2521
21526W        W37710   5.187   7.305  13.920 -0.0515  0.1763  0.2091
21527W        W37711  11.965   0.851   3.063  0.0704  0.1679  0.2959
21528W        W37712  13.621   4.041   1.079 -0.2047  0.0784 -0.2066
21529W        W37713   3.832  18.877  11.242  0.0101  0.3138  0.0724
21530W        W37714   9.133  18.388   2.441 -0.3888 -0.0151 -0.0779
21531W        W37715   6.304   2.037   3.468  0.1367 -0.2556 -0.4090
21532W        W37716   4.473   2.414  12.576 -0.1958  0.1300  0.4667
21533W        W37717  12.891  11.767   0.267 -0.0157  0.1090 -0.4132
21534W        W37718   6.664  18.176  11.604  0.1191  0.0896 -0.0124
21535W        W37719  11.281   5.315   1.603  0.1926  0.2637  0.2172
21536W        W37720  14.588   0.662   2.757 -0.2072  0.1465 -0.1226
21537W        W37721  15.996  10.989  13.337 -0.0416  0.1435  0.1498
21538W        W37722   8.172  16.461   2.412  0.2108 -0.2881  0.1339
21539W        W37723  13.998   3.876   1.857  0.1682  0.2529  0.0758
21540W        W37724  14.751   7.787  12.343 -0.3017 -0.0218 -0.0566
21541W        W37725  15.742  16.048  12.146  0.1987  0.0655 -0.1146
21542W        W37726   4.621  12.260   5.009  0.3080 -0.0922  0.3985
21543W        W37727  17.213  15.818   4.789 -0.1102 -0.0645 -0.1754
21544W        W37728   6.852   8.358   5.127 -0.3401  0.0113  0.0874
21545W        W37729  11.511   6.038   2.808 -0.1733  0.2942  0.0812
21546W        W37730   2.633   5.467   2.676  0.0707  0.0543 -0.2621
21547W        W37731   9.074   3.677  11.961 -0.1044  0.1191 -0.0071
21548W        W37732  15.577   4.570   2.779  0.1039 -0.2360 -0.0274
21549W        W37733  15.428   9.655   1.111  0.4685 -0.1193  0.2202
21550W        W37734  10.021   9.038   4.332 -0.0194 -0.1980  0.0099
21551W        W37735  11.593  15.139  11.505  0.0892 -0.1067 -0.0171
21552W        W37736  12.448   2.499   1.984  0.0482  0.1918  0.1348
21553W        W37737   1.862   4.037   1.552  0.2898  0.0395  0.0841
21554W        W37738  11.928   3.176   5.279 -0.0683 -0.0977 -0.2312
21555W        W37739   5.595   1.299  13.741  0.1476 -0.2718 -0.0122
21556W        W37740   2.693   2.126  12.894  0.0401  0.1083 -0.1647
21557W        W37741   7.836  19.174   2.102  0.0827  0.1226  0.2032
21558W        W37742  15.401   6.626   0.502 -0.1725 -0.3446 -0.1742
21559W        W37743   0.234  19.038   2.498  0.0419 -0.0006  0.0247
21560W        W37744   1.814  12.491  14.827  0.0270  0.1930 -0.1458
21561W        W37745  18.307  12.727   2.703  0.2232 -0.1695  0.2280
21562W        W37746   8.976   6.723  12.536  0.1914  0.0000  0.0556
21563W        W37747   6.280   8.113   3.730 -0.3134  0.0381  0.0861
21564W        W37748   7.496   8.427   1.721 -0.3021  0.0067  0.1652
21565W        W37749   3.980  16.587  12.351 -0.0903  0.1325  0.0370
21566W        W37750   6.378  18.808   1.253  0.0034  0.2651 -0.0946
21567W        W37751  18.540   7.554  12.703 -0.2229  0.2121  0.4099
21568W        W37752   3.552   9.183   2.888  0.1352  0.2721 -0.1608
21569W        W37753  10.160  19.219  13.673 -0.2326 -0.1101  0.1204
21570W        W37754  15.652   3.084   0.663  0.0501 -0.0091 -0.1878
21571W        W37755   8.754  17.974   3.633 -0.0226 -0.1102 -0.1264
21572W        W37756  11.360   7.620  13.611  0.1669 -0.0201  0.0516
21573W        W37757   0.585  11.177  13.702  0.1223  0.1300  0.1462
21574W        W37758   6.341  14.585   0.178  0.1368  0.1475  0.2562
21575W        W37759   3.696  19.175  10.860  0.3315  0.0945  0.1119
21576W        W37760   5.448   1.236   4.196 -0.1408  0.3851  0.2761
21577W        W37761   9.721   9.928  11.982 -0.2693  0.1207  0.0695
21578W        W37762   3.136  13.683  10.094 -0.0799  0.1528  0.0433
21579W        W37763   5.986   2.098  11.680  0.0016  0.1785 -0.0638
21580W        W37764  17.599  15.179   0.960  0.1858 -0.2418 -0.2885
21581W        W37765   4.165  18.258   4.267 -0.1818  0.0793  0.3520
21582W        W37766  10.922  11.476   1.920 -0.2858 -0.1617 -0.2976
21583W        W37767  17.542   5.284   4.027 -0.0534  0.0705 -0.4636
21584W        W37768   5.267  18.568  13.495 -0.0829  0.1041  0.2178
21585W        W37769   7.699  14.885  13.521 -0.0194  0.1009  0.0850
21586W        W37770  12.636   3.442   9.970  0.3807 -0.1308 -0.1653
21587W        W37771   1.080  15.885  13.196 -0.1840  0.1775 -0.0621
21588W        W37772  11.008   8.838  10.278  0.1808 -0.1195  0.2876
21589W        W37773   3.012   9.299  11.337 -0.1864 -0.1509 -0.1636
21590W        W37774  14.017  14.265   0.494  0.1742 -0.4073 -0.3026
21591W        W37775  13.596  19.265   1.786  0.2219 -0.0079  0.0874
21592W        W37776   8.107   8.124  14.908  0.0511 -0.1258  0.2631
21593W        W37777  18.569  16.594  11.989  0.0134  0.1093  0.0121
21594W        W37778  19.381   3.777  14.886 -0.1408  0.0747  0.3036
21595W        W37779   9.035  15.584   2.946  0.2800 -0.3280  0.3671
21596W        W37780  19.251  16.031  13.425 -0.2787 -0.4805  0.1772
21597W        W37781  13.894   1.006  12.967  0.1455 -0.1250  0.1854
21598W        W37782  18.479   7.476  13.641 -0.2112  0.0439 -0.0483
21599W        W37783   3.185   7.727   2.952  0.0254 -0.5154  0.2160
21600W        W37784  11.803   0.350   3.264  0.0445  0.0820 -0.0162
21601W        W37785  13.968   1.525  13.892 -0.1253  0.0333  0.1285
21602W        W37786  19.352   2.034  11.179  0.2995 -0.0045  0.1147
21603W        W37787   1.690  11.835   1.666 -0.1575 -0.1142 -0.2255
21604W        W37788   3.604   0.400  12.995 -0.1177 -0.1246 -0.1783
21605W        W37789   3.597   0.802  11.102  0.0552  0.2505 -0.1620
21606W        W37790   1.492   1.041  11.175  0.1634 -0.2367  0.2067
21607W        W37791  12.491   9.243   3.835 -0.1363 -0.2826  0.0908
21608W        W37792   6.811   6.556   9.710 -0.2902  0.1824 -0.1529
21609W        W37793   6.967  17.576   0.468 -0.4203  0.1514 -0.3589
21610W        W37794   3.894   5.997   1.980 -0.2458  0.3342 -0.0707
21611W        W37795   5.420  17.434  12.547 -0.3508 -0.2892 -0.0522
21612W        W37796  11.931   4.691  14.466 -0.3650 -0.0970  0.0697
21613W        W37797   0.624   8.997   0.399  0.0678  0.2478 -0.2313
21614W        W37798  19.035  12.033  11.785  0.2149 -0.1704 -0.0772
21615W        W37799   9.277   7.847   1.700 -0.0280  0.2151  0.0189
21616W        W37800  19.318  12.834   4.075  0.0249  0.3240  0.0599
21617W        W37801   3.981   5.803  14.613  0.1628  0.2517  0.0491
21618W        W37802   5.449  12.486  12.197  0.0462 -0.0076  0.1994
21619W        W37803  12.763  14.669  11.264 -0.0773  0.0455  0.1613
21620W        W37804  11.483  18.489   3.651  0.0351 -0.2084  0.1278
21621W        W37805  13.577   6.484   4.089  0.1696  0.2457 -0.1464
21622W        W37806  11.232   7.591   3.366  0.4029 -0.1698 -0.0586
21623W        W37807  14.076  13.569   4.709  0.1775  0.0291 -0.2132
21624W        W37808  11.933   2.959   4.241  0.0923 -0.1484  0.0091
21625W        W37809  12.129  15.619   1.210  0.1814 -0.0810  0.0873
21626W        W37810  17.394  17.045  13.734 -0.3240 -0.0917 -0.0046
21627W        W37811   0.889  13.406   3.314 -0.0461  0.1066 -0.1755
21628W        W37812   0.683   1.522  10.830  0.0014 -0.3158 -0.1192
21629W        W37813  11.119   1.391   1.566  0.1007 -0.2712 -0.3729
21630W        W37814   1.682  12.168   0.303 -0.2481 -0.0948 -0.3136
21631W        W37815   8.643  10.093   0.401  0.1546  0.1752 -0.1569
21632W        W37816  17.428   7.213   0.667  0.6716  0.0770  0.0330
21633W        W37817  19.112   2.132  11.681  0.0985  0.1018  0.0990
21634W        W37818   7.665   3.963   0.793 -0.0688  0.1021  0.0747
21635W        W37819   3.024   5.907  12.437 -0.0703 -0.2698 -0.1153
21636W        W37820   2.517  11.917   2.972 -0.2170 -0.0135 -0.2701
21637W        W37821  13.731   8.374  10.773  0.2427 -0.0830 -0.3225
21638W        W37822  16.967  13.619   5.049 -0.1698  0.1812  0.2317
21639W        W37823   6.647   6.007   4.159  0.1913 -0.3557  0.2779
21640W        W37824  14.267   0.455  14.340  0.3231 -0.0336  0.3214
21641W        W37825   1.508  18.489   2.027 -0.1003  0.1047 -0.0632
21642W        W37826   5.680  17.436   3.802 -0.0329 -0.2782  0.2716
21643W        W37827  17.717   8.465  14.410 -0.5235 -0.0550  0.2441
21644W        W37828   0.109   2.616   3.560  0.0549 -0.2200  0.1637
21645W        W37829  14.346   9.427   0.257  0.0838 -0.2562 -0.1858
21646W        W37830  16.595  11.374  13.370 -0.0074  0.1913 -0.1496
21647W        W37831   4.661   6.340  14.332  0.2630 -0.1900  0.0036
21648W        W37832   1.087  13.559  14.868  0.1628  0.0967  0.0748
21649W        W37833  18.571   9.334  12.943  0.1010 -0.1375 -0.2535
21650W        W37834   5.125  14.108  12.492 -0.1175 -0.0588 -0.1073
21651W        W37835   2.917   8.016  10.792 -0.0303 -0.1808  0.0027
21652W        W37836   1.481   7.663   4.231 -0.0860 -0.1560  0.0446
21653W        W37837  13.411   2.752   4.427 -0.0277 -0.3041  0.0969
21654W        W37838   7.035   9.781  10.554  0.1762 -0.1281 -0.0703
21655W        W37839   2.710   4.401  12.296  0.2489  0.2206  0.2978
21656W        W37840  10.165   4.496   5.088  0.0134 -0.1894 -0.0634
21657W        W37841   3.676   7.943  14.055  0.0548  0.2873  0.0817
21658W        W37842  14.702  11.561  13.752 -0.2429 -0.3566 -0.0188
21659W        W37843  17.409   7.034  14.633  0.0861 -0.2940 -0.2771
21660W        W37844   4.107   7.049   4.241  0.3035 -0.0950  0.2944
21661W        W37845   0.868  17.565   4.367 -0.3218 -0.0886  0.1621
21662W        W37846  11.295  17.574   2.512  0.2700 -0.2239  0.3756
21663W        W37847   5.635  13.050  13.559 -0.1317  0.1690 -0.1541
21664W        W37848  15.112  11.367  11.707  0.0985 -0.0379  0.0876
21665W        W37849   8.297  17.568  10.871  0.0604  0.0764  0.0035
21666W        W37850  18.628   5.327   1.372  0.0535  0.1216  0.1190
21667W        W37851   9.876   4.001   3.814  0.0650 -0.2264  0.1709
21668W        W37852   8.948  13.911   4.224  0.2121  0.0693 -0.1525
21669W        W37853  10.976  10.696  11.163 -0.0035 -0.0707 -0.3026
21670W        W37854  14.744   0.331  14.931  0.3406 -0.0645  0.0070
21671W        W37855  18.015   0.239  13.162  0.0663 -0.4585 -0.1558
21672W        W37856  11.165   1.076  14.375  0.3922  0.1921  0.1321
21673W        W37857  18.765   8.905   2.711  0.1450 -0.1648  0.2225
21674W        W37858  17.761   5.849   0.995  0.1812 -0.0070  0.1054
21675W        W37859   3.850   8.125   3.739  0.1990  0.2077  0.0667
21676W        W37860  18.569   5.786  10.445  0.1839  0.1472 -0.0418
21677W        W37861   4.092  10.207   0.835 -0.3056 -0.2840  0.0718
21678W        W37862   2.596   9.401  11.578  0.0055  0.1597 -0.0238
21679W        W37863   3.844   7.124  11.609  0.1114 -0.1377 -0.4145
21680W        W37864   6.889  18.244   1.508  0.1851  0.2256  0.2237
21681W        W37865  16.943  17.839   3.845 -0.0276  0.4134 -0.1036
21682W        W37866   3.722   8.522  14.180  0.0823  0.1606 -0.0703
21683W        W37867   1.039   6.493   5.044 -0.0180  0.0195  0.2987
21684W        W37868   2.415  16.380  12.565  0.0437 -0.2595  0.3721
21685W        W37869   9.750  10.298   3.777 -0.2633 -0.5437  0.1818
21686W        W37870  15.685  13.062  12.336 -0.0265 -0.3092 -0.1294
21687W        W37871  18.233   3.150   0.330 -0.0501  0.1912 -0.0086
21688W        W37872   6.727  15.454   2.359  0.0848 -0.1624 -0.0557
21689W        W37873  17.979  13.375  14.912 -0.1959 -0.0650  0.4184
21690W        W37874  14.232  14.132  11.358  0.0456 -0.4550  0.0089
21691W        W37875   2.760  10.379  11.729 -0.0565 -0.2850 -0.2783
21692W        W37876   9.154  14.119   3.358  0.1628  0.3108  0.0479
21693W        W37877  14.154  18.995  10.452 -0.2468 -0.0038  0.1435
21694W        W37878   8.067   7.972   1.375 -0.1838  0.0554 -0.2223
21695W        W37879  10.941  13.859   9.795  0.0890  0.1693  0.3618
21696W        W37880  15.720   8.287  10.652 -0.3761 -0.0925  0.0027
21697W        W37881   0.142   9.278   4.967 -0.1357 -0.3344 -0.0510
21698W        W37882   8.240   1.321   0.035  0.2037  0.1145  0.1492
21699W        W37883  18.027   0.440   9.927  0.2726  0.1362 -0.0791
21700W        W37884   6.270  17.532   4.419 -0.1021  0.0993 -0.3033
21701W        W37885  10.297  13.168  12.016 -0.2897  0.1625  0.1769
21702W        W37886   2.011  13.271  11.259 -0.1542  0.1757 -0.0519
21703W        W37887   8.911   8.709  12.043  0.4387 -0.0149  0.0636
21704W        W37888   4.419   3.856   5.024  0.4033  0.3342  0.0733
21705W        W37889   5.619  14.979  12.254  0.2345  0.0522 -0.1076
21706W        W37890   2.613  15.683   3.766 -0.2548  0.0649 -0.4171
21707W        W37891   2.451  11.512   5.232 -0.2806 -0.0768  0.0946
21708W        W37892  12.349   9.606   0.721  0.2031 -0.0186  0.0016
21709W        W37893  11.144   4.531  11.176 -0.0172 -0.5183  0.1575
21710W        W37894   0.590  16.169   4.889 -0.2596  0.2898 -0.1654
21711W        W37895   0.170  17.185   0.602 -0.0869 -0.1319 -0.0765
21712W        W37896  15.675   4.515   0.517 -0.0090  0.1639  0.0543
21713W        W37897  11.600   0.609   4.437  0.0247 -0.0626  0.0513
21714W        W37898   4.808  19.177   3.046 -0.3344  0.3142  0.4777
21715W        W37899  10.335  15.128   0.038  0.1018  0.2053  0.2067
21716W        W37900  15.249  17.494  14.368  0.1347  0.4271  0.1919
21717W        W37901   3.404   6.905  10.478  0.0423  0.1770 -0.3458
21718W        W37902   8.329   4.782  12.059 -0.0825  0.0674 -0.0157
21719W        W37903   2.639   9.695  14.383  0.0045 -0.4919  0.1135
21720W        W37904  17.567  18.393  10.909 -0.1007  0.1465  0.0681
21721W        W37905   7.398   1.634   3.840 -0.2213 -0.1892  0.0577
21722W        W37906  14.044  18.398   0.967  0.0648 -0.0218  0.3135
21723W        W37907  13.693   0.041   3.177  0.1598 -0.0448 -0.1818
21724W        W37908   6.525  13.189   3.569 -0.0474 -0.1476  0.1035
21725W        W37909  16.575  13.853   4.781  0.2271  0.1320 -0.0315
21726W        W37910   4.056  17.325   2.836  0.5229  0.1271  0.1653
21727W        W37911  15.407   2.076   2.533 -0.0138 -0.2632 -0.1848
21728W        W37912  13.572   1.584  10.799  0.0633  0.0237  0.0344
21729W        W37913   3.193   1.319  14.717  0.3639  0.2430  0.2451
21730W        W37914   4.340   3.319  14.650  0.1533  0.2407  0.2876
21731W        W37915  17.601  13.568  13.107 -0.1879  0.0602  0.0893
21732W        W37916  15.479   6.695  12.562  0.0855  0.1556  0.1416
21733W        W37917  15.798   8.826   1.292 -0.0802 -0.4529 -0.0588
21734W        W37918   6.749   4.161  10.968  0.4492  0.2780  0.0669
21735W        W37919  16.464  18.519   2.828  0.2288 -0.1325 -0.0386
21736W        W37920   1.308   6.221  12.212  0.2509  0.0573 -0.3284
21737W        W37921   0.644  12.491  10.771 -0.0333  0.1985 -0.0676
21738W        W37922   2.967  11.112  14.187 -0.0995 -0.1351 -0.3626
21739W        W37923   8.965  10.485  14.490  0.0254 -0.0409 -0.0307
21740W        W37924  15.143  17.288  11.984  0.2295 -0.0437 -0.2138
21741W        W37925   0.504   4.637   2.104 -0.5215 -0.1538 -0.1080
21742W        W37926  15.968   5.020  11.093 -0.5538  0.0880 -0.0003
21743W        W37927  15.592   3.563   0.435  0.1248 -0.1349  0.1153
21744W        W37928   4.507  15.447  12.557 -0.2361 -0.0901 -0.0895
21745W        W37929  12.864   4.068  14.869 -0.3843 -0.0459  0.1196
21746W        W37930   5.627   9.072  13.651  0.1984 -0.0875  0.1031
21747W        W37931  13.080   4.828  14.485 -0.2374  0.0878 -0.0606
21748W        W37932   9.127   1.231   3.972  0.1430 -0.0610  0.1421
21749W        W37933   5.916   1.058  10.024 -0.0496  0.0114  0.0334
21750W        W37934  11.256   5.299   9.849  0.1143 -0.2451 -0.0212
21751W        W37935  14.174  13.395  14.354 -0.0578  0.3569  0.2137
21752W        W37936   5.741   4.869  10.996  0.1644 -0.1165 -0.1774
21753W        W37937   9.849   2.683   4.743  0.1100 -0.0048 -0.3189
21754W        W37938   7.175  16.620   0.614  0.0116 -0.4559 -0.3851
21755W        W37939   0.281   1.582  11.304  0.1074  0.2514  0.0889
21756W        W37940  13.811  18.826  13.917 -0.1276  0.2136 -0.4163
21757W        W37941   8.578  10.570   2.380 -0.0518 -0.0843 -0.1314
21758W        W37942   9.553   9.854   3.365  0.1601  0.2095  0.0979
21759W        W37943   9.976  13.056  13.111 -0.0683  0.0423 -0.0486
21760W        W37944   6.958   3.323   3.433  0.2242  0.0232  0.1883
21761W        W37945   2.610   5.823   2.264  0.2654  0.2079  0.1451
21762W        W37946  18.770   6.494  12.088  0.0917  0.1045  0.1652
21763W        W37947  11.711  10.796   0.855  0.1428 -0.0552  0.0016
21764W        W37948  13.739   8.827   3.139 -0.2044 -0.1383 -0.0030
21765W        W37949  18.948   4.858  13.098  0.0590  0.0511 -0.3789
21766W        W37950  13.919   2.896   0.450  0.0280  0.1139 -0.0423
21767W        W37951   7.815   5.495  13.659 -0.1040  0.3466  0.1153
21768W        W37952   4.728   5.406  14.637 -0.0663  0.1396  0.1405
21769W        W37953   9.292   8.894   4.925  0.2893 -0.0088  0.1325
21770W        W37954  16.679   3.525  14.050 -0.0130 -0.0669  0.1334
21771W        W37955  13.670  11.481  11.344 -0.0724 -0.4231  0.3103
21772W        W37956   5.006   1.515  14.250  0.1385 -0.1135 -0.2447
21773W        W37957  13.210   0.049   3.140  0.0386  0.3481  0.5912
21774W        W37958  16.437   1.326  10.710  0.0552 -0.3080  0.3584
21775W        W37959   6.167  11.962   2.151 -0.1922  0.2440  0.3621
21776W        W37960  18.450  18.238   1.989  0.3774  0.2853  0.0635
21777W        W37961  13.409   2.308  13.616 -0.2347  0.1450  0.1999
21778W        W37962   7.021  13.369  11.296 -0.0788 -0.1043  0.0279
21779W        W37963  17.617  11.067   0.629  0.2290 -0.0247  0.0258
21780W        W37964  10.424  19.024   2.480  0.0128  0.1149 -0.1666
21781W        W37965   2.896   3.960  14.574 -0.1068 -0.0058 -0.2561
21782W        W37966   5.720   8.257   0.446 -0.1024  0.2570 -0.1806
21783W        W37967  10.968   5.600   0.497 -0.1478 -0.3533  0.1462
21784W        W37968  10.024  17.326   2.122 -0.0088  0.2597  0.1471
21785W        W37969  11.519   6.015   3.395  0.0910  0.4618 -0.2480
21786W        W37970   0.365   4.169   3.745  0.1588  0.0075 -0.0098
21787W        W37971   0.731  17.113   4.067  0.1018 -0.1891  0.1454
21788W        W37972  17.836  10.912  11.285  0.0767  0.0135  0.1469
21789W        W37973  16.763   8.683   4.836  0.1465 -0.1697  0.0927
21790W        W37974   1.029   6.882   2.916  0.1240  0.0710 -0.0319
21791W        W37975  19.258  11.399  13.651  0.0118 -0.0179  0.2103
21792W        W37976  12.510   2.387  12.212 -0.0174 -0.1575 -0.1580
21793W        W37977   3.688   8.507   1.192  0.1137 -0.2028 -0.0829
21794W        W37978  13.167   5.716  12.700  0.1260 -0.2661  0.0780
21795W        W37979   5.581   6.941   4.763 -0.4258 -0.1767  0.0864
21796W        W37980   9.002   4.021   3.141 -0.0166 -0.0824  0.1414
21797W        W37981   5.859  17.187  12.725  0.1338  0.0560 -0.2855
21798W        W37982   0.596   2.569   2.103 -0.2163  0.2845  0.5582
21799W        W37983  19.124  11.960  14.803  0.1105  0.1039  0.2074
21800W        W37984   0.294   3.339   3.117  0.4241  0.0670  0.1921
21801W        W37985   9.093   5.573   1.470 -0.2883 -0.1750  0.0758
21802W        W37986   8.080  17.267  12.118  0.0079 -0.2468  0.0264
21803W        W37987   3.711  10.429   1.139  0.2731 -0.1060  0.1511
21804W        W37988   6.452  12.154  10.667  0.0346 -0.0048  0.3173
21805W        W37989  12.945   0.971   4.501 -0.0600 -0.2843 -0.0403
21806W        W37990  16.534  10.078   2.589  0.0580 -0.0130 -0.0483
21807W        W37991   4.870   8.894   2.840  0.2077 -0.1993  0.1620
21808W        W37992  18.841   0.840   4.687 -0.2585  0.2061  0.0690
21809W        W37993  18.698  17.800   5.060  0.0993 -0.0430 -0.1002
21810W        W37994   7.643  16.516   0.922 -0.0628 -0.0095 -0.0206
21811W        W37995  15.098  17.430   0.657 -0.0296  0.1948  0.3194
21812W        W37996  11.303   1.305  10.631 -0.2967 -0.0408 -0.0169
21813W        W37997  18.427  17.097   3.730 -0.1754 -0.1077  0.2757
21814W        W37998   3.223  12.752   4.557 -0.1304  0.0393 -0.0747
21815W        W37999   9.840   6.213   0.409 -0.0017 -0.3122 -0.1450
21816W        W38000   4.402   7.256   3.321 -0.1514 -0.0613  0.0499
21817W        W38001  14.911   5.881   0.472 -0.1021 -0.0391 -0.2153
21818W        W38002  17.077   4.217  11.840 -0.1649  0.0926  0.0486
21819W        W38003   6.838   7.222  11.378 -0.0763  0.2863  0.1961
21820W        W38004  17.797   7.544  12.328  0.0664  0.1536 -0.1748
21821W        W38005  17.698  17.676  13.172 -0.0599 -0.0270  0.1258
21822W        W38006   8.283   7.437   2.486  0.0452 -0.0880  0.3016
21823W        W38007  11.203   4.171  11.516 -0.0817 -0.1500 -0.1364
21824W        W38008  16.594   7.490  13.622  0.0592 -0.1672  0.3037
21825W        W38009   0.109  13.216  11.239  0.0150  0.0826 -0.3187
21826W        W38010   2.371   4.819  11.430  0.1199  0.0235  0.2045
21827W        W38011  16.101  14.079  12.201 -0.3182  0.4059  0.2546
21828W        W38012   3.193  11.302   2.505  0.1823 -0.1978 -0.0436
21829W        W38013   8.098  12.050  14.807 -0.1518  0.1545  0.0913
21830W        W38014  11.205  17.845   1.195 -0.3057  0.1237 -0.0404
21831W        W38015   6.079  11.051   0.047 -0.1509 -0.0566 -0.0286
21832W        W38016  19.203  18.889   5.666  0.1023 -0.1035 -0.2061
21833W        W38017  16.237  11.839  14.188 -0.0286 -0.1261  0.0122
21834W        W38018  10.627  10.358   3.760  0.1464  0.2154 -0.0368
21835W        W38019   1.282   1.720   2.005  0.2221 -0.4274  0.4485
21836W        W38020   4.986   2.034   0.682 -0.0684 -0.0830  0.0238
21837W        W38021  11.371  17.901   4.720  0.0524 -0.2560 -0.1213
21838W        W38022  12.402   0.517  11.963  0.4108 -0.0085 -0.0727
21839W        W38023   7.209   8.872  11.737  0.3078  0.0618 -0.6794
21840W        W38024  18.748  16.106  13.427  0.0269 -0.1020 -0.1045
21841W        W38025   0.864  14.364  13.879 -0.2610 -0.1278 -0.2962
21842W        W38026  17.471   2.015   2.486  0.2271 -0.1001 -0.0928
21843W        W38027   2.191   5.006  14.171  0.2669 -0.2688 -0.2638
21844W        W38028   8.336   8.416  12.800 -0.0983  0.0566 -0.1743
21845W        W38029  13.209  11.023  13.604 -0.1295 -0.0354  0.0860
21846W        W38030  18.677   4.506  10.517 -0.2860 -0.1953 -0.1772
21847W        W38031   2.733   5.832  11.126 -0.0473 -0.0899  0.1262
21848W        W38032   9.615  12.736  13.283  0.2039  0.1285 -0.0316
21849W        W38033  11.653  17.798   0.510 -0.2231 -0.1087  0.1444
21850W        W38034   5.501   5.795   1.816 -0.2521 -0.4094  0.0794
21851W        W38035  17.933   0.371   4.297 -0.2030  0.0131  0.0543
21852W        W38036   0.510  10.890  12.092  0.0606  0.2560 -0.2565
21853W        W38037  14.348  10.719   1.894 -0.1061  0.0969  0.2506
21854W        W38038  17.257  19.136  13.255  0.4578 -0.1274  0.1778
21855W        W38039  13.352   9.626  12.019  0.1646 -0.0870  0.0950
21856W        W38040  12.216  12.356   0.456  0.1330  0.1665  0.1396
21857W        W38041  17.235   3.556   0.531  0.0296  0.1698  0.1867
21858W        W38042   6.647   5.341  14.445  0.1918  0.0820 -0.1014
21859W        W38043  14.517  14.032  12.052  0.3223  0.1683  0.0508
21860W        W38044   9.556  15.905  11.113 -0.3586 -0.0990  0.0750
21861W        W38045   8.156  10.874   2.609  0.1063  0.3693 -0.1371
21862W        W38046   9.802   3.717   3.383  0.0920  0.3659 -0.2036
21863W        W38047   4.066  13.434  10.157  0.2269  0.0869  0.1152
21864W        W38048   5.831  18.289   0.752  0.0858  0.0637 -0.1928
21865W        W38049   0.051   6.843  12.579  0.2757 -0.0009  0.3707
21866W        W38050  15.726  18.146   1.988  0.2262  0.0197  0.1268
21867W        W38051  17.056   1.302   0.637 -0.1724 -0.1376  0.0428
21868W        W38052  15.830  18.962  11.923 -0.1424  0.2073 -0.0596
21869W        W38053  14.946  11.807  14.136 -0.0485 -0.0056 -0.1929
21870W        W38054   7.628  14.729   0.887 -0.2795  0.0770  0.0725
21871W        W38055  11.603   3.375  13.578  0.1179 -0.3445 -0.1383
21872W        W38056   4.110  13.377  11.295  0.1515 -0.1284 -0.0081
21873W        W38057   5.260  16.713   2.075 -0.0672  0.2296  0.0111
21874W        W38058  12.867   5.738   4.044  0.0740 -0.0852  0.0496
21875W        W38059  11.035   9.908  12.883 -0.1109  0.1891  0.2710
21876W        W38060   8.751  18.104   4.425 -0.1933  0.1983  0.1043
21877W        W38061   0.586   0.995   4.068  0.1750  0.1376  0.3295
21878W        W38062   1.955   8.094  10.977  0.0906 -0.0886  0.1177
21879W        W38063   1.890  12.232  14.398 -0.0325 -0.1212 -0.0910
21880W        W38064   9.228   0.013  14.558 -0.0769  0.1145  0.0960
21881W        W38065   2.095  19.173   0.570  0.2907  0.0820  0.0880
21882W        W38066   4.505  18.817   3.850 -0.0013  0.0641  0.1429
21883W        W38067   0.397  14.085  12.333 -0.1059  0.2178  0.0841
21884W        W38068   8.299  15.635  12.367 -0.1076 -0.2085 -0.1646
21885W        W38069   0.149  17.901  13.641 -0.0758 -0.0941 -0.0876
21886W        W38070  10.301   5.586  10.127 -0.1480  0.2536 -0.3583
21887W        W38071   7.691  10.204   5.107  0.1049 -0.4142 -0.4285
21888W        W38072  19.096   7.427  10.553  0.1271 -0.0253 -0.2217
21889W        W38073   6.429   1.048   2.981 -0.2216  0.2351  0.0344
21890W        W38074  11.886  11.147  12.229  0.1527 -0.2133  0.2293
21891W        W38075   7.027  14.695   2.689  0.1642  0.2974 -0.1701
21892W        W38076  11.226  11.587  11.697  0.0147 -0.1297 -0.0000
21893W        W38077   5.137   9.663  13.037 -0.3167 -0.1551  0.4423
21894W        W38078  12.966   5.272  13.565  0.0412 -0.1426  0.1405
21895W        W38079  15.477   7.034   3.322  0.1785 -0.2713 -0.3977
21896W        W38080  15.398  17.921   2.907  0.0158 -0.0590  0.1360
21897W        W38081  14.064  16.289   5.000  0.1085 -0.2375  0.1109
21898W        W38082   1.417   0.407   3.718  0.0813 -0.0466  0.0916
21899W        W38083   5.038  19.081   0.648  0.0981  0.0635  0.2440
21900W        W38084   4.123  13.328  12.683 -0.0255  0.0335 -0.1326
21901W        W38085  13.146  10.288   1.509 -0.1698  0.1145  0.0083
21902W        W38086  18.499  10.088   2.721  0.0111  0.3878  0.0649
21903W        W38087  12.866   5.798  11.923  0.1575 -0.2624  0.0520
21904W        W38088   2.177   7.840  12.964 -0.2163  0.2705  0.1710
21905W        W38089  10.140   4.142  11.112  0.2223 -0.2008  0.1261
21906W        W38090   2.011   4.293   3.633 -0.3627  0.1744  0.0235
21907W        W38091   2.977  14.636  14.180 -0.0024  0.1078  0.1691
21908W        W38092  19.064  13.864   3.423  0.0942 -0.0057  0.0715
21909W        W38093   5.882  17.604  12.394  0.1758 -0.0643  0.2902
21910W        W38094  12.034  14.313   1.018  0.1653 -0.0197  0.0091
21911W        W38095  14.621   8.559  10.689 -0.3068 -0.1642 -0.3814
21912W        W38096  17.408   0.289  12.035 -0.2391 -0.0278  0.0373
21913W        W38097  10.499   7.876  10.608 -0.4660 -0.2850  0.3355
21914W        W38098   8.124  12.247   0.792 -0.1207 -0.0722  0.2295
21915W        W38099  15.559   9.119   3.718 -0.3534  0.1606 -0.1992
21916W        W38100  11.747   1.928  14.329 -0.0144 -0.1925 -0.1019
21917W        W38101   2.935   5.131   3.829  0.0804  0.0601  0.2356
21918W        W38102  17.342   5.648   4.724  0.0670 -0.0432  0.2163
21919W        W38103  10.925  19.039   1.412  0.3337 -0.0866  0.0182
21920W        W38104   9.006  17.708  10.452 -0.1724  0.0498 -0.0891
21921W        W38105   0.387   5.956   4.908 -0.4974  0.1459  0.0276
21922W        W38106  15.574  14.790  12.201 -0.0560  0.2200  0.3381
21923W        W38107   9.631   1.122  10.835 -0.1773 -0.0105 -0.1556
21924W        W38108   2.875  13.901   2.816  0.0151  0.0838 -0.0966
21925W        W38109  18.125  14.165  14.602 -0.1914 -0.0897  0.1004
21926W        W38110   4.162   3.688  11.756  0.3747 -0.0384 -0.0600
21927W        W38111   7.946   3.514  11.930 -0.1254  0.0947  0.2600
21928W        W38112  16.336   7.349  11.645  0.1519 -0.0540  0.1573
21929W        W38113   0.438   5.031   4.126  0.2447  0.3631  0.1559
21930W        W38114  10.296   9.151   0.381  0.0218 -0.2898  0.1709
21931W        W38115   6.171  14.823  13.634  0.0534 -0.0430  0.0802
21932W        W38116   2.129   1.181  11.778 -0.0736  0.0976  0.1486
21933W        W38117  11.520  10.693  13.067 -0.3467  0.0147 -0.2085
21934W        W38118  11.141  18.734  14.681 -0.0920  0.1338  0.1820
21935W        W38119   8.528  12.702   3.122  0.2021  0.1747 -0.1412
21936W        W38120  14.092   9.993   1.530 -0.2171  0.1740 -0.0962
21937W        W38121  13.653  17.965   0.142  0.3146  0.3041 -0.1130
21938W        W38122   6.734   0.002   5.298 -0.3343 -0.1304  0.1667
21939W        W38123  10.533  10.214   3.280  0.3223  0.1390  0.2408
21940W        W38124   3.477   6.532  14.718 -0.0282 -0.1654 -0.1055
21941W        W38125   2.479  13.926  12.376  0.2665  0.0313 -0.1057
21942W        W38126   9.436   2.202  13.818  0.1442  0.1914  0.1262
21943W        W38127  18.371   6.126   3.143 -0.0787  0.0794 -0.1519
21944W        W38128  10.473  16.499  13.685  0.0486 -0.1482  0.1387
21945W        W38129  15.610  15.935  13.930  0.2331  0.3963  0.2600
21946W        W38130   9.471  14.410   5.240 -0.0338 -0.1864  0.0974
21947W        W38131   8.163  16.583  12.268  0.0991 -0.4748  0.0450
21948W        W38132   1.838   2.331  12.736 -0.1839  0.2731 -0.1573
21949W        W38133  12.028  18.244  14.167 -0.1755 -0.1995 -0.1227
21950W        W38134  18.491   9.810  10.429 -0.0969  0.1255 -0.0084
21951W        W38135  16.622   9.372   1.391  0.0295  0.0651  0.1568
21952W        W38136   2.000   8.942   1.907  0.1011  0.2635  0.0495
21953W        W38137   1.064   6.475  14.308  0.0260  0.2437  0.0033
21954W        W38138  13.884  14.478  11.193 -0.1665  0.0539 -0.0266
21955W        W38139   0.218  15.263  12.582 -0.1932 -0.3422 -0.4041
21956W        W38140   1.865   3.933   2.265  0.2119 -0.0977  0.2019
21957W        W38141   9.868   0.766  11.917  0.2007 -0.1323  0.0139
21958W        W38142  14.804  13.638  13.896  0.3605 -0.1735 -0.2712
21959W        W38143  11.180   2.520  13.422 -0.0983 -0.1211  0.0331
21960W        W38144  11.865   6.265  13.840  0.3534  0.4234  0.0123
21961W        W38145  10.934   3.367  13.895  0.1675  0.1209  0.0119
21962W        W38146  15.278   7.676  12.764  0.0396 -0.2297  0.0756
21963W        W38147   0.005   5.597   1.800 -0.1267  0.1844 -0.0558
21964W        W38148   0.260  13.161   0.028  0.3392  0.0647  0.0074
21965W        W38149  10.475  15.183  11.681  0.0385  0.1279  0.1017
21966W        W38150   2.307   3.513   0.459 -0.0281  0.0317 -0.1206
21967W        W38151  15.332  16.124  12.419 -0.2153  0.1433  0.0194
21968W        W38152  15.202   2.862  14.546 -0.1973  0.0644 -0.1267
21969W        W38153   0.808  11.466   9.602 -0.1582 -0.0090  0.0004
21970W        W38154   5.938   8.325  13.698  0.1378  0.3897  0.1693
21971W        W38155  13.624  15.378   0.606 -0.0266  0.1568  0.0511
21972W        W38156  16.691  18.262   3.745 -0.2642 -0.0640 -0.2253
21973W        W38157  16.145   5.031   2.162  0.5317  0.1476 -0.0970
21974W        W38158  15.969   0.086  10.542  0.1115  0.3377  0.1606
21975W        W38159   5.824   2.020   3.416  0.1734 -0.1344 -0.3285
21976W        W38160   5.736  16.140   3.825  0.1796 -0.2258  0.0232
21977W        W38161   7.366  13.920   5.083  0.1588 -0.2112 -0.1368
21978W        W38162  18.124  11.668   4.285 -0.3070  0.0330  0.4208
21979W        W38163  17.664  11.706  12.670  0.1160  0.1240  0.1817
21980W        W38164   8.767   0.108  12.685 -0.3332 -0.0660  0.1097
21981W        W38165   6.911   1.106   9.543 -0.1420  0.0702 -0.3345
21982W        W38166   0.837   7.512  10.444 -0.0865  0.1748 -0.1007
21983W        W38167  18.629   3.667   0.468  0.0486 -0.2049 -0.0961
21984W        W38168  13.933   3.553  10.775  0.1182 -0.1500  0.0533
21985W        W38169  17.254   0.030  11.638  0.1135 -0.3394  0.0227
21986W        W38170  11.782   1.020   4.077 -0.2377 -0.2263  0.0608
21987W        W38171  16.472  11.983  11.670 -0.1159  0.6689 -0.0515
21988W        W38172   7.255  11.068   4.042  0.1023  0.2497 -0.1099
21989W        W38173   7.529   1.559  10.651  0.1071 -0.5249 -0.0572
21990W        W38174   8.834  16.629  12.978 -0.1782 -0.0261 -0.2276
21991W        W38175   5.202  16.394  14.711  0.0859  0.2160 -0.0429
21992W        W38176  13.042   8.275  11.586 -0.0993  0.1214  0.0677
21993W        W38177   1.376   1.443   0.745 -0.1228 -0.1941 -0.0453
21994W        W38178  18.997  10.322  12.346 -0.3529  0.0566 -0.1342
21995W        W38179   9.038  18.048   2.040 -0.4266 -0.1967  0.1460
21996W        W38180  15.472  15.914   1.327  0.5214 -0.2802  0.1696
21997W        W38181   3.519  12.223  12.575  0.0441 -0.0697  0.3504
21998W        W38182  17.416  13.085  12.003 -0.1015 -0.0916 -0.2057
21999W        W38183  14.253  16.480  14.237  0.4243 -0.0911  0.0382
22000W        W38184  10.450   1.771   1.208 -0.2711  0.1156 -0.0594
22001W        W38185  13.590  11.096  13.226  0.1093 -0.3276 -0.1232
22002W        W38186   4.391   6.448  10.199 -0.0386 -0.0004  0.2122
22003W        W38187  17.857   6.874  14.344 -0.0638  0.2116 -0.0387
22004W        W38188  17.772   5.793  14.189  0.1257 -0.1782 -0.1364
22005W        W38189  11.175   5.886  11.242 -0.2981 -0.2507  0.0287
22006W        W38190  10.694  17.596  13.395 -0.0242  0.1993  0.0081
22007W        W38191   4.852  18.294  13.678  0.1185  0.1142 -0.1935
22008W        W38192   6.676  17.207   2.538  0.0211  0.0577 -0.1196
22009W        W38193   2.338   9.684   9.778 -0.3622  0.2853 -0.0095
22010W        W38194   9.070   0.701   1.765 -0.4572  0.0370  0.3055
22011W        W38195   8.074   0.884  13.624 -0.1805 -0.1062  0.0858
22012W        W38196  17.868   6.918   4.501  0.1981 -0.0593 -0.1816
22013W        W38197   8.143  14.615  11.008 -0.2302  0.3912  0.3299
22014W        W38198   3.990   2.788  10.387  0.1970  0.0612 -0.4776
22015W        W38199  11.859  18.982   3.674  0.0594 -0.0295 -0.3730
22016W        W38200  13.538  15.754   5.273  0.3026 -0.3106 -0.0917
22017W        W38201   9.269  19.381   2.208 -0.0700 -0.2135  0.2781
22018W        W38202  16.109   7.035   4.564  0.0704  0.0733 -0.1064
22019W        W38203   1.237   6.027  14.387  0.2508 -0.0477 -0.2214
22020W        W38204   7.105  13.561  10.864 -0.0414  0.0739 -0.2331
22021W        W38205   5.471  10.103  14.715 -0.0101 -0.2499  0.0451
22022W        W38206   5.894  10.879  11.715 -0.3001  0.0491  0.1815
22023W        W38207  15.238   1.079   0.977  0.1217 -0.1946 -0.1084
22024W        W38208   3.585   9.657   1.792  0.0127 -0.1199  0.0701
22025W        W38209   1.783  15.588   5.317  0.1672 -0.0994  0.3638
22026W        W38210   4.420   6.263  12.943  0.1159 -0.1762  0.0768
22027W        W38211  13.562  16.446   3.119 -0.4458  0.0781 -0.0204
22028W        W38212   1.822  14.473  13.420 -0.0546 -0.0178 -0.0876
22029W        W38213   8.230   6.804   5.238  0.0631  0.5366  0.2055
22030W        W38214  12.984  11.141   1.202  0.0857 -0.0837 -0.0165
22031W        W38215   4.263  13.102  13.716  0.1612 -0.0281 -0.0409
22032W        W38216   0.247   3.055  14.241 -0.0039  0.0524  0.1296
22033W        W38217  11.215   7.913   0.264 -0.1307  0.1764 -0.2023
22034W        W38218  10.040  16.529   4.722 -0.0263 -0.2716  0.2011
22035W        W38219   2.057  18.833  12.323 -0.0290 -0.0588 -0.4204
22036W        W38220   5.476  10.967   0.222 -0.1282 -0.1787 -0.1480
22037W        W38221  15.903   7.822   2.413 -0.3301  0.2835 -0.0600
22038W        W38222   5.359  13.761   0.477 -0.0354 -0.2071  0.1528
22039W        W38223   4.371   7.871   0.753  0.1262  0.1490 -0.0126
22040W        W38224  18.193   5.801   4.297 -0.1302  0.2282 -0.4821
22041W        W38225  14.639   9.084   9.396  0.1580 -0.2173 -0.1691
22042W        W38226   4.092   8.152   1.056 -0.2920 -0.1674 -0.1106
22043W        W38227  13.782  13.768  13.732  0.1623 -0.3230 -0.1477
22044W        W38228  11.676   8.175   1.964 -0.1401  0.3032 -0.2985
22045W        W38229  15.415   1.037  13.954  0.0807  0.3823 -0.1179
22046W        W38230   5.418   2.999   1.832  0.1844  0.1978  0.0379
22047W        W38231  17.297  17.533  13.601 -0.0368 -0.0040  0.4544
22048W        W38232   5.568   6.192   2.218 -0.3672  0.1991 -0.0356
22049W        W38233   1.399  10.866  14.738 -0.6006  0.0904  0.2481
22050W        W38234  17.670   3.886  10.840  0.1359  0.3098  0.2907
22051W        W38235  18.007   6.083  12.991  0.1319  0.0720 -0.3480
22052W        W38236  12.708   9.096   0.923 -0.0936 -0.2272  0.0310
22053W        W38237  11.285   7.876  11.521 -0.3726  0.1577  0.1416
22054W        W38238   3.266   4.455  12.983  0.2262 -0.2787 -0.1121
22055W        W38239  19.317   8.559   0.652 -0.1589  0.0987  0.1373
22056W        W38240  18.198   3.253   0.953  0.0190 -0.0872  0.1641
22057W        W38241   5.892  12.922   0.498  0.0624 -0.1880  0.1329
22058W        W38242   9.460   5.744   1.796 -0.4988 -0.2248 -0.0121
22059W        W38243   9.953  14.277   2.354 -0.3304 -0.1217 -0.2956
22060W        W38244  12.777  15.906  13.260 -0.0615  0.3650  0.3100
22061W        W38245   5.577  12.260  13.874 -0.1804 -0.0146  0.2736
22062W        W38246  16.677   1.075   4.003  0.0463  0.0028 -0.0997
22063W        W38247   2.054  10.514  12.377 -0.2832 -0.0668 -0.0992
22064W        W38248  13.628  13.283  14.345 -0.4092 -0.2584 -0.2647
22065W        W38249  15.506  10.192  13.395  0.0602  0.0511  0.0032
22066W        W38250  18.195   6.057  11.152 -0.1721  0.0605  0.0648
22067W        W38251   8.420  10.733   3.035 -0.2098 -0.2181  0.2190
22068W        W38252   0.303  16.476  14.722 -0.2430  0.1059  0.2412
22069W        W38253  16.240  19.217  13.220 -0.3038  0.2203  0.1734
22070W        W38254   9.940  16.020   0.084  0.2905  0.0867 -0.0675
22071W        W38255  12.486  12.305   3.714  0.0570 -0.4279 -0.0958
22072W        W38256   2.395   2.616  11.862  0.2493 -0.3166 -0.0326
22073W        W38257   2.712  15.491   6.374 -0.1406  0.0965 -0.1239
22074W        W38258  15.766  12.081  14.041  0.0672  0.0246 -0.3110
22075W        W38259   1.347  16.452   2.905 -0.1208 -0.0359  0.2011
22076W        W38260  12.040   6.300   4.211 -0.1985  0.1258 -0.2642
22077W        W38261  17.809  17.665  14.038  0.2416 -0.2798 -0.1821
22078W        W38262   3.782  12.814   0.001  0.1158 -0.0107 -0.0021
22079W        W38263   1.169  17.757  10.945  0.0291 -0.0013  0.2773
22080W        W38264  10.147  10.499   0.104  0.1241  0.1205  0.3858
22081W        W38265  13.937   8.005  11.632 -0.1047 -0.0234 -0.1007
22082W        W38266  11.143   3.417   1.284  0.0618  0.3165 -0.0774
22083W        W38267  16.403  19.021   0.476 -0.4617  0.0958 -0.3519
22084W        W38268  15.221   4.658  10.772  0.1831  0.0403 -0.5010
22085W        W38269   8.487   4.347  11.764  0.0991 -0.0848  0.3791
22086W        W38270  19.224  14.232  12.367 -0.0126 -0.2502 -0.1346
22087W        W38271   5.997   5.105  11.384 -0.0766  0.4128  0.0581
22088W        W38272  16.772  16.511   4.261  0.1323  0.0540  0.1372
22089W        W38273  11.006  19.196  14.339  0.1308  0.1022 -0.1262
22090W        W38274   2.176   4.636   1.095 -0.0180 -0.3560  0.0206
22091W        W38275  10.178   9.257   3.246  0.0120 -0.0610  0.1654
22092W        W38276  10.828   4.407  11.673  0.1824  0.2225 -0.0846
22093W        W38277   9.051   7.423  13.133  0.4340  0.2284 -0.0298
22094W        W38278   7.916   5.779  12.498  0.0621 -0.0863  0.2121
22095W        W38279   5.454  14.883  10.583  0.0080  0.0060  0.1094
22096W        W38280   3.503  11.054   1.935  0.1711  0.0386  0.4019
22097W        W38281  16.845   4.370   3.101 -0.1448  0.3116 -0.2996
22098W        W38282  10.423  17.612  10.901 -0.0506  0.1274 -0.2229
22099W        W38283   3.592   0.205   3.009  0.3736  0.0969 -0.1148
22100W        W38284  19.009  17.702  14.838  0.1975  0.2086 -0.1489
22101W        W38285   1.001   2.339  11.725 -0.5331 -0.1411  0.0524
22102W        W38286  14.731  18.417   4.524  0.0425 -0.0646  0.2068
22103W        W38287   2.204   3.710   2.573  0.3013 -0.0787  0.0530
22104W        W38288   2.794   4.838  11.737 -0.0227  0.0475 -0.1006
22105W        W38289  10.037  10.396   0.884  0.1160 -0.3672 -0.1266
22106W        W38290   4.978  10.671   2.777  0.1031  0.0347 -0.3089
22107W        W38291   0.539  15.786  13.905  0.2039 -0.1546 -0.1388
22108W        W38292   8.330   1.547   3.313 -0.0500  0.3233  0.1008
22109W        W38293   7.900  12.522   1.144 -0.0520 -0.0035 -0.0624
22110W        W38294   7.394   3.411  13.801  0.2328 -0.1271  0.3346
22111W        W38295   5.447  18.875   3.686 -0.1106 -0.2291  0.1448
22112W        W38296   4.004   7.022   1.842  0.0772  0.1098  0.1108
22113W        W38297  13.279   5.491  10.747 -0.1325  0.1465 -0.0145
22114W        W38298  14.153   9.447  10.938  0.0852 -0.1437  0.1745
22115W        W38299   2.483  18.074   9.667  0.0009  0.0456  0.0904
22116W        W38300  17.029  13.856   2.418  0.2000  0.3067  0.1486
22117W        W38301  16.971  17.190   1.669  0.0143 -0.6371  0.4407
22118W        W38302   2.898  14.598  13.032  0.2526  0.1095 -0.2470
22119W        W38303   0.012  15.470  14.697 -0.1951  0.1830 -0.1552
22120W        W38304  16.897   9.751  10.698 -0.1664 -0.3158 -0.1668
22121W        W38305  11.359   6.981   4.753  0.0788 -0.0262 -0.0063
22122W        W38306   2.580   2.265   2.434 -0.1117  0.3015  0.0087
22123W        W38307   0.114  11.625   2.560  0.1819 -0.1116 -0.0085
22124W        W38308  11.649  19.099  14.010 -0.1104  0.0415 -0.0205
22125W        W38309  16.621  15.185   2.130 -0.0193  0.1827 -0.1418
22126W        W38310  12.792   1.673  13.328 -0.2956 -0.0875  0.1905
22127W        W38311  17.387   4.579   3.996  0.0458  0.2944  0.5172
22128W        W38312   9.738  16.142   5.894 -0.1402  0.2369  0.2160
22129W        W38313  12.729   2.092   4.377  0.3849  0.2404  0.2152
22130W        W38314  10.587   4.186  14.769 -0.5646  0.1760  0.2344
22131W        W38315  13.646  17.542   2.157 -0.1009  0.1155  0.0917
22132W        W38316   8.499  15.532  10.841 -0.0903 -0.0283 -0.2214
22133W        W38317  11.978  18.303  12.642  0.0768  0.6983 -0.3058
22134W        W38318   6.234  17.727  11.009  0.2389 -0.2760  0.5121
22135W        W38319   1.858   8.793   4.657 -0.0292 -0.2494 -0.0996
22136W        W38320   4.711   6.461   4.605 -0.2583 -0.0107  0.1983
22137W        W38321  18.129  15.409   1.380 -0.0285  0.0213 -0.0498
22138W        W38322   1.752  19.001   5.052  0.3792 -0.1806  0.0592
22139W        W38323   8.935  16.983   1.439  0.2018  0.0635  0.0669
22140W        W38324   4.763   2.685   2.972 -0.1039  0.3166  0.0091
22141W        W38325  18.030  15.461   0.917  0.2604 -0.1588  0.1667
22142W        W38326   8.287  18.211   4.439  0.1384  0.0016  0.2020
22143W        W38327   3.704   3.837  13.251 -0.0441  0.1055  0.3440
22144W        W38328  17.598   4.854  10.704  0.0390 -0.1934  0.2218
22145W        W38329  15.942  16.258   5.264  0.1826  0.1464 -0.2076
22146W        W38330   1.994   2.334   3.691  0.4158 -0.1002 -0.2595
22147W        W38331   6.664  10.910  10.859  0.3682  0.1572 -0.1594
22148W        W38332  18.026  15.253   3.890 -0.3034  0.3208 -0.2892
22149W        W38333   3.564   2.980   3.851  0.1095 -0.1382  0.1404
22150W        W38334   0.341   6.657  13.013  0.0958  0.0054 -0.1970
22151W        W38335  13.505  15.816   2.707 -0.4637 -0.0770  0.0400
22152W        W38336   9.897  13.392   2.476  0.1577 -0.0018  0.0173
22153W        W38337  16.910   1.387   5.384 -0.5726 -0.0273  0.0975
22154W        W38338   2.727   0.890  10.838 -0.2266 -0.2467 -0.1107
22155W        W38339   7.888   0.390  11.569  0.1492 -0.1720  0.1455
22156W        W38340  15.203  14.608   1.136  0.0906  0.1221  0.3017
22157W        W38341   6.633   3.392   1.745 -0.1936 -0.1659  0.0873
22158W        W38342  16.200  12.943   2.817 -0.0824 -0.1852  0.0267
22159W        W38343   1.199   2.242   5.165  0.1651  0.0011  0.1142
22160W        W38344   1.019   4.506   4.866  0.0159  0.0843  0.1603
22161W        W38345  17.148   8.633   2.014  0.3416  0.0981 -0.0627
22162W        W38346   5.411   4.836   9.966  0.4210 -0.0197  0.0838
22163W        W38347  12.775  10.503  13.985  0.1617 -0.4820  0.3259
22164W        W38348  15.282  12.137  14.318 -0.3207 -0.0397 -0.0768
22165W        W38349  14.487   1.375   2.790 -0.0964  0.0963  0.2166
22166W        W38350   1.251   6.779  13.852 -0.3083 -0.1130 -0.0386
22167W        W38351  15.322  15.346   2.183 -0.0787 -0.1862 -0.2302
22168W        W38352  16.242  14.201  13.578  0.0197 -0.0380  0.1549
22169W        W38353  13.465   7.015   1.732  0.0439  0.4253  0.1616
22170W        W38354   9.225   2.018   5.150  0.4327  0.0285  0.3092
22171W        W38355   4.021  17.086   0.340 -0.1861  0.0503  0.4684
22172W        W38356   8.057  15.934   3.807  0.0911  0.0458 -0.2141
22173W        W38357   4.816  18.587  14.980  0.1201  0.4379 -0.2449
22174W        W38358  16.932   5.817   0.713 -0.0938  0.1477  0.2904
22175W        W38359   7.813   7.089  12.212  0.0356  0.0164 -0.4605
22176W        W38360   9.059  14.993  11.135 -0.1727  0.2913  0.1439
22177W        W38361   7.534  16.050   4.682  0.0922 -0.2462  0.4002
22178W        W38362  14.304  15.269  10.813  0.0400  0.2209  0.2625
22179W        W38363   8.421   4.751  10.836  0.1791  0.1506  0.0700
22180W        W38364   8.749  15.973   1.732 -0.1440  0.3014 -0.2769
22181W        W38365   0.541   0.774  12.875  0.1332  0.2316  0.1318
22182W        W38366   7.978   4.349  13.324  0.0888 -0.0126  0.0167
22183W        W38367   5.523   4.299  13.002 -0.1874 -0.3073  0.2252
22184W        W38368  12.087   6.219   0.554  0.0836 -0.0701 -0.2783
22185W        W38369   1.602  16.561  13.969 -0.0191 -0.1415  0.0362
22186W        W38370   8.914   7.450   1.721 -0.4890  0.0707  0.1352
22187W        W38371  15.831  14.135  11.729  0.3148 -0.0367  0.2827
22188W        W38372   2.425  18.339  13.719 -0.1456  0.2590  0.0865
22189W        W38373  15.354  18.277   0.084  0.1998 -0.0510 -0.1279
22190W        W38374   5.190  17.706   4.605 -0.1462  0.0817 -0.2320
22191W        W38375   7.124   6.778   4.478 -0.0413 -0.4692 -0.4702
22192W        W38376   0.241   2.347   2.475 -0.0380  0.2919  0.1327
22193W        W38377  10.826  17.195   0.989  0.0299 -0.4492 -0.0573
22194W        W38378   1.466  13.750  11.708 -0.2524 -0.0803 -0.2052
22195W        W38379  11.611  12.430  14.064 -0.1034  0.1135 -0.1360
22196W        W38380  16.512   3.535   4.119  0.0720 -0.3532  0.1884
22197W        W38381  18.706  16.535   1.796 -0.0073  0.2693  0.3066
22198W        W38382   0.646   1.071   4.633  0.1011 -0.1144  0.1763
22199W        W38383  13.423   1.024   0.275 -0.0868 -0.2305 -0.0025
22200W        W38384   9.784  17.469   3.176 -0.3156 -0.3470 -0.0676
22201W        W38385  16.374   9.333  13.764 -0.4487 -0.3241 -0.1657
22202W        W38386   0.898   8.846  12.087 -0.1619  0.0521  0.1326
22203W        W38387  13.673  11.111   0.046  0.1785  0.1957  0.0237
22204W        W38388   2.954  14.454  10.577 -0.0239 -0.1895 -0.0717
22205W        W38389  10.521  12.299   3.591  0.0302  0.2621 -0.2347
22206W        W38390   0.311   1.682  12.098 -0.2002 -0.1266 -0.2567
22207W        W38391   5.926  16.588  11.865 -0.0489  0.0621 -0.0658
22208W        W38392  15.841   2.604  13.241 -0.2094 -0.2387 -0.0268
22209W        W38393   0.192   0.131   1.276 -0.1730 -0.1449  0.1702
22210W        W38394   7.208  14.162  13.983 -0.1329 -0.1255 -0.1387
22211W        W38395  16.486   7.884  14.021 -0.0808  0.0368 -0.2259
22212W        W38396  16.152  13.684  11.841  0.1389  0.0329  0.2229
22213W        W38397  14.330  12.445   1.442 -0.1662 -0.1271 -0.1526
22214W        W38398   1.547  18.960   0.780  0.2529 -0.1987 -0.1814
22215W        W38399   6.886   1.034   2.242 -0.0369  0.0192  0.3187
22216W        W38400  17.704  14.094  11.565  0.3638  0.0819 -0.2666
22217W        W38401   4.463   6.898   4.530  0.0520 -0.1319 -0.3256
22218W        W38402   3.062  17.841   1.136 -0.1941 -0.3336  0.0342
22219W        W38403   7.326   8.949   2.222 -0.3112  0.1048  0.2295
22220W        W38404   7.466   0.294   4.435 -0.0836 -0.2364  0.0964
22221W        W38405  15.625  17.026  13.066  0.1459 -0.1643  0.1204
22222W        W38406   6.663   0.636   0.701 -0.1771 -0.2137  0.0369
22223W        W38407  12.131  13.037  12.796  0.2732  0.2189  0.0839
22224W        W38408   8.267   0.399   9.552  0.0265  0.0561 -0.1394
22225W        W38409  16.353  14.042   4.374  0.2200 -0.0384 -0.4176
22226W        W38410   0.311  15.149   3.880 -0.0197 -0.2534  0.3938
22227W        W38411  15.872  14.446  14.365  0.0286  0.3253  0.2288
22228W        W38412   3.457   2.787   2.833 -0.0662 -0.0982 -0.0489
22229W        W38413  14.656   4.471  12.392 -0.1727 -0.1010 -0.0838
22230W        W38414   0.238   4.255  14.673 -0.1002  0.1484  0.1443
22231W        W38415   7.466   7.131   4.597  0.3601  0.0588 -0.0408
22232W        W38416  12.450  17.802  10.680  0.1341 -0.0194  0.0911
22233W        W38417  17.490   1.309  11.705  0.2620  0.1844  0.3974
22234W        W38418   1.850   0.591  14.416  0.1878 -0.1884  0.0673
22235W        W38419  15.604  15.876  11.594  0.2031 -0.1561  0.0082
22236W        W38420  13.625   8.778   0.821  0.2079 -0.0732 -0.2801
22237W        W38421  17.943   2.657  13.494  0.1464  0.1116  0.1723
22238W        W38422   2.697  15.015   4.326 -0.1830 -0.0984 -0.1429
22239W        W38423   3.167   0.541   1.250  0.1055 -0.1488 -0.2322
22240W        W38424   5.053  15.253   1.068  0.0806 -0.3497 -0.2926
22241W        W38425   9.886  17.908   4.405 -0.1615 -0.1805 -0.0321
22242W        W38426   8.095   4.992  11.564  0.0061 -0.4683  0.3668
22243W        W38427   0.616   0.324   0.982  0.0805 -0.3142 -0.0280
22244W        W38428  18.910   9.674   4.441  0.1355 -0.0481 -0.2115
22245W        W38429   3.336   3.746   2.526  0.1120  0.1979  0.2589
22246W        W38430   6.437  18.020   4.259 -0.2033  0.1241 -0.2688
22247W        W38431   1.716   8.276   4.591 -0.1921  0.1345  0.0268
22248W        W38432   6.191  14.082   4.069 -0.2684 -0.0644 -0.0919
22249W        W38433   1.562   9.277  10.886  0.3195 -0.0920 -0.0353
22250W        W38434   6.281   1.569   1.170 -0.3536 -0.3286  0.1954
22251W        W38435  10.111  12.398   3.377  0.1190  0.2110 -0.2267
22252W        W38436  15.956  13.732  13.099  0.0717  0.1929 -0.3242
22253W        W38437   7.053   6.217  14.576 -0.1583  0.1677 -0.0537
22254W        W38438   1.361  12.963  13.018 -0.1324 -0.0512  0.4104
22255W        W38439   3.975   1.903  11.865 -0.0511 -0.0706  0.0154
22256W        W38440  11.639   8.220  11.416 -0.0003 -0.0591 -0.0737
22257W        W38441   9.094   1.607  14.502  0.1326 -0.3849  0.1188
22258W        W38442  15.794   5.042   0.512 -0.0314  0.1149 -0.3747
22259W        W38443   5.688  10.875   1.995  0.3896 -0.1720  0.2848
22260W        W38444   3.186   6.199   0.346 -0.0489  0.1991  0.2896
22261W        W38445  12.851   2.960   1.131 -0.0901  0.2422 -0.0761
22262W        W38446  19.085   7.829  11.909 -0.1389  0.0164  0.4136
22263W        W38447   6.327  15.832   5.357 -0.2443  0.0153 -0.0525
22264W        W38448  12.781  15.165  12.783 -0.1599  0.0460 -0.0312
22265W        W38449  18.352   6.693  14.322 -0.1405 -0.4751  0.0569
22266W        W38450  11.972   9.712   4.184 -0.4123  0.0425 -0.0186
22267W        W38451   3.613  12.345   4.270  0.3140 -0.3829  0.1953
22268W        W38452  14.337   6.224   3.299 -0.2711 -0.0648 -0.0288
22269W        W38453   5.656   9.708  14.934  0.2095  0.3535  0.1174
22270W        W38454   1.045  10.586   4.520 -0.0314 -0.0778  0.1578
22271W        W38455  12.237   3.884  14.126  0.2904 -0.0992  0.2184
22272W        W38456  15.791  11.717   3.275 -0.0569 -0.1946  0.1945
22273W        W38457   5.878   7.209   3.255 -0.1071  0.2351 -0.1589
22274W        W38458   0.912   3.705  13.642  0.0500  0.2376  0.0519
22275W        W38459   8.965   1.090   2.591  0.4502 -0.2636 -0.0478
22276W        W38460   4.502   9.869  13.139 -0.0566  0.2885 -0.0757
22277W        W38461  18.843  18.487  14.668 -0.1423  0.2956 -0.3020
22278W        W38462  12.863  17.672  14.717 -0.2754  0.1220  0.1399
22279W        W38463  19.271  17.449   3.470  0.1106 -0.1062 -0.0180
22280W        W38464   8.965  11.947   2.817 -0.0410  0.1764 -0.0380
22281W        W38465   2.989   6.639  14.508  0.2287  0.0930  0.0724
22282W        W38466   4.887   8.327   3.133  0.2103  0.0504 -0.0610
22283W        W38467  13.071   6.059   3.654 -0.1681  0.0857  0.2139
22284W        W38468  10.399  16.172   2.705  0.1048  0.0406 -0.0174
22285W        W38469  15.670  14.309  12.308  0.0158 -0.3366  0.1425
22286W        W38470  12.944  17.485  11.271  0.2499 -0.2790 -0.2442
22287W        W38471  14.707   3.974   3.529  0.2561 -0.2088 -0.3406
22288W        W38472   4.975  12.672  11.104  0.1565  0.1156  0.0184
22289W        W38473   2.910  13.599  13.057  0.0066 -0.0671  0.0709
22290W        W38474  14.931  19.189  11.304 -0.2074  0.3245 -0.1502
22291W        W38475   6.641  19.296  12.057  0.1121  0.1189 -0.0657
22292W        W38476   8.095   4.288   0.594  0.2767 -0.1172 -0.1930
22293W        W38477   3.245  13.402  12.227  0.0517  0.2396  0.5240
22294W        W38478  14.479  18.603   2.576 -0.1570  0.1765  0.0769
22295W        W38479  17.610  10.350   2.710 -0.3424  0.2162 -0.1832
22296W        W38480   5.376   1.552   3.336 -0.0743 -0.1000  0.0807
22297W        W38481   7.301   8.179  13.679 -0.1991 -0.0015  0.2548
22298W        W38482  12.856   1.261   2.160  0.0545 -0.2779 -0.0316
22299W        W38483  13.526  13.040   2.375 -0.0150 -0.1012 -0.0829
22300W        W38484   3.088  15.653   4.447  0.2878  0.0051  0.2587
22301W        W38485   4.840  11.628   1.097 -0.1557  0.1138  0.0548
22302W        W38486  10.943   3.888  13.114 -0.1836 -0.0963  0.0907
22303W        W38487  18.628  10.060   4.696  0.1884 -0.0297  0.0724
22304W        W38488  14.662   4.770  11.923 -0.2605  0.1645 -0.0522
22305W        W38489  10.476  18.620   3.730  0.0316 -0.1418  0.0723
22306W        W38490  11.788  17.260   3.264 -0.0184 -0.3057 -0.0817
22307W        W38491   1.908   5.782   3.950 -0.2260 -0.1546  0.3118
22308W        W38492   4.774   3.259   0.475  0.0143  0.3185  0.0619
22309W        W38493   1.965   1.362   4.897  0.2329 -0.3540  0.2086
22310W        W38494   7.450  18.095   0.791 -0.2546  0.1781 -0.1049
22311W        W38495   9.506  16.065  14.798 -0.0964  0.0453  0.0438
22312W        W38496   5.515  17.409  13.076 -0.0864  0.2996 -0.0674
22313W        W38497  18.918   7.470   2.257  0.0679  0.0188  0.2635
22314W        W38498   0.678   7.059  12.064 -0.0664 -0.1429  0.2659
22315W        W38499  12.639   8.252   2.263 -0.1060  0.0593 -0.3086
22316W        W38500   5.516  11.238   4.751 -0.2347 -0.1523  0.2943
22317W        W38501  11.519   9.263  11.426 -0.0227  0.0850 -0.0131
22318W        W38502   2.582   9.201   3.213  0.1069 -0.2209  0.1397
22319W        W38503  17.884  11.037  14.652  0.1707  0.1644  0.1309
22320W        W38504  13.129   7.648   2.987 -0.2939 -0.1285  0.1192
22321W        W38505   5.794  14.620   4.809  0.2794 -0.3444 -0.3434
22322W        W38506   6.849  10.932  13.965  0.0323 -0.1996  0.1485
22323W        W38507  14.309  12.012  14.652 -0.0817 -0.1749  0.1479
22324W        W38508   6.589   4.720   4.849  0.0564  0.0729 -0.0080
22325W        W38509   1.067   2.421   9.738  0.1231 -0.0178 -0.1863
22326W        W38510  16.417   8.434   0.098 -0.0350  0.1300  0.0450
22327W        W38511   6.495  14.423  11.345 -0.1350  0.0635 -0.1770
22328W        W38512  10.749   6.172   3.339 -0.1181  0.1271  0.1308
22329W        W38513  16.954  14.686   3.978  0.0114 -0.3401 -0.1514
22330W        W38514  11.859  17.587   3.685 -0.1874  0.3499 -0.1925
22331W        W38515   5.721   8.300   1.217 -0.2054  0.0831 -0.0013
22332W        W38516   8.440   3.713  11.450 -0.0035 -0.2937  0.0156
22333W        W38517  15.751   7.074  12.434  0.2568 -0.6340  0.1826
22334W        W38518  13.481  14.491  12.997  0.0198 -0.0434 -0.1132
22335W        W38519   0.437  13.971  14.186  0.1802  0.0869 -0.3898
22336W        W38520   0.758   6.339  13.208 -0.0684  0.0164  0.3188
22337W        W38521  15.349  18.587   1.198  0.1423 -0.0100 -0.0168
22338W        W38522  17.454  10.261  14.972  0.1161  0.0126 -0.3818
22339W        W38523   3.378   3.224  11.985  0.0572 -0.2285  0.1723
22340W        W38524  12.379  19.099  11.513  0.0530 -0.0920  0.1569
22341W        W38525   1.143   6.931   4.923 -0.1652  0.0384  0.0853
22342W        W38526   1.415   7.089   2.715 -0.3559 -0.1581  0.1496
22343W        W38527  11.824   5.783  12.536  0.0873 -0.0323  0.3151
22344W        W38528  10.711  12.147  11.070  0.0401 -0.2047 -0.1629
22345W        W38529  11.999   8.337   4.791 -0.0067 -0.2534 -0.0113
22346W        W38530  18.217   9.662   3.473 -0.1242 -0.0053 -0.1705
22347W        W38531  15.463  11.658  12.706  0.3905  0.0482 -0.2401
22348W        W38532  15.821   1.428  12.978 -0.1031 -0.1135  0.1045
22349W        W38533   9.888  16.746   5.117 -0.1802  0.1223  0.1257
22350W        W38534  11.048  11.224   1.538 -0.3667  0.0495  0.1088
22351W        W38535   9.236   8.308   3.002 -0.0234 -0.0706  0.0379
22352W        W38536   6.070   1.311  14.000  0.1570 -0.2841 -0.1453
22353W        W38537  10.701   0.167  13.995 -0.1179  0.2209 -0.2705
22354W        W38538   3.362  12.561   2.021  0.0594  0.0023  0.1148
22355W        W38539   1.113   7.263  10.014 -0.2043 -0.1809  0.1311
22356W        W38540   1.105   5.605   3.576 -0.0852 -0.4077  0.1262
22357W        W38541  10.898  15.907  11.554  0.0073 -0.0860 -0.3634
22358W        W38542  13.679  19.204   3.650 -0.3430 -0.2079 -0.1110
22359W        W38543  11.165   1.973   5.312  0.5023 -0.0262  0.4164
22360W        W38544   3.298  17.238   2.089  0.1837  0.1516  0.2009
22361W        W38545   2.845  13.375  14.048 -0.0181 -0.0655  0.0018
22362W        W38546  14.061   0.092  11.393 -0.0673 -0.2019  0.1798
22363W        W38547   7.904   3.532  12.431  0.1533 -0.1607 -0.2396
22364W        W38548  12.714  11.493   2.948 -0.0533 -0.3114 -0.3578
22365W        W38549  16.604   8.803   2.032 -0.2229 -0.1104 -0.2642
22366W        W38550  14.247  10.824   3.506 -0.0386 -0.1908  0.1430
22367W        W38551   2.151   4.351  11.464  0.2894  0.1567  0.2660
22368W        W38552  12.899   0.856  12.259 -0.1254 -0.2327 -0.0581
22369W        W38553   0.776  14.247  14.379 -0.2529  0.0856 -0.3650
22370W        W38554  11.367  18.155   0.298  0.3586  0.1401 -0.2121
22371W        W38555  12.372   1.113   2.029 -0.1888  0.1933 -0.0921
22372W        W38556  14.695   1.652  11.841 -0.1649  0.0391 -0.1707
22373W        W38557  14.269  11.117  12.011 -0.3613 -0.3065  0.1300
22374W        W38558   7.003  10.422   3.973 -0.8201 -0.2289  0.1030
22375W        W38559   3.682  16.735   4.587  0.3525 -0.2811 -0.1149
22376W        W38560   7.917  13.150  11.356  0.2112  0.0293 -0.1103
22377W        W38561  10.183   6.189   4.002 -0.0416  0.3509 -0.1407
22378W        W38562   0.551  15.242  11.327 -0.0383 -0.2080  0.1656
22379W        W38563  17.421   1.151  14.756 -0.3312  0.2373 -0.0477
22380W        W38564   7.236   2.625  10.316 -0.0118  0.1066  0.0073
22381W        W38565   9.246  15.025  13.662 -0.2401 -0.0753 -0.2934
22382W        W38566   5.232   2.228  14.725  0.2224  0.0828  0.1202
22383W        W38567  18.271   9.747  10.895  0.1589 -0.3861 -0.0050
22384W        W38568   7.091  11.928  14.703  0.2206 -0.2094  0.2596
22385W        W38569   8.403  11.191  12.124  0.5316 -0.0796  0.3764
22386W        W38570   4.083   6.188  10.759  0.0692  0.1922  0.1533
22387W        W38571   1.481   9.907  13.708  0.3715  0.0552 -0.0285
22388W        W38572  11.596  17.224  11.164  0.1975 -0.2520 -0.0443
22389W        W38573  13.637  14.246   1.811  0.0332  0.0379  0.4464
22390W        W38574  15.991  19.326   1.189 -0.0883  0.1951  0.1431
22391W        W38575  17.573  15.095   0.362 -0.1251  0.1009  0.1551
22392W        W38576   6.678   6.454  13.807  0.0564 -0.0981 -0.0770
22393W        W38577   2.988   7.591  12.289  0.0831  0.0736  0.1333
22394W        W38578  15.629  18.766  13.773  0.1079  0.0531  0.3252
22395W        W38579   1.492  13.225  12.612 -0.0485  0.3129  0.4420
22396W        W38580   2.236  13.972  14.543 -0.2936 -0.1131  0.3553
22397W        W38581  14.462   5.788  11.013 -0.2747  0.0767  0.1222
22398W        W38582   2.179  11.976   2.566  0.0379 -0.1315  0.1767
22399W        W38583  15.250   9.282   0.063  0.0052  0.1037  0.2343
22400W        W38584   1.651   2.777   2.765  0.3815  0.1576  0.0758
22401W        W38585  13.593   6.406  11.824  0.0967 -0.1000  0.0478
22402W        W38586   0.466  14.195  13.709  0.1148 -0.1350 -0.1311
22403W        W38587  15.110   5.828   9.512  0.3962  0.0286  0.0421
22404W        W38588   8.690  11.849  11.650 -0.1912 -0.0839 -0.0831
22405W        W38589  10.432  18.018   4.699 -0.3053  0.4001 -0.0849
22406W        W38590  12.969   1.042   5.320 -0.2216  0.1247 -0.2411
22407W        W38591  15.393   4.970   2.598  0.0940  0.3696  0.1614
22408W        W38592   0.706  11.160   2.914 -0.4621  0.2652  0.3477
22409W        W38593   9.190   2.055   2.309  0.1528 -0.0858  0.0555
22410W        W38594  18.297  16.356   4.364 -0.2348 -0.1137  0.1637
22411W        W38595  14.459   8.166  12.495  0.3221  0.0453  0.1457
22412W        W38596   9.713  11.011   2.988 -0.0851  0.0543 -0.1305
22413W        W38597  18.766   1.458   4.104  0.0680 -0.3450 -0.2365
22414W        W38598   2.489   1.555   0.400  0.0203 -0.0276 -0.4210
22415W        W38599  15.588  15.505   1.107 -0.0760  0.0348 -0.3371
22416W        W38600  10.640  15.687  10.296 -0.1646  0.2330 -0.2534
22417W        W38601  19.152   8.393  10.873  0.2055  0.0528 -0.1423
22418W        W38602   1.944   4.042  10.929  0.0117  0.0879  0.1817
22419W        W38603   0.978   4.028  14.022  0.2377  0.3572  0.4104
22420W        W38604  17.947   0.908  14.798 -0.1034 -0.0803 -0.2101
22421W        W38605   6.965  10.932   5.506 -0.1253  0.1781  0.3578
22422W        W38606   0.127   2.265  13.580 -0.1340  0.4540  0.4121
22423W        W38607  15.088  15.182   3.276  0.1862 -0.2069 -0.0701
22424W        W38608   3.496   3.313  10.725  0.2316 -0.2668  0.2119
22425W        W38609  16.490   1.320   4.991 -0.0100  0.3559 -0.3378
22426W        W38610   5.777   9.150  12.525  0.3345  0.0134  0.0458
22427W        W38611  11.554  10.776   3.927 -0.2438  0.0096  0.2727
22428W        W38612  13.013   7.201   1.832 -0.0925 -0.0518 -0.3482
22429W        W38613   9.623   1.742   0.078  0.2318 -0.3202 -0.1998
22430W        W38614   8.309   8.532   4.330  0.0138 -0.0076  0.2531
22431W        W38615  12.662   6.051   2.041 -0.0242 -0.1239  0.0224
22432W        W38616  11.497  17.923  13.912 -0.3538 -0.1817  0.1694
22433W        W38617   3.162  15.545   0.332 -0.1320 -0.1142 -0.0575
22434W        W38618  11.076  15.575  14.674  0.1227 -0.0191 -0.0749
22435W        W38619   0.807   8.534   1.968  0.4371  0.0334 -0.1290
22436W        W38620  13.797   7.757   1.534  0.0460  0.0238  0.3989
22437W        W38621   9.297  13.587   4.252 -0.1248 -0.1073 -0.1426
22438W        W38622  15.991   2.488  11.626  0.0372  0.0260 -0.0646
22439W        W38623   0.652  15.892   1.498  0.3944 -0.2886  0.0231
22440W        W38624   8.580   9.138   2.066  0.0795 -0.2570  0.1318
22441W        W38625  12.009   7.932   0.007  0.0781 -0.0297  0.2719
22442W        W38626  14.686  14.788  13.031  0.0288  0.0158 -0.0970
22443W        W38627  13.812  12.012  14.437  0.5525 -0.2083 -0.0514
22444W        W38628  16.967  18.809  10.216  0.1349 -0.1548  0.0682
22445W        W38629  12.179  14.758   4.634  0.1556  0.0119  0.1562
22446W        W38630   3.326  15.840   3.117 -0.1131 -0.2793  0.0460
22447W        W38631   9.322  14.932   3.413  0.0556  0.1730  0.0448
22448W        W38632   9.742   0.086  14.802 -0.1792 -0.0165 -0.0057
22449W        W38633  14.214   5.430   3.803 -0.1107  0.1519  0.0159
22450W        W38634  11.389  16.922   0.369 -0.2545  0.0540 -0.0384
22451W        W38635   4.823  11.948   5.607 -0.2164 -0.0435 -0.1389
22452W        W38636   2.936   5.923  14.030 -0.2550  0.0841 -0.0493
22453W        W38637   9.075   2.991  10.318 -0.1833  0.2532  0.0426
22454W        W38638  17.534   8.570   4.222 -0.1208 -0.0681 -0.1539
22455W        W38639  19.264  18.428   1.521  0.0963  0.1454  0.1425
22456W        W38640  13.467   0.518   1.817  0.0748  0.0856 -0.1714
22457W        W38641   4.869  15.281   2.363  0.0831 -0.3360 -0.0522
22458W        W38642   1.203   8.465  10.392 -0.1395 -0.1303 -0.1396
22459W        W38643  15.379   6.304  13.149  0.3326 -0.2230  0.1046
22460W        W38644   0.883   2.993  11.866 -0.3187 -0.0986 -0.0332
22461W        W38645  11.661  15.972  10.906 -0.1107 -0.2414 -0.0107
22462W        W38646   3.731   2.044   4.445  0.0235 -0.3486  0.2775
22463W        W38647  18.397   7.103  10.990 -0.0675  0.4047 -0.0199
22464W        W38648   7.990  11.957   5.496 -0.2152  0.0146  0.0906
22465W        W38649  10.416   9.718   3.195  0.0729 -0.3049  0.0875
22466W        W38650   8.955   9.094   4.527  0.1052  0.0248  0.2068
22467W        W38651  14.530   0.520  11.670  0.0087 -0.0101 -0.3854
22468W        W38652  16.450   3.789   0.642  0.1189  0.0177  0.0111
22469W        W38653   0.859   2.455  12.260  0.0206  0.1256  0.2110
22470W        W38654  11.528   2.515  11.866  0.4798 -0.3441  0.3157
22471W        W38655   1.287  11.290  14.070  0.1642  0.1092  0.0395
22472W        W38656  11.358  11.300  12.068 -0.1942  0.3028 -0.3514
22473W        W38657  17.150   6.491  14.459 -0.0544 -0.0068 -0.0025
22474W        W38658   7.299   6.926  10.829  0.1702  0.1656  0.1450
22475W        W38659   0.304  14.406  13.262  0.1182 -0.1431  0.3653
22476W        W38660   1.161   0.262   4.659 -0.0948  0.1509 -0.1090
22477W        W38661   3.413  17.551   4.404  0.1847 -0.3694  0.3019
22478W        W38662  15.497  13.288   1.758  0.2913  0.0910 -0.1588
22479W        W38663   0.655  11.358  13.105 -0.0782  0.1362  0.3393
22480W        W38664   7.988   1.840   2.536  0.0018  0.2273  0.1762
22481W        W38665  16.744   7.147  10.002  0.1627  0.0184 -0.1498
22482W        W38666  15.025  14.774   2.095 -0.2124  0.3046 -0.3734
22483W        W38667   7.610  11.121  14.362  0.0923 -0.1991 -0.2525
22484W        W38668   2.206   0.354  10.983 -0.0256  0.0436 -0.0369
22485W        W38669  17.452  14.901  14.037  0.0660 -0.0866  0.0324
22486W        W38670   9.907  19.158  11.321 -0.0100 -0.2843  0.0849
22487W        W38671  14.728   7.751  11.769 -0.0995  0.3909 -0.1884
22488W        W38672   4.989   0.110   0.938  0.0745 -0.2321 -0.1329
22489W        W38673  12.365  18.693   5.077  0.2582  0.1449  0.0276
22490W        W38674  11.798  15.567   0.394  0.0137  0.1331  0.0029
22491W        W38675   7.906   3.725   1.227  0.0851 -0.2375  0.0628
22492W        W38676  17.600  19.078   1.945  0.0415  0.2001  0.0751
22493W        W38677  17.541   7.725  10.217 -0.1179 -0.1174  0.1990
22494W        W38678  12.950   3.249  10.877 -0.0648  0.1642  0.2598
22495W        W38679   5.079   6.852  11.694 -0.3798 -0.1627  0.1209
22496W        W38680   4.706  17.735  10.408  0.4655  0.2355  0.3471
22497W        W38681   3.935  17.916  11.557 -0.2100  0.0238 -0.1062
22498W        W38682  10.474  15.951   1.873 -0.0399 -0.1295 -0.1489
22499W        W38683  16.471  15.309   5.711 -0.2017  0.2250  0.0991
22500W        W38684   3.247   3.201   1.436  0.1709 -0.0807 -0.1464
22501W        W38685   3.373  10.618  13.792 -0.0303 -0.0024  0.1734
22502W        W38686  12.548  17.865  11.206  0.0487 -0.0120  0.0434
22503W        W38687   1.042   6.595  12.864 -0.2187 -0.0536 -0.3559
22504W        W38688   6.614   7.580  14.493 -0.3614  0.1706  0.0439
22505W        W38689   7.718  17.831   4.836 -0.4177  0.0719 -0.1214
22506W        W38690  16.819   7.403   3.492 -0.1677 -0.0310 -0.1978
22507W        W38691  13.173   7.106  13.794  0.1514  0.3606 -0.1471
22508W        W38692  11.713   5.960   0.292  0.0105  0.3235 -0.0041
22509W        W38693   3.248  13.345   0.215  0.1312 -0.1412 -0.0704
22510W        W38694  17.627  14.468   5.059 -0.3420  0.1134  0.1758
22511W        W38695   6.662  14.368  14.720  0.1195 -0.1004  0.3213
22512W        W38696   7.521  17.894  14.849  0.1571  0.0952 -0.2239
22513W        W38697   2.784  12.651   1.292 -0.0086  0.0313  0.0540
22514W        W38698  17.765  10.461  11.553 -0.1348 -0.2223  0.0978
22515W        W38699  13.109   1.769   2.881 -0.4510 -0.0145 -0.0124
22516W        W38700  16.924   9.726  12.579  0.1580 -0.1320 -0.1392
22517W        W38701   6.454   1.947  11.724 -0.1653  0.1796  0.0864
22518W        W38702   1.232  19.282  12.086  0.0034 -0.2868  0.5377
22519W        W38703  12.603   3.974  12.279  0.1844  0.1538 -0.0174
22520W        W38704   9.078  18.548   4.121  0.0331 -0.0966 -0.1617
22521W        W38705   1.408   1.602   4.368  0.3245  0.0628 -0.1515
22522W        W38706   2.630   1.432  13.456  0.1154  0.0991  0.0254
22523W        W38707   4.899  14.354  10.526 -0.4564 -0.1379  0.0998
22524W        W38708  18.954   0.964   5.646  0.0803 -0.0957  0.1358
22525W        W38709   8.191   1.401  14.439 -0.0741 -0.1140  0.0589
22526W        W38710  13.434   1.382  12.919 -0.1999  0.0040  0.3720
22527W        W38711   3.629  18.448  13.608 -0.0012  0.1822  0.1357
22528W        W38712  12.298   5.639   2.692 -0.1594  0.2710  0.1808
22529W        W38713  11.780   7.167  12.985 -0.0386 -0.6226 -0.1527
22530W        W38714  16.288   5.596  12.968 -0.0909 -0.1289 -0.1823
22531W        W38715   0.463   0.491   2.426 -0.1631  0.2688 -0.2275
22532W        W38716  19.286  10.392   1.183  0.0770  0.1330  0.1852
22533W        W38717  17.161  15.160  14.376 -0.0790  0.0488  0.0479
22534W        W38718  13.782  19.051   5.534  0.1203  0.0630  0.0683
22535W        W38719   9.752  18.951  14.897  0.1291 -0.1561  0.2447
22536W        W38720  11.309   4.394   4.651 -0.0834 -0.0249 -0.2971
22537W        W38721  12.760   0.856   1.291 -0.0516 -0.0823  0.1693
22538W        W38722   8.252  16.046   0.697 -0.1970  0.1499 -0.1200
22539W        W38723  16.620  17.172  14.840 -0.0062 -0.0426  0.2519
22540W        W38724  14.677  15.046  11.776  0.1823 -0.0151  0.0884
22541W        W38725  14.287  10.652  12.249 -0.1922 -0.0852 -0.1883
22542W        W38726  13.828  15.421  12.235 -0.2231  0.0495  0.2265
22543W        W38727  18.892   1.821  11.095  0.3730 -0.2227  0.0721
22544W        W38728   3.067   1.656   2.082 -0.0620 -0.0054  0.0315
22545W        W38729   7.892  18.322  13.876 -0.0668 -0.1399  0.1278
22546W        W38730   6.673  16.689   3.838 -0.2348 -0.0032  0.2815
22547W        W38731   1.322   6.759  11.432 -0.0045  0.0859 -0.0953
22548W        W38732   2.800  18.403  13.339 -0.0951  0.1220 -0.0837
22549W        W38733  15.130   4.125   0.191 -0.0380  0.1753  0.0811
22550W        W38734  13.854  15.941   3.239 -0.0270 -0.3702 -0.2346
22551W        W38735  18.223  15.722   2.804  0.1378  0.1514  0.0091
22552W        W38736   8.019   2.349  13.426  0.2924  0.3323  0.1595
22553W        W38737  18.582  18.450  12.176  0.0581 -0.0292 -0.0837
22554W        W38738   6.330   4.937   2.346  0.2015 -0.3275  0.1482
22555W        W38739  13.428   6.005   2.811  0.2222  0.1920  0.0054
22556W        W38740  16.276  14.003  14.574 -0.2858  0.0507 -0.2574
22557W        W38741  10.962  11.826   0.054 -0.0046  0.1238  0.0379
22558W        W38742  15.785   2.453   2.501  0.3135  0.0773  0.1829
22559W        W38743  15.253  19.011   4.282 -0.2980  0.2084  0.1791
22560W        W38744  15.596  14.842  13.977  0.2401 -0.1862  0.0586
22561W        W38745   6.059  16.024   4.484  0.0954 -0.2435  0.1931
22562W        W38746  11.740  14.666  14.507  0.0362  0.1125 -0.0470
22563W        W38747  18.936  14.452   1.312 -0.0043 -0.2426  0.2262
22564W        W38748   8.535  18.336   9.783  0.1150 -0.0535 -0.2184
22565W        W38749  17.801  12.916  13.975 -0.0887 -0.3286 -0.0179
22566W        W38750  10.820  14.388   3.351  0.1340  0.4476  0.1435
22567W        W38751   6.777  11.707   0.066 -0.2476 -0.1760  0.0246
22568W        W38752  10.274  13.528   4.123  0.1730  0.1755  0.0542
22569W        W38753   4.397   3.856  13.384  0.1437  0.4595  0.2351
22570W        W38754   9.149   6.376   0.890 -0.2964  0.0989 -0.1567
22571W        W38755   7.274   8.534   9.848 -0.0542 -0.0071  0.1961
22572W        W38756  13.468  14.114   0.555  0.0462  0.1751 -0.1137
22573W        W38757   5.316  12.472   2.595  0.2158  0.1994 -0.1551
22574W        W38758   0.762  15.187   0.143  0.0271  0.1367  0.0397
22575W        W38759   0.949  10.189   4.269 -0.2899  0.0393  0.0329
22576W        W38760   3.846   6.221  13.361 -0.1951  0.2167 -0.1033
22577W        W38761   6.330  17.441  13.530  0.1519 -0.0496  0.1947
22578W        W38762  16.966   6.920   2.823  0.1909  0.0123  0.4345
22579W        W38763  16.924  18.427   1.919 -0.1042 -0.1684  0.2648
22580W        W38764  17.775  13.348   1.432 -0.0956 -0.0591 -0.1412
22581W        W38765   9.423   3.835  11.051  0.0296 -0.0231 -0.2144
22582W        W38766  16.143   4.671   0.565  0.0708  0.1321 -0.0059
22583W        W38767   4.032   0.029  12.095  0.2659 -0.0552 -0.0902
22584W        W38768   3.546  12.341  14.935 -0.1338 -0.1493 -0.0653
22585W        W38769  17.937   1.117  11.518  0.4543  0.3961 -0.3157
22586W        W38770  14.284  17.154   5.398  0.1287  0.4537  0.2643
22587W        W38771  16.673   5.660  13.237 -0.1158 -0.1176 -0.1202
22588W        W38772   9.041  15.090  14.912 -0.1433 -0.1628 -0.0753
22589W        W38773  12.223   8.066   5.200 -0.2823  0.0869 -0.1194
22590W        W38774  12.980   2.238  12.543  0.2231 -0.0396 -0.3417
22591W        W38775  13.440   7.899   3.855  0.0612 -0.0767 -0.0314
22592W        W38776   4.556  15.559   0.971 -0.0531  0.2783  0.0755
22593W        W38777  14.392  11.621   2.992  0.0039  0.1795  0.1802
22594W        W38778   7.821  13.421   0.516 -0.5547 -0.0915 -0.3450
22595W        W38779   7.333   3.462   0.642 -0.1076  0.3016 -0.1078
22596W        W38780   8.613  18.233   2.253 -0.0354 -0.3228  0.0977
22597W        W38781  17.132   9.706   0.600 -0.0167  0.2611 -0.0149
22598W        W38782   5.824   0.581   1.861 -0.1154  0.0619  0.0727
22599W        W38783   1.511  17.500  13.934 -0.1031  0.2026 -0.0224
22600W        W38784   8.802   1.916  14.921 -0.4326  0.1095  0.1772
22601W        W38785  18.979   4.829   1.851 -0.1926  0.1028 -0.2055
22602W        W38786  17.939   6.966  10.764 -0.0124 -0.0934 -0.3237
22603W        W38787  17.698   1.556   1.445 -0.2007  0.2865 -0.3749
22604W        W38788  13.876   2.759   3.506  0.0939 -0.2923 -0.0455
22605W        W38789   7.951  10.517  10.737 -0.0388  0.0320  0.0649
22606W        W38790  12.079   1.387  11.997 -0.1960 -0.0369 -0.0377
22607W        W38791   1.127  16.684  12.452  0.3583 -0.2456 -0.0323
22608W        W38792  11.218  13.442   9.570 -0.1723  0.0022  0.1085
22609W        W38793   1.599   8.309  10.691  0.0108 -0.1300 -0.0569
22610W        W38794   2.921  11.590   2.226  0.2786 -0.0364  0.3547
22611W        W38795   9.913  14.804   3.245  0.2607 -0.1755  0.1032
22612W        W38796  13.415  15.312  12.452 -0.1166 -0.2157 -0.0209
22613W        W38797   0.265   7.080  10.670  0.0058 -0.3836 -0.0371
22614W        W38798   0.720  18.487  11.111 -0.1894 -0.3249  0.0116
22615W        W38799  10.847   9.001   3.784 -0.1259  0.2824 -0.1991
22616W        W38800   6.366   6.270   4.554 -0.1515  0.1999  0.1512
22617W        W38801  18.440   9.358   4.445 -0.0027 -0.2449  0.4040
22618W        W38802   5.218   7.250   0.614  0.2103  0.2205 -0.2566
22619W        W38803   5.972   4.892  12.326 -0.1616 -0.3638 -0.1004
22620W        W38804   6.312   5.475   0.286 -0.3400 -0.0961 -0.2793
22621W        W38805   2.409   2.399  12.585  0.4003  0.2057 -0.1790
22622W        W38806  15.890  14.126   4.710 -0.0858 -0.0687 -0.1658
22623W        W38807  11.605  10.552  12.021  0.1264 -0.0772 -0.0446
22624W        W38808   5.353   8.880   1.677  0.3026 -0.0314 -0.1143
22625W        W38809  16.613   1.986  12.628 -0.1447  0.2246 -0.0499
22626W        W38810   2.275  14.451   0.557  0.0836  0.1296  0.1765
22627W        W38811   5.001   5.746   4.526 -0.0697 -0.0966 -0.0150
22628W        W38812  16.268  14.966   3.464  0.0734 -0.2562 -0.4639
22629W        W38813  11.748   9.478   1.335  0.1362  0.0382 -0.0668
22630W        W38814   3.022   0.102  14.294  0.1597  0.0679  0.1851
22631W        W38815  16.153   6.133  11.637 -0.0863  0.2556  0.0275
22632W        W38816   0.321   5.384  12.922 -0.3249  0.0653  0.3241
22633W        W38817  17.063  18.719   2.299  0.1143 -0.1259  0.3129
22634W        W38818   8.828   5.445  11.626  0.0999  0.0637 -0.3131
22635W        W38819   9.485   7.626  13.319  0.0500  0.0629  0.1807
22636W        W38820  11.407  18.849  10.921  0.0936 -0.0674 -0.0345
22637W        W38821   9.157  12.095   4.014 -0.0460  0.0187 -0.0133
22638W        W38822  15.800   9.735   1.472 -0.0326 -0.1042  0.0965
22639W        W38823  10.897   9.139   0.675  0.3162 -0.2967 -0.3986
22640W        W38824   5.067   0.295  12.708 -0.1903  0.2084  0.0774
22641W        W38825  16.958   3.934   0.677 -0.1919  0.0859  0.3340
22642W        W38826   6.041   8.719  11.192  0.0916  0.0297  0.0529
22643W        W38827  12.121   2.272  14.291  0.0906  0.2084 -0.0774
22644W        W38828   7.487  17.405   2.975 -0.2034  0.1067 -0.1265
22645W        W38829  13.732  10.361   4.169  0.0732  0.0890  0.0332
22646W        W38830  14.934   5.003   2.409  0.4950 -0.3640  0.1523
22647W        W38831  18.312  19.256  12.331  0.0781 -0.2784  0.3191
22648W        W38832  17.478   2.925   1.055 -0.1117  0.0749  0.0920
22649W        W38833   5.163  17.584   9.690 -0.1137 -0.0831  0.0714
22650W        W38834   7.755   6.628   1.474  0.0452 -0.0866  0.2666
22651W        W38835   5.106  18.420  12.932  0.5533  0.1235  0.1371
22652W        W38836  14.000  10.775  14.816 -0.0556  0.0737 -0.0786
22653W        W38837  13.028  18.996  13.032  0.0570  0.0678 -0.1941
22654W        W38838   1.892   8.643  13.316  0.0339  0.0871 -0.0733
22655W        W38839  18.803   8.151  14.670  0.3888 -0.1053 -0.2991
22656W        W38840  16.186  10.502   1.516 -0.3068 -0.0147  0.1263
22657W        W38841   0.329  14.176   2.928  0.3894  0.2663 -0.3650
22658W        W38842  13.514   5.691  14.730 -0.0433 -0.5237 -0.0082
22659W        W38843  14.955   1.040   3.511 -0.0492  0.0662 -0.1888
22660W        W38844  14.878   0.127   3.518 -0.2204  0.0459  0.0414
22661W        W38845   5.168   3.781   4.572 -0.0687  0.2281 -0.0165
22662W        W38846   6.709   5.306   2.555 -0.1060 -0.0641  0.1710
22663W        W38847  15.782  17.871  11.310 -0.1827 -0.0114  0.1291
22664W        W38848   6.185  10.628   1.644  0.0794  0.2610  0.1684
22665W        W38849  10.166   2.476   4.347  0.1330 -0.0653  0.0437
22666W        W38850  16.131   0.758  13.936  0.2449 -0.0186 -0.1433
22667W        W38851  10.341  13.591   2.919 -0.3467  0.0373  0.0641
22668W        W38852   1.848  18.788  13.151 -0.1012 -0.1318 -0.1146
22669W        W38853  10.620   1.261   1.362 -0.0474  0.4952  0.0237
22670W        W38854   1.141   1.809   1.065  0.1951  0.0193 -0.1213
22671W        W38855  17.422  15.785  13.153  0.1674  0.3260  0.0724
22672W        W38856  13.162  17.460   4.366  0.2618  0.0429 -0.1920
22673W        W38857   8.115   8.513   3.820  0.1225  0.2031 -0.0489
22674W        W38858   8.369  15.259   5.325  0.4593 -0.3713  0.0828
22675W        W38859  17.851  13.115  11.747  0.0833 -0.3921 -0.1069
22676W        W38860  17.125   1.326  13.123 -0.0726  0.1356 -0.0243
22677W        W38861   3.176   5.612   9.179 -0.0557 -0.0913 -0.1423
22678W        W38862  11.376  16.899   4.211  0.0218  0.0584 -0.0160
22679W        W38863   2.408  11.941  11.343 -0.2577  0.0833  0.0075
22680W        W38864   2.785  19.038  14.028 -0.0037 -0.2091 -0.0375
22681W        W38865  16.876  17.244  10.932 -0.1883 -0.2191  0.1476
22682W        W38866   7.464  12.808   2.721  0.0965  0.0248 -0.2161
22683W        W38867  15.666  13.461   2.947 -0.1668 -0.0298 -0.2337
22684W        W38868  14.496  15.653  12.194  0.2683 -0.3711  0.3036
22685W        W38869  18.045   1.835   1.846  0.4511  0.2614  0.2004
22686W        W38870  12.065  19.264  13.739  0.0033  0.0112  0.0956
22687W        W38871  13.062   3.986  12.480 -0.1989 -0.2219  0.0401
22688W        W38872  15.418  13.739  13.042 -0.2557 -0.2068 -0.0720
22689W        W38873   6.154   6.780   2.263  0.3772  0.0393  0.0113
22690W        W38874  11.508   5.136   2.518 -0.2025 -0.2553  0.1242
22691W        W38875  10.881  11.103   2.281 -0.4681  0.1874 -0.1690
22692W        W38876  18.223  18.765  12.586 -0.0080  0.3159  0.0408
22693W        W38877   0.539   5.542   1.176  0.0039  0.0606  0.3411
22694W        W38878   0.002   3.999  14.361  0.0392 -0.3017  0.1706
22695W        W38879   3.222   4.872   1.541  0.2175 -0.0269  0.0525
22696W        W38880   3.332  10.171   4.351  0.2471 -0.3402  0.3392
22697W        W38881   9.251  11.154   0.632  0.1075  0.1019  0.1610
22698W        W38882  10.847  15.325  12.694  0.0746  0.0133 -0.3211
22699W        W38883   7.266   1.918   2.600 -0.3365 -0.2835  0.0986
22700W        W38884  16.955   7.745   4.562 -0.3047  0.3901  0.0636
22701W        W38885   5.369  17.640   2.094  0.1997  0.2303  0.0653
22702W        W38886  13.191  16.631   1.317  0.2393  0.1498 -0.3401
22703W        W38887  17.621   1.607   3.311  0.0078  0.0223  0.0179
22704W        W38888   1.283   9.035  14.721 -0.3461  0.2613  0.3155
22705W        W38889  16.592  11.483   0.555  0.0835 -0.0623  0.2377
22706W        W38890   4.301  18.605   5.940  0.3273  0.2514  0.4412
22707W        W38891   9.031   1.245  13.970 -0.1317 -0.0239 -0.1049
22708W        W38892  16.049   1.742   1.908 -0.1845  0.0121  0.0401
22709W        W38893  13.522  15.002  12.056  0.2108 -0.0113  0.0235
22710W        W38894   8.555   5.757  14.124  0.0443 -0.2249  0.0363
22711W        W38895  17.849   5.906  12.162 -0.0079  0.3549  0.4187
22712W        W38896  15.315   5.033   1.805 -0.0772  0.0118 -0.2027
22713W        W38897   3.123   5.668   0.211  0.0285  0.2701 -0.1211
22714W        W38898  13.831   4.158   8.815  0.1900 -0.0200  0.2240
22715W        W38899  19.062   9.311   1.773  0.0215 -0.1535 -0.2006
22716W        W38900   9.403  13.317  14.927  0.1796  0.3224 -0.6130
22717W        W38901  19.285  13.615  12.955  0.0979 -0.0330 -0.2205
22718W        W38902   1.166  11.867   4.718  0.2485 -0.1111  0.0782
22719W        W38903  15.214   5.792  11.506 -0.0249  0.0426 -0.1909
22720W        W38904  10.308  15.266   4.563 -0.1168 -0.0311  0.0958
22721W        W38905   9.565  16.574   6.006  0.1073 -0.0914  0.3678
22722W        W38906  16.189   7.313  10.037 -0.0669  0.0960 -0.1875
22723W        W38907  17.653  18.626  11.888  0.3125  0.2406  0.0309
22724W        W38908   3.276   5.664  12.024 -0.0323  0.0070 -0.3242
22725W        W38909   3.839  17.377  13.438  0.0434  0.0955 -0.0714
22726W        W38910  13.860  15.692  12.696  0.0151  0.1815  0.0567
22727W        W38911   9.127  14.752  13.254  0.1907 -0.0642  0.3429
22728W        W38912  13.275   4.620   3.059 -0.3038  0.2335  0.1423
22729W        W38913  13.808   3.879  12.953 -0.2188 -0.2937 -0.0858
22730W        W38914  12.380   9.491   4.954 -0.4640 -0.1381  0.0832
22731W        W38915  12.212   5.808   0.167  0.4860 -0.1779 -0.2505
22732W        W38916   7.144  13.157  14.256  0.1071  0.0523  0.2103
22733W        W38917   9.687  18.106  14.803 -0.0633  0.1121  0.3874
22734W        W38918   3.578   0.669  10.636 -0.2340 -0.1815  0.4734
22735W        W38919  15.052   2.952  12.510  0.2404  0.1188  0.1150
22736W        W38920  10.757   7.636   2.541  0.1907  0.1084 -0.1817
22737W        W38921   0.244   9.120  12.975  0.2588  0.3582  0.1278
22738W        W38922   2.635  15.336   4.723 -0.0786  0.1816  0.2026
22739W        W38923   9.354   8.839   1.404 -0.3774 -0.2198 -0.1542
22740W        W38924  12.675  14.824   4.437  0.1093  0.0242  0.2170
22741W        W38925   0.104  12.284  14.931  0.1990  0.3800  0.1438
22742W        W38926   0.289   6.266  14.588 -0.2704 -0.1087  0.1700
22743W        W38927  15.671  12.201   3.180  0.1909  0.1546 -0.1709
22744W        W38928  14.883   3.999  12.219  0.0828  0.1329 -0.2157
22745W        W38929  12.282   1.366  14.893 -0.1593 -0.1567 -0.0723
22746W        W38930   5.700   3.563  14.716  0.2354  0.0059 -0.0553
22747W        W38931   3.672   8.445  11.494  0.1321 -0.2234  0.1070
22748W        W38932   3.402  16.317   2.658 -0.3109 -0.1057  0.0331
22749W        W38933   4.630   9.555   1.218 -0.0123 -0.2099 -0.2251
22750W        W38934  16.562  15.299   4.454  0.0751  0.1005 -0.0821
22751W        W38935  17.578   4.423   3.507 -0.0409 -0.2843 -0.0700
22752W        W38936  13.096  14.141   4.818 -0.2204 -0.3640 -0.0586
22753W        W38937  16.555   7.125  12.916 -0.0922  0.0676 -0.2816
22754W        W38938   3.669  14.620  12.472  0.0220  0.0454 -0.0999
22755W        W38939   4.455   0.919   4.278 -0.0431  0.0111 -0.0164
22756W        W38940  12.710   1.098  13.594  0.3950  0.0000  0.0098
22757W        W38941   7.069   0.480   4.623 -0.1451  0.3132 -0.1309
22758W        W38942   8.174   8.796  11.365  0.1603  0.2283  0.0124
22759W        W38943   1.844   7.981  12.087  0.2062 -0.1522 -0.1624
22760W        W38944   2.310  18.212   2.299 -0.2844 -0.1359  0.1676
22761W        W38945   8.009  10.320  13.372  0.0573 -0.2316 -0.0210
22762W        W38946   4.362  10.304  13.799 -0.3227  0.1079 -0.2078
22763W        W38947   4.224  15.489  13.624 -0.1386 -0.0190  0.4969
22764W        W38948  18.531   5.483  14.650 -0.0340  0.0150 -0.2670
22765W        W38949  15.552   7.096  14.729 -0.1577  0.1579 -0.2319
22766W        W38950  18.336   9.111  14.890  0.0603  0.0606  0.0070
22767W        W38951  15.870  18.367   0.865  0.2038  0.0018 -0.0612
22768W        W38952   2.709  13.309   3.869  0.2693  0.1856  0.4913
22769W        W38953  12.020  10.170  10.822 -0.3219 -0.0961  0.1057
22770W        W38954   6.213  11.942   4.973  0.1431 -0.2030  0.0100
22771W        W38955  15.155  14.063  13.971  0.1504 -0.0471 -0.1068
22772W        W38956  18.458   4.673  11.295 -0.1160  0.0112  0.0037
22773W        W38957   7.195   2.575  11.859 -0.0367 -0.0956  0.2650
22774W        W38958   9.704   7.885   4.742  0.0645  0.0972 -0.0101
22775W        W38959  10.212   1.354   1.121 -0.1660 -0.1768 -0.0200
22776W        W38960   7.414   9.367  11.527 -0.0603 -0.2206  0.1340
22777W        W38961   6.329  10.122  11.533 -0.2674 -0.2859  0.1897
22778W        W38962   7.721   4.006  13.044 -0.0100 -0.0288  0.3050
22779W        W38963  14.137   3.786   3.591  0.1282 -0.1728  0.1175
22780W        W38964   4.793   7.714   2.909  0.1734  0.5636 -0.4057
22781W        W38965   3.542   9.162   3.612  0.1166  0.2031 -0.1895
22782W        W38966   6.179   4.390   4.025 -0.1487  0.2177 -0.2252
22783W        W38967  15.609   7.514   5.082  0.4241 -0.3862 -0.0262
22784W        W38968  18.590  12.456  11.029  0.0967  0.0342  0.3196
22785W        W38969  14.233   4.762  12.635  0.1193 -0.2209  0.1287
22786W        W38970   8.219   0.361  13.526  0.3519 -0.0878  0.1657
22787W        W38971   5.491   8.416  11.379  0.2470 -0.1853  0.1778
22788W        W38972   6.591  16.561  14.052 -0.3301  0.0823 -0.1930
22789W        W38973  15.637  17.172   1.915 -0.0861 -0.3796 -0.0176
22790W        W38974   2.852  10.543   4.212  0.3418 -0.3241 -0.0745
22791W        W38975   5.131   6.199   0.805  0.0377  0.2739  0.0660
22792W        W38976  12.079   9.037   2.661  0.0359  0.0425 -0.0095
22793W        W38977   8.858  13.616  11.492 -0.0170  0.2238  0.0134
22794W        W38978   7.663   6.334   3.061 -0.1824  0.1035 -0.1503
22795W        W38979   6.012   0.140   9.483 -0.1808  0.3527  0.0741
22796W        W38980  10.355   0.263  10.652 -0.1315  0.2415  0.0263
22797W        W38981   5.529   4.792  12.123  0.0157  0.1189 -0.0590
22798W        W38982   8.378  18.562   1.291 -0.0664 -0.0583 -0.1027
22799W        W38983   2.169  14.863   1.654  0.0954 -0.1289 -0.1613
22800W        W38984  18.814   7.759   1.456 -0.0881 -0.1363  0.2124
22801W        W38985  15.784   7.952  13.238  0.0366  0.0555  0.0541
22802W        W38986   2.184   9.442  13.992 -0.2707 -0.3330  0.1037
22803W        W38987  12.617   4.340   4.296  0.0224 -0.0499  0.0550
22804W        W38988   2.940   9.081  10.791  0.0273  0.1664  0.0110
22805W        W38989   3.549  17.689  11.354  0.1841 -0.0639 -0.1412
22806W        W38990  15.355  16.504   2.838 -0.0198  0.0095  0.0259
22807W        W38991   0.910   5.081   1.339  0.2960  0.1137  0.3296
22808W        W38992  13.133   5.594   0.672  0.0128 -0.0235 -0.2451
22809W        W38993  11.737  11.692   0.858 -0.1567 -0.2168 -0.1567
22810W        W38994  11.746   3.782  14.216  0.1036  0.0040 -0.3663
22811W        W38995  15.305   4.306   1.200  0.0680 -0.0157  0.0432
22812W        W38996  13.825  13.472  10.966 -0.1792  0.2569  0.0553
22813W        W38997  10.199   8.439   2.719 -0.1547  0.1212  0.2180
22814W        W38998   2.018  14.954   0.644  0.1768  0.1027  0.4217
22815W        W38999   7.851   8.608  12.923  0.3934  0.1161  0.1358
22816W        W39000  11.795  10.866   5.065  0.4173  0.3089 -0.0693
22817W        W39001  12.298   7.867   4.736 -0.3120 -0.0359 -0.0471
22818W        W39002  16.054   6.096  12.107  0.0329 -0.0164  0.0092
22819W        W39003   3.651  11.059   4.573 -0.2176  0.2653  0.2290
22820W        W39004   7.359   7.085  11.353  0.0912  0.0516 -0.0691
22821W        W39005  12.615  11.483   5.668 -0.0073  0.0768 -0.2665
22822W        W39006  11.189  12.759   1.507 -0.0852  0.1765 -0.3672
22823W        W39007   5.433  16.949  12.830  0.0123 -0.0996  0.3357
22824W        W39008   5.913   0.929   0.108  0.0584  0.2684 -0.4049
22825W        W39009   7.722  15.504   3.867 -0.1796  0.2890 -0.1512
22826W        W39010   9.920  15.186   1.464 -0.0454  0.2001 -0.0931
22827W        W39011   9.258   2.617  11.071  0.1051  0.0623  0.1809
22828W        W39012  15.288   6.228  13.721 -0.1141  0.1479 -0.3235
22829W        W39013   3.705  18.946   2.244  0.0303  0.0552 -0.1574
22830W        W39014  16.664   4.835   5.405  0.1498 -0.2306  0.2092
22831W        W39015   1.028  13.530  12.271 -0.1191  0.2593 -0.0873
22832W        W39016   7.147  11.621   1.375 -0.1843  0.1121  0.0362
22833W        W39017  15.991   9.645  13.814  0.0544 -0.0327 -0.1858
22834W        W39018  13.668   1.178  14.630  0.0778 -0.0194  0.3345
22835W        W39019  15.131   7.477  11.595 -0.2826  0.3120  0.0261
22836W        W39020   5.250   8.491  14.265 -0.0126 -0.0467  0.1758
22837W        W39021   5.963  14.829   0.297  0.2377  0.1546  0.0226
22838W        W39022   0.913  10.728  13.022 -0.0615  0.1163  0.2286
22839W        W39023  16.476  10.419   5.088 -0.2086  0.1716  0.0824
22840W        W39024  17.746  11.172   2.267 -0.1203 -0.3753 -0.1977
22841W        W39025  10.908  14.147  14.368 -0.0247 -0.4775  0.0330
22842W        W39026   1.682   3.256  11.763 -0.2260 -0.1284  0.1148
22843W        W39027   2.044  16.036   5.652  0.2401 -0.2512 -0.1452
22844W        W39028   4.615  17.679  13.913 -0.2423 -0.6465  0.0184
22845W        W39029  14.357  14.229   3.579 -0.1725 -0.1193  0.1375
22846W        W39030   8.955   0.818   3.791 -0.2539 -0.2164  0.1833
22847W        W39031  13.978  10.865   2.766  0.1100  0.2189 -0.0133
22848W        W39032   4.204   9.307   2.209  0.1911  0.1188 -0.2118
22849W        W39033  10.270   9.539  14.910 -0.0110 -0.3094 -0.5360
22850W        W39034  11.738  12.105   4.494 -0.1151 -0.1223  0.1356
22851W        W39035  17.984   8.539  11.621  0.1138 -0.2185  0.0205
22852W        W39036   7.541  16.368   1.465  0.1537 -0.0381 -0.0350
22853W        W39037   2.956  12.619  12.928  0.1077  0.1156 -0.3724
22854W        W39038  18.199  10.466   3.563 -0.2043  0.2142  0.1133
22855W        W39039  17.166  16.117  14.452 -0.0012  0.0316  0.1611
22856W        W39040  11.221   1.669  11.324 -0.0270 -0.0846 -0.0856
22857W        W39041  14.694   8.026   3.547 -0.0696 -0.0964 -0.0531
22858W        W39042   9.057  12.372   4.782  0.2366  0.0782  0.0010
22859W        W39043  14.645   3.074  14.782  0.0157 -0.1117 -0.0753
22860W        W39044   5.503  14.710  12.764 -0.0449 -0.3934 -0.1169
22861W        W39045  10.316   0.135   4.994 -0.2059 -0.1096  0.1381
22862W        W39046   6.229   9.030  12.436  0.3643 -0.3171  0.1858
22863W        W39047  13.046   0.608   0.073 -0.1047  0.2147  0.1668
22864W        W39048   6.036   1.163   0.709  0.1636 -0.2069  0.0314
22865W        W39049   2.509  13.070  13.391  0.0787 -0.1953  0.1598
22866W        W39050   7.248  13.223  13.347 -0.2544 -0.2857  0.0490
22867W        W39051   7.594   0.588  14.342  0.0946 -0.1498  0.0345
22868W        W39052  19.332   7.847  14.963  0.2384 -0.0035 -0.2196
22869W        W39053  18.005  14.575  14.183 -0.1198 -0.3489 -0.2154
22870W        W39054   3.242   4.130  10.262 -0.1934 -0.1358 -0.0611
22871W        W39055   5.420  13.078   0.338 -0.1868  0.0172  0.2514
22872W        W39056   2.138   0.180   2.332 -0.2186 -0.2104 -0.0743
22873W        W39057  18.169   4.123   4.310 -0.1466  0.3313 -0.0565
22874W        W39058  12.476   9.093  12.488 -0.1186  0.2571  0.1260
22875W        W39059  16.874   9.010   3.158 -0.0718 -0.1051 -0.0004
22876W        W39060  17.766  16.179  13.381  0.0407 -0.2752  0.4453
22877W        W39061   0.185  14.580   3.244 -0.1652  0.2036  0.1700
22878W        W39062  11.103   4.643  14.001  0.2006  0.0059  0.6015
22879W        W39063   4.212  12.150  10.828 -0.1205 -0.0796 -0.0417
22880W        W39064  18.074   6.013  11.691 -0.2461 -0.0472  0.2606
22881W        W39065  19.222   4.101   2.284 -0.2552  0.0487 -0.2963
22882W        W39066  12.673  17.690  12.519  0.0985  0.0978  0.1757
22883W        W39067  14.532   0.060  11.616  0.2414 -0.1450 -0.1707
22884W        W39068   9.863  16.686  11.850 -0.2777  0.1915  0.1348
22885W        W39069  14.358   6.117  13.243 -0.1329  0.2900  0.0633
22886W        W39070   3.096   9.386   0.899 -0.3639 -0.2305  0.0687
22887W        W39071  10.588  11.246   1.247 -0.4026  0.1765  0.0457
22888W        W39072   1.460  15.118  11.975  0.1127 -0.1244  0.0020
22889W        W39073   5.713   5.226  14.720 -0.0825 -0.0955 -0.0108
22890W        W39074  14.453   1.911  14.171 -0.1279 -0.2983 -0.0317
22891W        W39075  11.847  13.379   4.557  0.0466 -0.5497  0.2139
22892W        W39076  14.996  12.572   4.092 -0.2427 -0.1877  0.0989
22893W        W39077   8.445   7.540   0.470  0.0097 -0.1690  0.2533
22894W        W39078   8.789  11.787   4.039  0.0922 -0.0157  0.3147
22895W        W39079  10.731   7.106  12.006  0.2860 -0.2121 -0.1580
22896W        W39080   7.453  17.982   4.161  0.2540  0.0357 -0.0147
22897W        W39081   3.169  12.748  14.277  0.0492  0.2547 -0.1504
22898W        W39082  11.521  14.497  13.607  0.3624  0.3707  0.1430
22899W        W39083   8.109  13.942   2.344  0.3487  0.2575  0.0399
22900W        W39084  14.075   7.859   2.882 -0.1691 -0.1659  0.0500
22901W        W39085   8.264   8.779   1.626  0.0335  0.2685  0.0457
22902W        W39086   3.719  15.715  12.908 -0.0991  0.0489  0.1001
22903W        W39087   0.319  16.340  13.364  0.3363 -0.0144 -0.1063
22904W        W39088  11.903   6.896  12.611 -0.1914  0.0394  0.0412
22905W        W39089   2.845  15.605   1.715  0.1421  0.0328 -0.1831
22906W        W39090  13.483  18.162   2.779  0.3745 -0.2318 -0.1454
22907W        W39091   2.045   6.786   4.830  0.1724 -0.0625  0.2767
22908W        W39092  18.971   6.897   1.183  0.1447  0.2300  0.0297
22909W        W39093   5.608  12.513   0.352 -0.1531  0.0062 -0.1447
22910W        W39094   0.370  13.538  13.094 -0.1278  0.2145  0.1820
22911W        W39095   2.117   2.488  14.360  0.1483  0.1466 -0.0197
22912W        W39096  12.392   2.706   2.956  0.4951 -0.2911  0.1730
22913W        W39097  13.110   3.062  10.331 -0.0602  0.1120  0.0482
22914W        W39098  12.739  13.088  13.626 -0.0822 -0.1443 -0.1810
22915W        W39099   8.883   2.806   2.584 -0.0860  0.1573  0.1308
22916W        W39100  13.948  13.303  13.855  0.1027 -0.0533 -0.0846
22917W        W39101  13.684  17.974  12.663 -0.2224  0.0570  0.1706
22918W        W39102  11.219  10.933   0.348  0.1141 -0.1951  0.1617
22919W        W39103   0.404  15.815  14.676 -0.1615 -0.2856 -0.4776
22920W        W39104   0.087   4.709  11.854  0.0193 -0.1012 -0.2959
22921W        W39105   7.421   9.020   2.718  0.1258  0.0694  0.0469
22922W        W39106   1.933   2.979   3.145  0.1669  0.1834 -0.2402
22923W        W39107  14.783  16.070  12.343 -0.3499  0.2227 -0.2021
22924W        W39108   9.887  18.690   1.333 -0.0447 -0.3719  0.1878
22925W        W39109   8.187  17.031  14.328 -0.1870 -0.1240  0.0513
22926W        W39110  13.743  17.210  10.470 -0.1702 -0.2241  0.2783
22927W        W39111   0.615   3.489   0.314  0.1728  0.0516  0.1242
22928W        W39112  14.354   2.897   3.516  0.1412 -0.2602  0.0441
22929W        W39113  14.101   1.058   3.015  0.2038  0.1281  0.0360
22930W        W39114   5.197   5.217  10.858 -0.1172  0.2888  0.2337
22931W        W39115  16.145   2.316   2.918  0.0747  0.4052 -0.1141
22932W        W39116  14.724   9.709  13.516 -0.0954 -0.1017  0.1635
22933W        W39117   6.695   5.507  13.484 -0.0493 -0.0206 -0.2091
22934W        W39118  18.212   1.100  14.335 -0.0550 -0.1987  0.2594
22935W        W39119   8.399   6.980   2.331  0.0690  0.0882  0.0488
22936W        W39120  15.384  15.020  13.572  0.2740 -0.2475  0.1111
22937W        W39121   8.312  19.356  12.490  0.0788  0.0568  0.0932
22938W        W39122   5.414   4.707  13.847  0.3759 -0.3986 -0.2127
22939W        W39123  11.744  16.128   2.223 -0.0076 -0.1020  0.0724
22940W        W39124  11.218  18.368  13.229 -0.2967  0.2150  0.0736
22941W        W39125   6.672   7.348   0.481  0.0411 -0.2644  0.0658
22942W        W39126  15.317  15.753   4.463 -0.0813  0.2911  0.2462
22943W        W39127   6.190  11.428   3.866  0.1843  0.2024  0.0425
22944W        W39128   2.779  12.813  11.588 -0.1287  0.0019 -0.0380
22945W        W39129   4.412  14.276   3.105  0.4372  0.0889  0.0363
22946W        W39130  17.876   5.161   1.077 -0.1073  0.2446  0.0646
22947W        W39131  13.583  18.898   0.513 -0.4832  0.0350  0.1273
22948W        W39132   8.812  16.345  10.181 -0.2183 -0.0132 -0.0958
22949W        W39133   2.552   1.926  12.054  0.0942  0.2575  0.4242
22950W        W39134   1.039   2.343  10.204  0.0687  0.0692 -0.0159
22951W        W39135  13.755   3.850   0.119  0.0479 -0.2007  0.0152
22952W        W39136  12.038  19.166   4.118 -0.2063  0.2680  0.1731
22953W        W39137  15.181  11.982  11.587 -0.4175  0.0091 -0.2072
22954W        W39138  12.612   5.388   1.904  0.1662 -0.4963  0.2145
22955W        W39139  14.160   9.949  11.067 -0.2399 -0.0724 -0.0014
22956W        W39140   1.659  17.220   2.440  0.2378  0.2291  0.3348
22957W        W39141   9.991  14.930  11.743 -0.1461  0.1123 -0.0808
22958W        W39142  10.279   7.415  13.527  0.1644  0.0924  0.1037
22959W        W39143   8.484   1.163   2.477 -0.1754 -0.3219 -0.1348
22960W        W39144   0.561   5.309   0.652  0.5805  0.0629 -0.0294
22961W        W39145  14.959  15.442   6.017  0.2792 -0.1197  0.1344
22962W        W39146   3.174   4.041  12.108 -0.0561 -0.0330 -0.2261
22963W        W39147  11.374   9.637  11.134 -0.0387  0.1760 -0.3570
22964W        W39148  10.766   9.020  11.776 -0.1771 -0.0404 -0.0334
22965W        W39149   9.972   5.307   9.807 -0.0086  0.1061 -0.1066
22966W        W39150  14.519   9.099  11.958 -0.1182  0.2303 -0.0017
22967W        W39151   2.842  17.120  10.668 -0.0613  0.1859 -0.2294
22968W        W39152  19.157   1.995  13.242 -0.2704  0.3610 -0.3068
22969W        W39153  10.413   8.828   1.681  0.2660 -0.0572  0.2063
22970W        W39154  14.325  18.498  13.347  0.0882  0.2320 -0.2737
22971W        W39155   3.555  12.688   2.991  0.1141  0.2428  0.1577
22972W        W39156  13.660   6.198  10.473  0.0521  0.3172 -0.0435
22973W        W39157   1.449  16.076  12.855 -0.0980 -0.1085 -0.1336
22974W        W39158  12.497  15.144  14.058  0.3958  0.1204  0.0573
22975W        W39159   7.396  12.238  10.420  0.0256  0.1688 -0.0605
22976W        W39160  17.028  17.001   1.143  0.0657  0.1637 -0.0189
22977W        W39161   6.158   8.188   4.650  0.0141  0.2526  0.2098
22978W        W39162  12.619  16.959  11.400 -0.0455 -0.0032  0.0248
22979W        W39163   9.051   7.919   2.212 -0.0033  0.0425 -0.0573
22980W        W39164  18.900  17.578  11.478 -0.2593  0.1730  0.0136
22981W        W39165  11.572   2.366  14.183 -0.5583 -0.1354 -0.0692
22982W        W39166  14.280  15.750  10.719  0.2676 -0.0816  0.0545
22983W        W39167  17.732   7.614   2.250  0.1306  0.2609 -0.2239
22984W        W39168  18.074   6.625   1.103  0.1415 -0.1043 -0.2895
22985W        W39169  15.961  15.189   3.055 -0.1733 -0.2697  0.2827
22986W        W39170  10.619  10.007  10.908 -0.3939  0.1466  0.0562
22987W        W39171  15.617   3.745  12.983  0.0638  0.2043  0.2284
22988W        W39172   5.786   7.510   0.813  0.1096  0.1324  0.2203
22989W        W39173   8.797   0.426   3.219  0.0927  0.0459  0.0124
22990W        W39174   7.744   9.182   0.995 -0.1665  0.2075  0.0499
22991W        W39175   1.085   1.236  11.051  0.4957  0.1221  0.1944
22992W        W39176  12.724   2.428   1.554 -0.1269 -0.0284  0.1163
22993W        W39177  10.840  18.758   0.488  0.0184 -0.1611  0.1689
22994W        W39178   6.394  10.539   1.221 -0.1144  0.1775  0.0066
22995W        W39179   9.613  16.215  11.967  0.3347 -0.1622  0.0780
22996W        W39180  17.069  13.096   2.916 -0.0106  0.1991 -0.1371
22997W        W39181  18.584   1.219  13.396  0.1911  0.3341 -0.1115
22998W        W39182   3.033  11.070   2.054  0.2533 -0.2802 -0.0122
22999W        W39183  12.699  12.467  10.972  0.1507  0.0327 -0.1111
23000W        W39184   4.783   7.734  11.542  0.0305 -0.1065 -0.0061
23001W        W39185  14.694   2.882   0.272 -0.1839 -0.2267  0.0270
23002W        W39186  15.399   7.217  12.837 -0.1760 -0.1582 -0.0219
23003W        W39187  16.757   3.718  10.489  0.1701 -0.0676  0.0265
23004W        W39188   2.404   0.633  14.705  0.0074 -0.0531  0.5020
23005W        W39189  17.120   7.706   0.948 -0.1418 -0.1879  0.0001
23006W        W39190   4.269   6.690  14.028  0.4391  0.0618  0.2922
23007W        W39191  18.144  16.078   3.931  0.1133 -0.0232  0.0955
23008W        W39192   8.761  12.983   9.753  0.0803 -0.2811 -0.2177
23009W        W39193   3.298  16.938  12.834  0.1518  0.2328  0.0157
23010W        W39194  13.279   8.211  12.206  0.0280  0.3314  0.3742
23011W        W39195   5.241   3.429   2.825  0.1503  0.0053  0.0274
23012W        W39196   8.735   8.245  12.945 -0.2922  0.2248 -0.1661
23013W        W39197  13.064   0.713  10.321 -0.1270  0.3987 -0.1877
23014W        W39198   3.381   3.137   1.960 -0.2499  0.0175 -0.0986
23015W        W39199   2.784  13.484  12.538  0.3833 -0.0783  0.0773
23016W        W39200   4.233  17.238  14.842 -0.0644 -0.0340 -0.1192
23017W        W39201  15.307  13.507  11.875  0.1938 -0.0488  0.0657
23018W        W39202   4.269   9.487  10.775 -0.1255  0.0657 -0.1001
23019W        W39203   3.524   0.814   2.020 -0.2126  0.1423 -0.1153
23020W        W39204   4.433   7.101   1.507  0.0881 -0.1916  0.0509
23021W        W39205  18.872  10.783   3.441  0.4624 -0.1121 -0.3515
23022W        W39206   8.463  14.490   4.677 -0.0720 -0.1593  0.1859
23023W        W39207  16.961   6.838   1.925  0.0091 -0.1863 -0.2310
23024W        W39208   4.624  14.180  12.672 -0.4460 -0.2855 -0.2682
23025W        W39209   7.259   9.935  13.194  0.2553  0.1153 -0.0917
23026W        W39210  18.191  13.537   0.987  0.0655 -0.1608 -0.0535
23027W        W39211  14.483   4.810   2.885  0.1174 -0.3234 -0.3811
23028W        W39212   0.644  10.755   4.217  0.3858  0.0557  0.1827
23029W        W39213  12.115   3.745   1.976  0.2846  0.3785 -0.2959
23030W        W39214   6.234   8.608  12.001  0.0410  0.2344  0.0304
23031W        W39215  11.045   6.531   0.019  0.4189  0.2472  0.2474
23032W        W39216   1.816  11.323  14.040  0.0446  0.2011  0.0289
23033W        W39217   9.429  18.762   3.510 -0.1188  0.2503  0.0817
23034W        W39218  10.181  13.267  13.533  0.0889  0.1093  0.1483
23035W        W39219  18.959   4.910  11.167 -0.0736 -0.1415  0.2857
23036W        W39220   4.577   9.306  12.301 -0.0253  0.1721 -0.0052
23037W        W39221   8.815   2.104   4.808 -0.1765  0.2606  0.1592
23038W        W39222   2.153   5.483   3.589 -0.2560  0.0306  0.1138
23039W        W39223  15.508   3.442   2.243  0.2913  0.0510 -0.0336
23040W        W39224  12.303   6.447  13.758 -0.2682 -0.4593  0.1790
23041W        W39225  14.039  10.777   4.017  0.4356 -0.1957 -0.2870
23042W        W39226   3.920  13.490   2.757 -0.2596 -0.4210 -0.0819
23043W        W39227   9.658  12.265   3.200 -0.0349 -0.1512 -0.3338
23044W        W39228  12.218  11.953   4.126 -0.2639  0.1092  0.0106
23045W        W39229  13.689  14.124   1.004 -0.1286 -0.0126 -0.0667
23046W        W39230   4.933   6.128   0.283  0.1845  0.0523  0.1259
23047W        W39231   7.287  16.360  14.100  0.1295  0.1083  0.1983
23048W        W39232  16.594  17.081   3.041 -0.0846 -0.2926  0.3477
23049W        W39233   7.644   5.437  11.806 -0.2496  0.2985 -0.0614
23050W        W39234  16.338   7.135   4.114 -0.3475  0.0233 -0.1944
23051W        W39235   6.843   8.678   0.190  0.0947  0.1509 -0.0446
23052W        W39236   6.634   7.451   3.186  0.1432 -0.2228  0.5648
23053W        W39237   3.445  16.167  11.612  0.2606  0.2385  0.1588
23054W        W39238  18.239  12.508   0.066  0.1022 -0.0459  0.1341
23055W        W39239   5.765  14.587  11.925 -0.0174 -0.3086  0.0113
23056W        W39240   2.420  14.000   4.204 -0.1661 -0.0251  0.2516
23057W        W39241   4.805  10.545   4.238  0.2549 -0.2127  0.2277
23058W        W39242  10.571  19.019  13.897 -0.1278  0.1527  0.1743
23059W        W39243  17.061  16.168   1.043  0.0852 -0.0712 -0.1786
23060W        W39244   4.919   9.723   3.542  0.1614 -0.0306 -0.1127
23061W        W39245  19.200  15.188  10.518  0.0209  0.2696  0.2708
23062W        W39246   6.200  10.911   0.631 -0.2340  0.0553  0.0775
23063W        W39247   1.135   2.668  14.043 -0.0431 -0.0105 -0.0468
23064W        W39248   2.366   3.070   3.406  0.0138 -0.1907 -0.0057
23065W        W39249  12.883   2.179   2.908 -0.2973  0.0642  0.1876
23066W        W39250  14.885   2.826  12.963 -0.1825 -0.1775 -0.0792
23067W        W39251  13.028  17.091   4.945  0.3607 -0.0557 -0.0895
23068W        W39252  14.589  10.402   5.120 -0.1086  0.2492 -0.2452
23069W        W39253  16.958   1.051   4.975  0.2364  0.0240 -0.1597
23070W        W39254   2.756   2.475   2.057 -0.0777 -0.2268 -0.0866
23071W        W39255  13.340   5.411   1.096 -0.2038 -0.2804  0.1885
23072W        W39256  11.783  17.291  12.320  0.1652 -0.3048  0.2507
23073W        W39257  10.650   4.718   1.674 -0.0129  0.0072  0.3335
23074W        W39258  18.270  14.185  13.572 -0.1582 -0.0109  0.1585
23075W        W39259  15.828   2.804   4.489  0.0397  0.2102  0.0041
23076W        W39260   7.857   6.288   0.415 -0.0153 -0.1287 -0.2478
23077W        W39261   0.297  10.581  14.654 -0.1075 -0.0911  0.1383
23078W        W39262   2.443   3.290  10.484  0.0307 -0.1973  0.0412
23079W        W39263  14.018  15.711   0.556 -0.3508  0.0447 -0.2168
23080W        W39264  10.946   6.297   0.588  0.0303  0.2073 -0.0750
23081W        W39265  14.036   9.862  14.162 -0.1378 -0.0394  0.3257
23082W        W39266   5.225  15.824  14.647 -0.3135 -0.0663 -0.1239
23083W        W39267   5.464   2.287  14.231  0.0251  0.2979 -0.0212
23084W        W39268   6.873   6.830   2.807  0.0465 -0.1152  0.1633
23085W        W39269   2.866   3.869   4.736  0.1308  0.0796 -0.2255
23086W        W39270   9.581  17.444   9.701 -0.1322  0.1714  0.0905
23087W        W39271   6.138   4.566  11.428  0.1215 -0.2379 -0.2346
23088W        W39272   8.637   6.444   4.652 -0.1057  0.2097 -0.3839
23089W        W39273   2.517   6.575   0.737  0.0823  0.0198 -0.0262
23090W        W39274   0.582  12.818   1.857 -0.1411 -0.0287  0.1066
23091W        W39275   7.182   2.971   0.433 -0.2572  0.1098 -0.0460
23092W        W39276   9.789  11.395   3.288  0.1025 -0.1463 -0.0476
23093W        W39277   5.259  11.057  11.202 -0.1415  0.0245 -0.1195
23094W        W39278  14.219   8.649  12.830  0.3032 -0.0455  0.0147
23095W        W39279  13.256   4.611  12.597  0.2466 -0.1003 -0.0452
23096W        W39280  15.883   5.116  13.865 -0.1468 -0.1545  0.0984
23097W        W39281   1.120  14.049  13.574  0.1100  0.1444  0.0340
23098W        W39282   9.712  12.707   4.238 -0.0711 -0.1639 -0.2341
23099W        W39283   9.442   3.480  12.875 -0.1262 -0.0050  0.0047
23100W        W39284   9.117  16.931  14.416  0.1106  0.0236  0.2200
23101W        W39285   7.974   6.844   0.604  0.2624  0.1622  0.1316
23102W        W39286  13.461   2.976   0.361  0.2058  0.0294  0.1662
23103W        W39287  18.011   9.434   1.318  0.0024  0.0239 -0.1454
23104W        W39288  14.229   1.000   0.272 -0.1056 -0.1149  0.3680
23105W        W39289  10.798   7.656  12.921  0.1807 -0.2678  0.0201
23106W        W39290  13.524   6.373   2.461  0.1510  0.3029 -0.3273
23107W        W39291  10.678   8.543  11.563 -0.1472  0.0126 -0.3192
23108W        W39292   2.471  16.932  13.834 -0.0644  0.0719  0.1005
23109W        W39293   0.132  14.752  11.613  0.1813 -0.1818 -0.0919
23110W        W39294  10.118  17.433   1.232 -0.4575  0.2056 -0.0957
23111W        W39295  13.666  12.406   0.270 -0.0851 -0.3227  0.2036
23112W        W39296  15.178  11.364  14.116  0.1482 -0.0954  0.0212
23113W        W39297  11.602   1.338  11.142  0.2800  0.2214  0.2380
23114W        W39298  12.035   8.845  10.872 -0.0154 -0.4075  0.2473
23115W        W39299  13.929   0.257  14.107  0.0309 -0.0646 -0.2235
23116W        W39300   8.690  12.705   4.658  0.0823 -0.0994  0.3533
23117W        W39301  10.593  16.990   3.310 -0.0880  0.0934  0.0266
23118W        W39302  15.603  14.215   4.215  0.1599  0.2733 -0.1730
23119W        W39303  13.321   2.887   1.238  0.1794  0.0541 -0.1098
23120W        W39304  17.616   2.103   3.447 -0.2403 -0.3446 -0.4335
23121W        W39305  14.048  15.621   1.432  0.2999  0.0988  0.3153
23122W        W39306  15.711   5.479   3.791 -0.1329  0.0370  0.1395
23123W        W39307  15.518  11.033  14.364  0.1311 -0.0462 -0.0556
23124W        W39308   6.998   3.980  12.650 -0.5120  0.1577  0.1587
23125W        W39309  10.206  11.578  10.249 -0.1501  0.0857  0.1400
23126W        W39310  18.834  15.999  10.957  0.2722  0.1238  0.0184
23127W        W39311   0.197   7.350   3.167  0.3910 -0.0710 -0.2011
23128W        W39312   1.787  12.634   5.035 -0.0328 -0.1109  0.1632
23129W        W39313  12.440   6.779   1.599  0.1000 -0.2897 -0.0142
23130W        W39314  13.683  10.567  14.531  0.0684 -0.1862 -0.2940
23131W        W39315   2.057   7.037   1.856 -0.2033  0.1405  0.2535
23132W        W39316   6.272  17.390   3.387 -0.3197  0.1008  0.1755
23133W        W39317   3.748   1.621   4.171 -0.3228  0.1294  0.2891
23134W        W39318   5.625   2.872   0.443 -0.2862 -0.0767  0.1161
23135W        W39319   4.933   9.636  14.126 -0.0716  0.5332  0.1517
23136W        W39320   8.976  11.816   3.542 -0.0399  0.1207 -0.1170
23137W        W39321  15.394  18.362   2.617  0.1752 -0.1957  0.1951
23138W        W39322  10.902  18.581   1.225  0.0423 -0.0766 -0.3513
23139W        W39323  15.709  11.916   3.786 -0.1502  0.1921  0.2513
23140W        W39324   1.018  17.935   3.802 -0.2301 -0.3820 -0.0327
23141W        W39325   9.286   5.538   0.146 -0.2641 -0.1071 -0.3380
23142W        W39326   7.391   8.967  14.512  0.2914 -0.2908  0.3194
23143W        W39327   8.859  10.825   1.977 -0.2429 -0.1576  0.3287
23144W        W39328   2.941  12.485  12.003 -0.0442 -0.1971 -0.1877
23145W        W39329   3.159  10.826  11.113  0.2615 -0.2245 -0.1269
23146W        W39330  16.445  16.860   3.529  0.2035  0.0138 -0.2898
23147W        W39331  10.973   2.365   0.541 -0.0173 -0.2314  0.2201
23148W        W39332   2.682   0.657  12.358 -0.6266 -0.0835  0.1101
23149W        W39333   1.683  18.880  11.285 -0.1045  0.0519  0.0921
23150W        W39334   4.977   5.334   2.107 -0.4173  0.0045 -0.0183
23151W        W39335   6.353   4.760  14.672 -0.3913 -0.2839  0.1172
23152W        W39336  18.744   2.867   3.927 -0.0210 -0.4530  0.4769
23153W        W39337   7.182  10.995  10.946 -0.0017 -0.3883  0.2161
23154W        W39338   7.088  12.917  10.648  0.1837  0.0441  0.1191
23155W        W39339  11.079   6.569  10.138  0.1640 -0.0486  0.1940
23156W        W39340  17.948   2.331  10.601 -0.0084 -0.1225 -0.0624
23157W        W39341  14.024  17.588  10.485 -0.0459 -0.0434 -0.3501
23158W        W39342   0.342  15.563   0.155  0.3701  0.3060  0.2126
23159W        W39343   2.648  15.448   5.912 -0.1532  0.2493  0.1323
23160W        W39344  17.242  13.961   4.167 -0.2513  0.4322  0.0109
23161W        W39345   4.022   0.408   2.625  0.0946  0.2574 -0.0480
23162W        W39346   4.554   7.907  12.425  0.0004 -0.0465  0.5508
23163W        W39347   3.033  18.909  13.340  0.1410  0.1324 -0.0557
23164W        W39348   0.436   2.945   3.840 -0.1457 -0.1677 -0.0670
23165W        W39349   4.006  12.616  13.039 -0.0375 -0.0754  0.1109
23166W        W39350  13.933  15.055   0.250  0.1447  0.1999  0.0784
23167W        W39351   3.695   4.677   3.518  0.2622  0.1768 -0.0170
23168W        W39352  19.347  17.263   1.030 -0.2057 -0.0827  0.2262
23169W        W39353  14.661   7.458  11.210 -0.0013  0.4525 -0.2606
23170W        W39354   8.224   4.097  14.240  0.0625 -0.0071  0.2221
23171W        W39355   9.934  12.091  14.299 -0.0014  0.1453 -0.2701
23172W        W39356  10.292  18.493  10.873  0.0961 -0.0923 -0.1361
23173W        W39357  17.088   3.059   3.519  0.1958  0.4809 -0.1390
23174W        W39358  10.811  13.937   0.548  0.2478  0.0676 -0.3675
23175W        W39359  11.279  18.744   3.293 -0.0154 -0.0307 -0.0153
23176W        W39360  10.894  15.170   0.090  0.0866 -0.0115 -0.1670
23177W        W39361  15.867   9.674   3.346 -0.1304  0.0519  0.1569
23178W        W39362   7.040   8.099  12.774  0.0909  0.1193  0.0281
23179W        W39363   5.886  18.840   3.931  0.1173  0.4309 -0.1322
23180W        W39364  19.063  10.806   2.982 -0.2196  0.0895  0.1012
23181W        W39365  16.986  15.325  10.365 -0.4003  0.1581  0.2395
23182W        W39366   7.478   9.855  12.370 -0.0234  0.0306 -0.0346
23183W        W39367  12.416   3.042   3.357  0.2346 -0.0585  0.1359
23184W        W39368   6.751  17.351  14.605 -0.0814 -0.1704 -0.2195
23185W        W39369   2.327   1.406   4.060 -0.0866 -0.0413 -0.0382
23186W        W39370  16.542   9.821  12.887  0.2609  0.1151 -0.1621
23187W        W39371   7.699   6.130   1.321  0.2051  0.4925  0.3021
23188W        W39372   4.667   9.180  11.442 -0.0468 -0.4998 -0.0043
23189W        W39373   4.842  15.848  10.650  0.2884  0.0090 -0.1841
23190W        W39374   0.952   8.518   3.815 -0.1625  0.0203  0.0722
23191W        W39375   1.886  13.563  12.380 -0.1992  0.1678  0.1993
23192W        W39376   6.472   2.152  10.163  0.2852 -0.1667 -0.3023
23193W        W39377   5.145   8.978   2.323 -0.2349 -0.0885 -0.2860
23194W        W39378   2.872  11.875   3.951 -0.0817 -0.1434  0.1848
23195W        W39379   3.910   6.843  11.063 -0.1063 -0.0926  0.1570
23196W        W39380  13.664   2.270   3.358  0.0526  0.1150 -0.0280
23197W        W39381  13.213   6.739   0.957 -0.0602  0.1872  0.0722
23198W        W39382   6.269   2.886  14.204  0.0377 -0.0980 -0.1096
23199W        W39383  12.832  18.124  13.277 -0.0205 -0.1260 -0.1342
23200W        W39384   7.417  13.366   5.158 -0.0948 -0.0492  0.0097
23201W        W39385   5.033   1.543   2.081  0.0365  0.0152  0.2180
23202W        W39386   6.925   3.076  14.549 -0.3357 -0.0998 -0.2045
23203W        W39387   3.327   5.959   2.973  0.0674  0.2212  0.1200
23204W        W39388   7.070  12.766   3.041  0.2730 -0.1934 -0.1267
23205W        W39389  15.100  13.510   1.049 -0.2552 -0.1122 -0.2112
23206W        W39390   7.255   9.235  13.466 -0.0322 -0.4200  0.3552
23207W        W39391  14.666   7.610  14.670  0.2243 -0.0384 -0.1780
23208W        W39392   7.646  18.223  12.185 -0.0905 -0.3086  0.1260
23209W        W39393   8.811   0.147   2.531  0.1817 -0.0144  0.0514
23210W        W39394   6.291  11.237   5.398 -0.2800  0.1870 -0.0304
23211W        W39395   2.429  17.377   4.635  0.2282 -0.4026 -0.0244
23212W        W39396   7.667  11.915  11.453  0.1484  0.0599 -0.3867
23213W        W39397   0.587  14.807  10.602  0.0603 -0.4228  0.2190
23214W        W39398   5.625   5.006   4.507 -0.1275  0.0661 -0.0906
23215W        W39399   7.473  14.321  12.616 -0.3049 -0.0633 -0.1739
23216W        W39400   8.226   8.601  10.118 -0.0501  0.3406 -0.0182
23217W        W39401  15.317  18.892  14.218 -0.1371 -0.3774  0.1373
23218W        W39402   0.975  10.663   0.802 -0.2213  0.2506 -0.0797
23219W        W39403  17.031   7.373  14.723  0.0001  0.1889 -0.2005
23220W        W39404  11.329  13.555  11.187 -0.0590 -0.1155 -0.0096
23221W        W39405   5.823  14.013  10.195 -0.0020  0.0613 -0.3048
23222W        W39406   2.379  12.011   5.301 -0.3159 -0.3787 -0.0758
23223W        W39407  10.353  14.574   0.036 -0.2763  0.0796  0.0267
23224W        W39408   3.895  11.322  12.122  0.1379  0.0451 -0.3564
23225W        W39409   8.985   2.820   1.042 -0.3186 -0.3183 -0.0007
23226W        W39410   4.847   6.537   2.184  0.0117  0.0280 -0.1519
23227W        W39411   6.516   7.666  12.666 -0.2577  0.0946  0.1617
23228W        W39412  14.002  18.115   0.510  0.1007  0.0486  0.0527
23229W        W39413  17.974   5.346   0.166 -0.2115 -0.0809 -0.0856
23230W        W39414   8.791   4.851  12.504 -0.0770  0.3401  0.1499
23231W        W39415  17.350  16.991  10.934  0.0080  0.0959  0.2648
23232W        W39416  13.761  15.112   2.127 -0.1600  0.2684  0.1617
23233W        W39417  10.922   2.764   3.253 -0.2118 -0.2551  0.0219
23234W        W39418   7.104   8.257   2.561 -0.1098 -0.1207  0.1638
23235W        W39419   2.721   6.653   3.927  0.4285  0.0366  0.2181
23236W        W39420   4.384  17.654   3.075  0.1752 -0.4038  0.1334
23237W        W39421   2.213   9.244  12.526  0.2239 -0.1268 -0.0086
23238W        W39422   9.059   3.329   4.505  0.0655  0.3509 -0.0643
23239W        W39423   0.212  10.391   2.115 -0.1544 -0.0740 -0.1067
23240W        W39424   9.193   1.289   1.766  0.1437  0.0943  0.0576
23241W        W39425  11.524  10.982  11.701 -0.1679 -0.1206 -0.4126
23242W        W39426   2.666  11.526  11.520  0.0599 -0.1634 -0.1043
23243W        W39427  18.460  15.090   2.407 -0.1020  0.0785 -0.0255
23244W        W39428  15.585   8.767  10.919 -0.0159  0.0438 -0.0200
23245W        W39429   6.989  11.636   3.022  0.1921 -0.1307 -0.4094
23246W        W39430   8.958  11.595  12.002  0.2161 -0.2294 -0.1808
23247W        W39431   1.926   0.952  14.088  0.0482  0.2343 -0.0712
23248W        W39432  10.690   0.826   2.556 -0.0355 -0.1060  0.4487
23249W        W39433   5.054   3.811  14.074  0.0215  0.0563  0.0238
23250W        W39434   5.896  19.009   2.223  0.2093 -0.0447 -0.0499
23251W        W39435   3.717   4.072  10.379 -0.1460  0.2718 -0.2723
23252W        W39436  11.323  10.925   1.964  0.1368 -0.1634  0.1424
23253W        W39437  19.208  14.918   0.535 -0.2399 -0.3251  0.2204
23254W        W39438  10.026   8.784   0.558  0.1180 -0.1690  0.1599
23255W        W39439   4.247  12.403  12.634  0.2090  0.1341  0.1091
23256W        W39440  12.951  14.019   9.969 -0.0637 -0.3294 -0.3885
23257W        W39441   7.100  17.903  13.555  0.2524  0.0711 -0.0963
23258W        W39442   6.898  13.257   2.025  0.0845 -0.1291 -0.0266
23259W        W39443  14.746   8.613  14.226  0.1028  0.0002 -0.1409
23260W        W39444  11.244  18.355   2.058  0.1749  0.0360 -0.0047
23261W        W39445  17.289  12.658   2.920  0.1948 -0.1349 -0.2483
23262W        W39446  16.932  17.437  11.820  0.0151  0.0644 -0.3903
23263W        W39447  12.572   9.838   3.961 -0.0882 -0.0139 -0.0599
23264W        W39448  16.509  13.846   1.859 -0.2208  0.2347  0.1112
23265W        W39449   2.592   8.056  13.362  0.0791 -0.0455  0.1731
23266W        W39450  15.773  18.473  13.318  0.1627  0.0885  0.1065
23267W        W39451  14.338  15.974  14.392 -0.0674  0.1904 -0.3966
23268W        W39452  16.028  11.850   1.170  0.2196 -0.1509  0.2289
23269W        W39453  11.960  13.903  12.849  0.0323 -0.5523  0.3525
23270W        W39454   7.397   5.059   2.303  0.1891  0.1466  0.0800
23271W        W39455   2.054   5.956  12.455  0.4184 -0.0315 -0.0288
23272W        W39456  10.839   7.080   0.784  0.1239 -0.1887 -0.2591
23273W        W39457   7.023  15.838   0.121 -0.0992  0.1385 -0.1381
23274W        W39458   2.381  13.453   0.831 -0.0996  0.1021 -0.1071
23275W        W39459   3.276   0.904   2.663 -0.3112  0.0579 -0.0283
23276W        W39460  10.799  14.430  13.874 -0.1042  0.1793  0.1717
23277W        W39461   0.520   8.045   0.191 -0.2135  0.1391  0.4031
23278W        W39462  16.180   0.060   0.656 -0.3304  0.0700  0.0424
23279W        W39463  14.075  18.155   3.124 -0.3637 -0.1126 -0.0408
23280W        W39464  17.850   8.097  11.194  0.0352 -0.2722 -0.2350
23281W        W39465   5.922  12.631   9.907  0.0587  0.3099 -0.0651
23282W        W39466  18.138  10.065   4.676 -0.1247  0.0882  0.1620
23283W        W39467   5.972  14.845  10.486 -0.2126 -0.3265 -0.1526
23284W        W39468  10.164  18.969  12.744 -0.0618 -0.1602 -0.0734
23285W        W39469   2.145   5.112  13.689  0.4437 -0.2695 -0.4138
23286W        W39470   1.197   1.414   3.004  0.0377 -0.1049  0.3583
23287W        W39471   6.002   4.063  13.083  0.2620  0.4123 -0.1233
23288W        W39472  16.409  14.103  12.583 -0.2677 -0.0356 -0.1338
23289W        W39473  10.924   0.337  13.527  0.0238 -0.1593 -0.0810
23290W        W39474  16.570  16.226   3.490 -0.0522 -0.4917  0.0433
23291W        W39475   8.430   6.483   2.188 -0.3090  0.1191  0.1600
23292W        W39476   5.821  16.565  11.387 -0.0301  0.3080  0.0456
23293W        W39477  18.049   6.484  11.432  0.0057  0.4530 -0.0713
23294W        W39478   2.354  19.315   1.931  0.0306  0.0991 -0.1149
23295W        W39479   5.774   4.067   2.447  0.4004 -0.1276 -0.1210
23296W        W39480   1.724   3.777  11.829  0.0641 -0.0113 -0.1242
23297W        W39481  16.172   4.617  13.232 -0.0376 -0.2163 -0.4006
23298W        W39482   3.207  10.693  11.650 -0.1420 -0.3079 -0.1322
23299W        W39483   1.082   3.820   1.121  0.0370  0.0977  0.1330
23300W        W39484   9.868   7.400   3.776 -0.1076 -0.1905  0.2412
23301W        W39485   6.079   3.414  13.836  0.2387  0.2631  0.0302
23302W        W39486   9.815   2.094   4.420  0.0286  0.1534 -0.1220
23303W        W39487  13.147  14.449  14.043 -0.1019 -0.2440 -0.0596
23304W        W39488   1.610   2.968  14.692  0.0512  0.0133 -0.3322
23305W        W39489   0.355  12.978   3.771 -0.2165 -0.6660 -0.1623
23306W        W39490  10.232  14.918  14.510  0.3635 -0.0400  0.1468
23307W        W39491  16.096   3.773   3.453  0.1025 -0.0104  0.1059
23308W        W39492  19.330   4.606  13.447  0.1894  0.2076  0.0032
23309W        W39493   9.732  15.755   1.794  0.0933  0.0348 -0.0815
23310W        W39494   8.922   6.702   2.901 -0.0062  0.2104 -0.0027
23311W        W39495   3.948  18.632   0.936  0.0490  0.1285  0.2945
23312W        W39496   0.925   1.024  12.032  0.1877 -0.2553  0.0784
23313W        W39497   4.227   4.716   4.845 -0.1492 -0.1469 -0.2254
23314W        W39498  12.531  15.799   2.107  0.2641  0.0025 -0.1084
23315W        W39499   2.763   0.768   4.620 -0.4696 -0.0446  0.0246
23316W        W39500   2.430  10.183   1.493  0.1910  0.1937 -0.2150
23317W        W39501  12.042   6.071  10.731 -0.0496  0.2415 -0.0527
23318W        W39502   2.537  12.113   1.306  0.0756  0.2340 -0.2864
23319W        W39503   6.891   8.547  10.189  0.1269 -0.0544  0.1698
23320W        W39504   1.826   0.207   3.524  0.0035  0.1991  0.3565
23321W        W39505  18.713  13.726   4.563 -0.0599  0.0066  0.0093
23322W        W39506   3.738  16.370   3.862  0.0474  0.1780  0.2168
23323W        W39507   5.942  17.503  11.682  0.1536 -0.1591  0.2468
23324W        W39508   1.927   0.758   3.508 -0.0133 -0.2320  0.2788
23325W        W39509  16.410   8.602   3.612 -0.1389  0.1241  0.1556
23326W        W39510  16.686   9.033  11.340  0.2692 -0.4873  0.2176
23327W        W39511  17.966   2.824   1.114 -0.0896  0.2244 -0.2010
23328W        W39512  11.925  18.831  14.867 -0.0439 -0.1568  0.0141
23329W        W39513   7.824   9.638   1.910  0.0872 -0.1037 -0.0225
23330W        W39514  12.080   3.231  11.315 -0.1380 -0.0049 -0.0984
23331W        W39515  16.416   7.591   1.491 -0.1085 -0.0978 -0.0956
23332W        W39516   8.495  13.391   4.892  0.1875 -0.1204  0.1439
23333W        W39517  18.882  14.217  12.819  0.2710 -0.0196  0.1690
23334W        W39518   1.299  17.025   2.036  0.0207  0.1478  0.1154
23335W        W39519  10.301   1.288   2.475 -0.0825  0.0078  0.3547
23336W        W39520  16.281   2.798  12.537  0.2700  0.1065 -0.1366
23337W        W39521   2.766  17.272   3.602 -0.1455  0.0457 -0.1750
23338W        W39522   7.302   6.041   3.237  0.1667  0.2448 -0.0988
23339W        W39523  15.578   4.180  11.152 -0.0589  0.1563  0.1544
23340W        W39524  14.957   2.470  14.821 -0.2322 -0.1765  0.3166
23341W        W39525   8.273   4.005   1.410  0.0982 -0.0928  0.0312
23342W        W39526  13.814   7.692  13.602 -0.0085 -0.0808  0.1755
23343W        W39527   0.459  11.532   0.420  0.2864 -0.1792 -0.0217
23344W        W39528   0.716   2.873  13.876 -0.2009 -0.1647  0.0226
23345W        W39529  17.659   6.278   3.587 -0.0027 -0.1905  0.2169
23346W        W39530   5.042  12.226  11.366 -0.3182 -0.0097  0.1062
23347W        W39531   8.354   8.871  11.960 -0.0131  0.1383 -0.3159
23348W        W39532  14.019  16.452   1.847 -0.1322  0.1645  0.2817
23349W        W39533  15.686  11.164   2.215  0.1267 -0.0486  0.1952
23350W        W39534  13.991   2.334   3.735  0.3094 -0.2034  0.3032
23351W        W39535  18.867   0.124   4.066 -0.1232  0.2359  0.1228
23352W        W39536  16.643  16.742  13.990 -0.1896 -0.0701 -0.2777
23353W        W39537  11.719   4.325  11.777 -0.1547  0.0773  0.0174
23354W        W39538   6.163  11.675  10.563  0.0458 -0.0204  0.1567
23355W        W39539  16.627  11.355   3.785 -0.0495 -0.0577 -0.0768
23356W        W39540   0.526   4.606  14.516 -0.0933  0.0446 -0.1327
23357W        W39541   1.357   7.834  13.766  0.1318 -0.2660  0.0417
23358W        W39542  12.374   6.884  10.443  0.2072 -0.0177 -0.0805
23359W        W39543  14.157   0.846  11.883  0.0888  0.3422  0.0524
23360W        W39544   8.755  11.732   1.114 -0.2490  0.2035  0.0314
23361W        W39545  19.101   6.820   3.356 -0.3327 -0.1869 -0.0790
23362W        W39546  18.368  17.372   0.188 -0.1392  0.0358  0.1229
23363W        W39547  10.484   1.560  13.876  0.4916  0.1951 -0.0583
23364W        W39548  13.669  10.302  14.974  0.0210  0.2215 -0.0988
23365W        W39549  14.400   5.990   0.469 -0.2323 -0.2432 -0.1217
23366W        W39550  17.892   2.297   4.436 -0.0023  0.2237 -0.0121
23367W        W39551   5.907  15.307  11.181  0.1716  0.2031  0.1375
23368W        W39552  12.017  18.423   3.883 -0.2422  0.2505 -0.1513
23369W        W39553  18.326   2.027   2.691  0.0195  0.3393 -0.1296
23370W        W39554   6.496  18.758  11.031  0.0258 -0.0211 -0.0885
23371W        W39555   2.414  18.521  14.572 -0.0278 -0.0011 -0.2603
23372W        W39556  10.928  13.034   0.112 -0.0199  0.0673  0.1471
23373W        W39557  14.180  16.209   1.418  0.0242  0.1332 -0.1722
23374W        W39558   5.388  10.087   1.435 -0.0286 -0.0887  0.5000
23375W        W39559  14.669   1.713   2.035 -0.2541 -0.0089  0.1732
23376W        W39560  16.001   5.216   9.168 -0.0454  0.0086 -0.0426
23377W        W39561   4.100   6.762   0.397 -0.0105  0.2818  0.3478
23378W        W39562  16.008  17.219  13.600 -0.5227 -0.1980  0.0442
23379W        W39563   7.433  10.406  14.703 -0.4303 -0.1421  0.2492
23380W        W39564   6.782  13.379   2.991 -0.0925  0.3093 -0.2374
23381W        W39565  12.941  12.425   0.719 -0.3459 -0.1438 -0.0287
23382W        W39566   5.854   3.526   3.589 -0.1017  0.0711  0.1160
23383W        W39567  19.058   6.623  14.247 -0.0357 -0.1404 -0.1915
23384W        W39568  17.686  18.441   0.329 -0.1526  0.1361 -0.2100
23385W        W39569   0.777   8.217  11.331  0.0273  0.2104 -0.1936
23386W        W39570  16.881  12.782  14.385  0.1695  0.0751 -0.0408
23387W        W39571  19.208   4.093  13.917 -0.0795  0.3301 -0.1407
23388W        W39572   6.499  14.136   0.426  0.5261  0.3594  0.0805
23389W        W39573  10.662   8.994   2.134 -0.0378  0.0916 -0.2935
23390W        W39574  18.330  17.294   3.182 -0.1650 -0.1748 -0.5446
23391W        W39575  16.460   3.262  13.160  0.1953  0.1901 -0.0946
23392W        W39576  14.873   8.926  13.240  0.1706 -0.0238 -0.0016
23393W        W39577   8.236   5.881  13.523 -0.0520  0.1531 -0.0307
23394W        W39578   4.786   8.906  14.939 -0.1076  0.1172 -0.0613
23395W        W39579  14.860   4.561   0.479 -0.1529  0.2527  0.1429
23396W        W39580   8.159   4.297  10.758  0.0528 -0.0203 -0.3038
23397W        W39581  18.213   5.210  10.604  0.1121 -0.1631  0.1213
23398W        W39582   1.087   6.211   1.862  0.0107  0.3205 -0.1058
23399W        W39583  14.732   6.827   3.764 -0.3006 -0.1835 -0.1363
23400W        W39584  13.803   6.595   4.538 -0.1218  0.2343 -0.0912
23401W        W39585  13.216  10.085   5.559 -0.3279 -0.1579  0.1485
23402W        W39586   6.722  15.255   0.802 -0.2628  0.1938 -0.3335
23403W        W39587   7.669  15.629  14.176 -0.0720  0.0885 -0.1152
23404W        W39588   3.037  18.062   4.447 -0.1128 -0.0381  0.2057
23405W        W39589   5.032   1.152   0.474 -0.0933 -0.0541 -0.1059
23406W        W39590   2.212   9.913  14.260 -0.2480  0.3806 -0.1660
23407W        W39591   4.874   9.129  11.007 -0.0022 -0.3305  0.0658
23408W        W39592   5.320   7.431  12.566  0.0542 -0.3200  0.0921
23409W        W39593  17.857  16.330   5.000  0.0541 -0.0313  0.0197
23410W        W39594   8.805  11.645  11.203  0.0453 -0.0103  0.0044
23411W        W39595  15.495   9.667  11.049  0.3018  0.4193 -0.1419
23412W        W39596   0.990   8.011  10.566  0.2265 -0.1879 -0.4087
23413W        W39597   4.349   1.035  12.998  0.0089 -0.0603 -0.1229
23414W        W39598  10.708  13.794   1.750 -0.0340  0.1688 -0.0752
23415W        W39599   2.101   0.897   1.251  0.1512  0.0366  0.1087
23416W        W39600  10.780   5.195  12.805  0.2783 -0.1443  0.1071
23417W        W39601   2.298   8.727  11.887  0.1809  0.2617 -0.0262
23418W        W39602   4.403  16.255   0.836 -0.3343  0.1669 -0.2084
23419W        W39603   9.592  12.581  10.978 -0.1582 -0.0927  0.2176
23420W        W39604  13.304  18.607  13.294  0.1984  0.0241 -0.2389
23421W        W39605   1.351  17.108  12.560 -0.1950  0.0080 -0.0079
23422W        W39606   0.286  19.019   3.032  0.0454 -0.0448  0.0197
23423W        W39607  17.019  17.251  12.452  0.3120 -0.3213 -0.5899
23424W        W39608   5.928  10.439   2.857 -0.2813 -0.0969  0.0095
23425W        W39609   1.376  10.585   2.753  0.0096  0.0609  0.0135
23426W        W39610   3.055   8.981   4.729 -0.0521  0.0837  0.0419
23427W        W39611   0.916  15.111  12.061 -0.2907  0.0230 -0.2659
23428W        W39612  12.576  13.750  11.598 -0.0792 -0.0787  0.3502
23429W        W39613   0.335   6.722  14.756  0.0396  0.0992  0.0522
23430W        W39614  16.507  12.452   2.314 -0.1329  0.0751  0.0667
23431W        W39615  13.813  17.822   1.757  0.0163 -0.1057 -0.3022
23432W        W39616  16.178  15.639   1.036 -0.2156  0.2725 -0.0075
23433W        W39617  10.988  17.751   1.629 -0.3107 -0.0776 -0.0292
23434W        W39618   3.760   7.675   3.216 -0.0232 -0.0105 -0.3292
23435W        W39619  13.574   8.134  11.219 -0.1738  0.2144  0.3297
23436W        W39620   4.027  14.070  10.659 -0.1737  0.1820  0.0041
23437W        W39621   6.554   8.157  11.148  0.2984 -0.0949  0.3093
23438W        W39622   8.799   4.756   1.332  0.6432  0.4023  0.2754
23439W        W39623   8.385  19.199   5.057  0.0710  0.2955  0.1978
23440W        W39624  15.980  18.501  12.071 -0.2546 -0.1603 -0.2814
23441W        W39625   5.946  12.013  10.940 -0.1965  0.0435 -0.0894
23442W        W39626   8.438  14.138   1.391  0.3071 -0.2417  0.0431
23443W        W39627   4.106   8.931   4.379  0.1753  0.1196  0.1376
23444W        W39628  12.826  19.044   0.454  0.1907  0.1811  0.2353
23445W        W39629   2.116   3.107  11.926  0.1980 -0.2489  0.0168
23446W        W39630  15.638  11.123   1.191  0.3036 -0.1058  0.1460
23447W        W39631  13.926   0.800   0.677  0.2013  0.0561  0.1342
23448W        W39632  15.771  10.677  14.837  0.0693 -0.0185 -0.1709
23449W        W39633   9.998  17.844   2.205 -0.2086  0.1931  0.1364
23450W        W39634  16.725  13.196  13.082 -0.1425 -0.3224 -0.0103
23451W        W39635   3.145   6.144  13.009 -0.0291  0.0599 -0.0044
23452W        W39636   8.618   9.937   2.728  0.0829 -0.0601  0.2510
23453W        W39637   4.973  12.442  14.868 -0.1957 -0.2860 -0.2228
23454W        W39638   0.557  17.622   1.799  0.5807 -0.1392 -0.0417
23455W        W39639   9.089   8.237  10.826 -0.3264  0.1149  0.0531
23456W        W39640  12.664   6.758   5.144  0.2144  0.1151  0.2247
23457W        W39641  14.341   3.207  10.881  0.2022 -0.3155 -0.1398
23458W        W39642  18.291   7.440  12.247 -0.4485  0.3011 -0.1472
23459W        W39643   7.034  12.546   1.305  0.0442  0.0931  0.2800
23460W        W39644  13.085  11.362  12.813 -0.0361  0.1039  0.1039
23461W        W39645   7.488  16.944   1.284 -0.1681 -0.2244 -0.4857
23462W        W39646  12.453  11.900   0.068  0.1980  0.1258 -0.1315
23463W        W39647  12.121   2.949  10.429 -0.1936  0.1349 -0.0124
23464W        W39648  13.557   8.823  10.797 -0.1232 -0.1668 -0.4522
23465W        W39649  19.018   6.289  13.292 -0.0928 -0.2632 -0.1193
23466W        W39650   7.630  13.566  13.733  0.1379  0.1804 -0.0621
23467W        W39651   3.819   4.210   3.813 -0.0527  0.3617  0.2055
23468W        W39652   5.348   0.232   2.206 -0.1367  0.0882  0.3332
23469W        W39653  17.526   5.890  11.782  0.3238  0.3368  0.1462
23470W        W39654   5.700   6.278  12.034 -0.1171  0.0100  0.0014
23471W        W39655   4.082   8.687   0.584  0.1340  0.0770 -0.0296
23472W        W39656   4.976  17.807  12.680  0.1388  0.1065  0.0095
23473W        W39657   7.698   2.666  12.699 -0.0110  0.3867  0.0176
23474W        W39658   1.063   5.936   4.118 -0.1677  0.2695  0.1068
23475W        W39659  18.882   2.169   3.544 -0.0740 -0.3109  0.0092
23476W        W39660   3.648  16.162  14.284 -0.0645 -0.1708 -0.0762
23477W        W39661   1.368   9.295  13.198 -0.3619 -0.0260 -0.2381
23478W        W39662  13.722   9.799   2.122  0.2395  0.1878  0.5080
23479W        W39663   1.889   8.955  12.165 -0.2094 -0.2058  0.2155
23480W        W39664  11.263  14.932  11.943 -0.0095  0.0359 -0.1328
23481W        W39665   2.764  10.988  11.647  0.0600  0.0300 -0.0774
23482W        W39666  12.380  10.761   9.419  0.1014  0.1423 -0.2497
23483W        W39667  10.177   4.129   1.459 -0.2804 -0.1194  0.0183
23484W        W39668   5.574  12.406  11.476  0.0710  0.2714 -0.2279
23485W        W39669   8.161  11.581  14.814 -0.1649 -0.3895 -0.1446
23486W        W39670   4.683   6.674  10.585 -0.2400 -0.0230  0.0821
23487W        W39671  16.488   5.159  10.817 -0.1189 -0.1728 -0.3883
23488W        W39672  10.337   1.019   2.040 -0.2254  0.0136  0.0457
23489W        W39673   4.856  16.466   4.914  0.3098 -0.0083 -0.1502
23490W        W39674  16.615  14.890   5.445 -0.2232  0.2649  0.3134
23491W        W39675   3.991   6.128  11.689 -0.0672 -0.1012  0.0021
23492W        W39676  14.603  17.622   4.541  0.1884  0.1487 -0.0082
23493W        W39677   0.340  18.660  12.036 -0.0558 -0.2943 -0.0878
23494W        W39678   4.453  17.799   5.389  0.1404  0.2449  0.0128
23495W        W39679  11.066  18.825  13.975 -0.1308  0.1932 -0.2881
23496W        W39680  13.727   0.156   4.520 -0.1900 -0.0689 -0.2950
23497W        W39681   6.388  16.043  14.172 -0.1212  0.7431  0.1453
23498W        W39682   2.226  14.544   5.953  0.1329  0.0880 -0.0401
23499W        W39683  18.370  15.377  14.115 -0.0814 -0.0284 -0.1957
23500W        W39684  12.598   0.797  14.964 -0.0093  0.3367 -0.0111
23501W        W39685  16.897  14.546  11.518 -0.0179  0.1952  0.0716
23502W        W39686   8.177  10.706  11.257 -0.3130 -0.2484 -0.0230
23503W        W39687   7.404   5.694   1.476  0.1087 -0.3525  0.3112
23504W        W39688   7.999   5.469  11.406  0.0741  0.3816  0.3875
23505W        W39689   8.719  14.671  12.298  0.0047  0.1950 -0.0488
23506W        W39690   4.453  16.496   1.562 -0.1536  0.0577  0.0259
23507W        W39691  12.090  13.349   0.999  0.0899  0.0511  0.0471
23508W        W39692   7.380  17.591   4.494  0.0041 -0.0903 -0.0955
23509W        W39693  11.851  17.764  10.574 -0.0702 -0.0430 -0.0142
23510W        W39694   3.154  15.885  10.511  0.1979 -0.1515 -0.2965
23511W        W39695   8.036  16.369  10.800 -0.0415  0.2320 -0.1151
23512W        W39696   4.975  16.694  14.389 -0.2618 -0.1632  0.0794
23513W        W39697   4.856  16.385   1.271  0.0182  0.0061  0.0443
23514W        W39698   8.885   2.137  14.475 -0.0950  0.1425 -0.2431
23515W        W39699   8.244   2.882   1.738 -0.2260  0.2745 -0.0495
23516W        W39700  10.309   8.603   1.224  0.1709  0.4238  0.2503
23517W        W39701  15.602   3.386   1.639 -0.2282 -0.0082 -0.1715
23518W        W39702  17.142  13.976  14.872 -0.0818  0.0905 -0.1922
23519W        W39703  18.681   2.814  13.422 -0.1824 -0.0023 -0.0219
23520W        W39704   1.304  14.292   0.228 -0.5539  0.1515 -0.3233
23521W        W39705  15.267  18.535   3.656 -0.0820 -0.1016  0.2161
23522W        W39706   0.272   2.026  12.512  0.3883 -0.1464 -0.0913
23523W        W39707  18.935  13.240  13.555 -0.0600 -0.0390 -0.0021
23524W        W39708   3.096   7.580  12.893 -0.0372 -0.0939  0.1600
23525W        W39709  15.653   7.425   3.646  0.1460  0.2592  0.0772
23526W        W39710   0.140   2.117   0.082 -0.0900 -0.0120 -0.0479
23527W        W39711  18.611  17.651  13.820 -0.0702 -0.0387 -0.1128
23528W        W39712   9.725  17.294  10.580  0.0560  0.0154 -0.3176
23529W        W39713   7.664   2.081   2.806 -0.4464  0.1676 -0.1449
23530W        W39714  11.129  15.421   2.943  0.2019 -0.0180 -0.2491
23531W        W39715  12.313   9.155   0.496 -0.1832 -0.1011 -0.1009
23532W        W39716  13.931  15.973  14.080 -0.0987  0.0780 -0.2291
23533W        W39717  11.699  10.562   2.716  0.3509 -0.1351  0.0252
23534W        W39718   9.412  16.624  14.731  0.0324  0.0133 -0.2216
23535W        W39719  11.675   9.271  12.741  0.0790  0.0581  0.1484
23536W        W39720   3.903   2.113   0.995  0.1082 -0.0925  0.0104
23537W        W39721  11.575  17.093   3.698 -0.2778 -0.0135  0.0813
23538W        W39722  16.715  15.270   3.635  0.0643  0.1670  0.2109
23539W        W39723   7.085   5.789  13.104 -0.2597  0.0929 -0.0088
23540W        W39724   4.236  10.494  12.491  0.2088 -0.1307 -0.0569
23541W        W39725  11.089   2.546   2.405  0.0872  0.0940  0.1790
23542W        W39726   7.439  12.839   1.189  0.0792  0.1858 -0.1895
23543W        W39727  13.599  17.063  14.448 -0.2062  0.0160 -0.0986
23544W        W39728   8.250  10.280   0.108 -0.0690 -0.0152 -0.1569
23545W        W39729   0.508   2.785   2.692  0.0671  0.2293 -0.1588
23546W        W39730   9.145   4.271  11.242  0.0536  0.0717  0.1159
23547W        W39731   0.079   1.904   4.830  0.1048  0.0143  0.4731
23548W        W39732  12.139   2.030  12.133 -0.1404 -0.0554  0.2892
23549W        W39733  13.905   7.635   3.805  0.2395 -0.0958  0.2714
23550W        W39734   0.608   7.594   3.895 -0.4262 -0.1202 -0.0853
23551W        W39735   8.988   9.293  14.884 -0.0503 -0.1160  0.3803
23552W        W39736  14.371   3.277   4.287 -0.0364  0.2769 -0.1613
23553W        W39737   0.625  18.479   9.572  0.2028 -0.0778  0.1665
23554W        W39738  14.442   2.458   3.827 -0.3304  0.0602  0.0960
23555W        W39739   9.068   7.349  10.828  0.0678  0.1000 -0.1056
23556W        W39740   7.837  18.522   3.193 -0.0997  0.1216 -0.1887
23557W        W39741   6.010  11.561   2.614 -0.2754  0.0433  0.0848
23558W        W39742   4.123   6.317  12.124 -0.0063 -0.0552 -0.1364
23559W        W39743  12.876   1.723  10.982 -0.1744 -0.2802 -0.2699
23560W        W39744   0.744  10.815   3.309  0.0014  0.0773  0.2537
23561W        W39745  15.017  10.149  13.516 -0.0806  0.0533  0.0647
23562W        W39746  15.880  12.856  12.874 -0.1410  0.3041 -0.1192
23563W        W39747  12.914   0.925   0.431 -0.2713  0.1289 -0.2299
23564W        W39748   8.714   0.029   1.069  0.2746 -0.2615 -0.2499
23565W        W39749  11.431   2.861   3.345 -0.1133  0.5370  0.3563
23566W        W39750   3.648  19.185   0.798  0.0358 -0.0330 -0.0086
23567W        W39751   7.847   7.725  13.322 -0.1005 -0.0334 -0.0324
23568W        W39752   9.128   6.985  12.913  0.0488  0.2131  0.1923
23569W        W39753   2.250   0.869  11.048 -0.0137  0.0222 -0.1696
23570W        W39754   3.004   1.103  12.303  0.1946 -0.2523 -0.3879
23571W        W39755  14.737  14.870  10.843 -0.1019 -0.0604  0.3122
23572W        W39756   4.223   7.918  13.939  0.2651 -0.1317  0.1464
23573W        W39757   3.756  19.238  12.873  0.2153 -0.1629  0.0940
23574W        W39758   2.151  10.796  13.631  0.1755  0.1084  0.1019
23575W        W39759   4.215  11.393   3.388  0.0724 -0.4193 -0.2077
23576W        W39760  15.262   2.104   4.875  0.0523  0.1717  0.0055
23577W        W39761   0.262   6.879   2.802 -0.3885  0.1712  0.1770
23578W        W39762  17.005   7.639  11.005 -0.1519 -0.2272  0.1478
23579W        W39763   7.788  15.528   0.076  0.0344 -0.0222  0.1999
23580W        W39764   6.918   0.031   4.423  0.2946  0.0514  0.0239
23581W        W39765  17.571   4.938   5.412 -0.1388 -0.1621 -0.1074
23582W        W39766   0.144  14.719   3.718 -0.1854 -0.2542 -0.4456
23583W        W39767  14.531  16.109  11.048  0.1559 -0.4284  0.0270
23584W        W39768   3.260  10.365  10.633 -0.0441 -0.0194 -0.2011
23585W        W39769   5.719  14.546  10.238  0.0303  0.3055  0.0712
23586W        W39770  14.063   2.549   2.507  0.0677 -0.0028  0.0821
23587W        W39771  14.492  10.681   4.158  0.0051  0.0586  0.5589
23588W        W39772  17.388   1.596   3.802 -0.1111 -0.0848 -0.2080
23589W        W39773   5.493   5.330  10.095  0.0210  0.0288 -0.2572
23590W        W39774  14.133  19.254  12.845 -0.0036 -0.0922 -0.0472
23591W        W39775  11.778  18.191   3.174 -0.1882  0.0904  0.0141
23592W        W39776   6.207  16.301   1.375 -0.2708 -0.0798 -0.2122
23593W        W39777   4.358  15.947  14.878  0.1224  0.2051 -0.2176
23594W        W39778   4.471   0.502   2.330  0.1152  0.0883 -0.2166
23595W        W39779  16.192   3.748  10.522 -0.2634 -0.2780  0.0902
23596W        W39780   2.020  18.646  13.692 -0.2606 -0.0601 -0.0707
23597W        W39781   9.518   5.992   9.886 -0.1182  0.0897 -0.1070
23598W        W39782  11.448  13.361  10.670 -0.1177  0.3056  0.5785
23599W        W39783   6.626  11.308   3.075  0.0003 -0.0708 -0.2317
23600W        W39784  18.388   1.012  11.716  0.1419  0.1385  0.0501
23601W        W39785   9.924   5.095  12.099 -0.3441 -0.1647 -0.4112
23602W        W39786   6.930   5.486   1.475 -0.3809  0.0902  0.1579
23603W        W39787  16.717  11.613  11.319  0.1666  0.2020 -0.0381
23604W        W39788  13.822  18.541  11.773  0.1065  0.0010 -0.0322
23605W        W39789   8.680  13.551   5.746  0.1535  0.2052  0.2198
23606W        W39790  19.169  14.800  13.975 -0.1511  0.0003 -0.1816
23607W        W39791   4.720   3.334   1.510  0.0828 -0.0640  0.0269
23608W        W39792   2.158  16.784   3.050  0.1338  0.1355  0.0342
23609W        W39793  16.974   9.682   1.742 -0.0508  0.1504  0.0235
23610W        W39794   6.797  18.992  14.796  0.1799 -0.0408 -0.0906
23611W        W39795  13.547  18.263   5.268  0.1000 -0.4540 -0.0614
23612W        W39796  17.352  16.398   2.094  0.2121  0.3232  0.3386
23613W        W39797  14.433   3.724   2.476 -0.1388 -0.0400  0.0004
23614W        W39798   2.284  15.971   5.130  0.1847  0.4383  0.0745
23615W        W39799  10.616   9.547  11.958  0.1282  0.4381  0.2822
23616W        W39800   3.436   7.242   3.434  0.3265 -0.2864  0.3113
23617W        W39801  15.538   5.836  14.589 -0.4291  0.0151 -0.1041
23618W        W39802   1.466  10.850  13.870 -0.1859  0.0735  0.2581
23619W        W39803  16.787   1.553   9.480  0.0473  0.2813 -0.0934
23620W        W39804   1.289   4.121  13.595 -0.0636  0.0443  0.2438
23621W        W39805  13.426  17.031   4.167 -0.3553 -0.2209 -0.0599
23622W        W39806  11.938   8.832  12.654 -0.1931  0.0520 -0.0169
23623W        W39807  11.546   6.180   3.878  0.1437 -0.1738  0.0594
23624W        W39808  17.647   6.208   1.911  0.0338  0.3914  0.3872
23625W        W39809   7.144   6.132   4.143  0.1081  0.1363  0.1097
23626W        W39810  11.348   7.046   0.874  0.0572 -0.0313 -0.2222
23627W        W39811   3.803  16.106  14.876 -0.0941 -0.0523  0.0548
23628W        W39812   7.747   0.397   1.840 -0.3398 -0.0810  0.1792
23629W        W39813   2.249  18.617   2.649 -0.2741 -0.1390 -0.0438
23630W        W39814  12.173   4.477  11.647  0.0907 -0.0132  0.2414
23631W        W39815  11.500  13.198   4.888 -0.0283  0.1374 -0.0228
23632W        W39816   0.059  16.759   2.484 -0.3026  0.0345  0.3051
23633W        W39817  11.330   0.285   2.528 -0.2985  0.1156  0.2225
23634W        W39818  13.632   7.028   0.850 -0.0057 -0.0526 -0.0917
23635W        W39819  16.536   4.304   5.518 -0.1271 -0.1857 -0.0697
23636W        W39820  17.616   0.327   5.390  0.1063  0.0766  0.1889
23637W        W39821   3.693  15.179  12.604  0.1913 -0.3464 -0.2260
23638W        W39822  14.989  14.693  13.435  0.0206  0.1313  0.2427
23639W        W39823   1.366   5.437  13.683 -0.0327  0.1027 -0.0262
23640W        W39824   5.536  17.979   2.987 -0.0303 -0.2426 -0.1985
23641W        W39825   6.101  12.523   4.183 -0.3232 -0.0614 -0.1484
23642W        W39826   0.466  17.486  11.349  0.2025 -0.1573  0.0187
23643W        W39827   3.045   7.802   0.871  0.2152  0.1376 -0.2403
23644W        W39828  13.298  18.930   3.915  0.5050 -0.2159 -0.0195
23645W        W39829  18.289  10.248   9.668  0.0500  0.0559 -0.1714
23646W        W39830  12.100  19.018   5.363 -0.0302  0.3075 -0.2647
23647W        W39831   0.818  10.060   5.167  0.0939 -0.1078 -0.0412
23648W        W39832   2.921   6.807  13.161  0.0725 -0.1384 -0.0497
23649W        W39833  14.502   8.834   0.941  0.0755  0.3954  0.0674
23650W        W39834  16.335  10.145   0.856 -0.1699  0.2832 -0.0980
23651W        W39835   9.330  15.454  11.403 -0.1229 -0.1040 -0.2145
23652W        W39836   0.850   5.737   1.916  0.2956  0.0129  0.0057
23653W        W39837   3.974  11.088   9.864 -0.0270 -0.1001 -0.0054
23654W        W39838  18.072  19.306  13.591  0.1033 -0.0374 -0.2937
23655W        W39839   6.613   3.845   2.011 -0.4785  0.2244 -0.0472
23656W        W39840  18.028   1.761   2.999  0.0971 -0.3135 -0.0785
23657W        W39841   3.130   0.311   4.610 -0.1234  0.2419  0.2775
23658W        W39842   8.700   6.815  11.491  0.2865  0.0409 -0.0273
23659W        W39843  17.099  17.538   3.431 -0.2313  0.0606 -0.2160
23660W        W39844  15.417   2.940   8.956 -0.0515 -0.1560 -0.0244
23661W        W39845  15.769  14.211   9.957  0.3642  0.2731 -0.1093
23662W        W39846   4.983  13.966   1.483  0.1174  0.0198 -0.2385
23663W        W39847   7.073   0.430   4.087  0.0115 -0.1884 -0.1154
23664W        W39848  19.269  15.100   0.992 -0.4203 -0.0549 -0.0057
23665W        W39849   1.241  12.585  14.013  0.0886 -0.1896 -0.4184
23666W        W39850   7.102  12.896   3.984 -0.1209  0.1433  0.1496
23667W        W39851   1.194  11.901  12.359 -0.0129  0.2734  0.1383
23668W        W39852   9.459   0.688   0.424  0.0939  0.2495 -0.0809
23669W        W39853   1.850   9.548   0.043  0.3567 -0.1413  0.2492
23670W        W39854   9.881  16.348  11.488 -0.1169 -0.0317  0.0760
23671W        W39855   7.163  17.903   1.202 -0.1739  0.3212  0.0092
23672W        W39856   9.232   9.033   3.311  0.4013  0.2006  0.0883
23673W        W39857  14.515   3.988  14.518  0.5135 -0.1805 -0.0323
23674W        W39858   0.952  14.980   4.276  0.0428 -0.0088  0.2385
23675W        W39859   1.189  13.717   2.134 -0.0284 -0.0777  0.2396
23676W        W39860  15.899  17.956   2.941  0.0024 -0.2149  0.1062
23677W        W39861   1.432  18.526   9.932 -0.2232  0.3565  0.1025
23678W        W39862  16.523  12.942  11.954 -0.2073 -0.1989  0.0647
23679W        W39863  11.501  19.075  14.806  0.0107  0.4528  0.1303
23680W        W39864  11.699   4.405   9.872  0.1066 -0.0124  0.1991
23681W        W39865   5.060   9.719  13.519  0.1635 -0.2033 -0.2662
23682W        W39866  14.413   3.342   3.250  0.1420 -0.1533 -0.0759
23683W        W39867  13.392   4.539   1.590  0.1322 -0.1429  0.1489
23684W        W39868   9.781  10.047   1.916  0.2210  0.0329 -0.0469
23685W        W39869  15.834  17.526  14.544  0.0550 -0.5016  0.0129
23686W        W39870  18.718  10.641  11.529 -0.2461  0.1685  0.2037
23687W        W39871  18.424  17.099  10.981  0.1654  0.0307 -0.0342
23688W        W39872   9.853  10.247   2.708  0.0587  0.0333 -0.0961
23689W        W39873  15.022   6.320   9.666 -0.3271  0.0294 -0.2627
23690W        W39874   7.577  12.162  13.573  0.0247 -0.3489 -0.2627
23691W        W39875   7.665   7.229  14.699 -0.1596  0.0499 -0.2168
23692W        W39876  17.402  17.529   4.354 -0.0892 -0.0521 -0.0490
23693W        W39877   7.293  17.904  11.985  0.3861  0.1760 -0.0053
23694W        W39878   9.101   6.797   4.746 -0.2461 -0.0251 -0.1435
23695W        W39879  15.738   5.658  12.821  0.0345  0.1538 -0.1563
23696W        W39880   4.291  16.956  12.173 -0.3430 -0.0236 -0.1253
23697W        W39881   9.275   6.386  10.274  0.1766 -0.0582 -0.0425
23698W        W39882   5.379   0.457  14.974 -0.3252  0.0020  0.2498
23699W        W39883  16.749  13.773  12.393  0.2587 -0.2093  0.1404
23700W        W39884   5.231  11.462   2.176 -0.1196 -0.0217 -0.2402
23701W        W39885  17.431  12.932  12.461  0.0325 -0.1765 -0.0181
23702W        W39886  17.965   5.894   3.438  0.0545 -0.0531 -0.0968
23703W        W39887  17.725   4.759  13.431 -0.1600  0.1337 -0.0706
23704W        W39888   2.602   7.523   1.120  0.1589 -0.0595  0.0162
23705W        W39889   8.324  11.260   3.100  0.0000  0.0507 -0.1077
23706W        W39890  17.385   8.590  10.326  0.1252 -0.0055  0.0704
23707W        W39891   9.759   8.304   9.710 -0.2888  0.0308  0.0084
23708W        W39892  10.099   2.667  10.517  0.2061  0.0798  0.2759
23709W        W39893   6.478   6.783  10.575 -0.0911  0.1116  0.0586
23710W        W39894  17.317   4.776   1.268  0.0418 -0.2220 -0.2383
23711W        W39895   2.962  13.083   5.016 -0.2834 -0.1311 -0.0921
23712W        W39896  17.081   5.288  12.435 -0.1517  0.0704  0.1226
23713W        W39897   8.618   7.847  11.826 -0.0653  0.0093  0.1051
23714W        W39898   8.555  18.225   2.755  0.0854  0.0579 -0.2053
23715W        W39899  14.343   5.018  14.278 -0.2258  0.1174  0.3060
23716W        W39900  18.033   4.324   3.451  0.0261 -0.0001 -0.1317
23717W        W39901   7.468  10.055   0.976  0.2355 -0.1142  0.0896
23718W        W39902   9.465   9.376  13.176 -0.1723 -0.0001 -0.0084
23719W        W39903  11.866  18.031   4.710 -0.1216  0.2747  0.1950
23720W        W39904  17.892   6.280  12.530 -0.0942 -0.2277  0.2437
23721W        W39905  15.713  12.404   3.670  0.1427 -0.0854 -0.1431
23722W        W39906  17.581   5.517  13.738 -0.3026  0.0630 -0.2253
23723W        W39907  12.211   3.834   4.798  0.2186  0.0916  0.1435
23724W        W39908  16.411  18.962  10.398  0.1877  0.0179  0.0263
23725W        W39909   7.954  18.098  14.587 -0.1325 -0.1393  0.1325
23726W        W39910  17.758  19.109  13.148 -0.0841  0.0075  0.4048
23727W        W39911  11.973   7.713   2.136  0.0863 -0.1694 -0.0784
23728W        W39912  12.389   6.074   3.953  0.0539  0.2275  0.2045
23729W        W39913   0.353   5.996  12.393  0.2476  0.3932  0.1225
23730W        W39914   5.916  14.200   2.625  0.0391  0.0759  0.3348
23731W        W39915   6.896   6.983   2.192 -0.1048 -0.0266  0.1667
23732W        W39916  15.555  13.677   2.063 -0.1173  0.0060  0.0541
23733W        W39917   5.308  18.881  14.563  0.1659 -0.0060  0.0930
23734W        W39918  11.077   6.169   1.135 -0.3132  0.0150  0.1781
23735W        W39919  18.789   8.546  11.215 -0.2808 -0.1853  0.3171
23736W        W39920   9.328   7.774   4.422 -0.1439  0.2581 -0.2864
23737W        W39921   7.267  19.073   2.706  0.0078  0.0332  0.3736
23738W        W39922   4.734   3.302  10.842  0.0682  0.2798  0.0938
23739W        W39923   1.151   9.324  12.710 -0.4561 -0.2472 -0.1147
23740W        W39924  18.618   7.417   4.711  0.2039  0.1662 -0.2784
23741W        W39925  12.336  18.650  14.581  0.2265 -0.1738 -0.1358
23742W        W39926   6.253   9.483   4.536  0.1565 -0.2241 -0.1583
23743W        W39927   2.515   6.324  11.244  0.0547  0.3225 -0.0911
23744W        W39928   2.797  11.138  11.197  0.0214 -0.1285  0.0212
23745W        W39929   2.356   7.712   1.505 -0.1176 -0.1341  0.1369
23746W        W39930  12.306  16.555   3.832 -0.0855  0.0440  0.2595
23747W        W39931  14.458  12.437  12.603  0.2210  0.2173  0.1054
23748W        W39932   3.003  18.788  11.617  0.2397  0.2015  0.4120
23749W        W39933  18.315  10.117   3.254 -0.3884  0.0820  0.0929
23750W        W39934  10.018   9.767   2.497 -0.0585  0.1683  0.1054
23751W        W39935  16.416  11.019   2.889  0.1859  0.0387 -0.1068
23752W        W39936  17.967  18.080   2.322 -0.1509 -0.1745 -0.1221
23753W        W39937   4.662  13.013  13.293  0.0548  0.1689  0.0716
23754W        W39938   3.680  16.605  11.510 -0.0536  0.1611  0.2285
23755W        W39939   6.153   0.063  11.813  0.0261  0.0706 -0.0618
23756W        W39940   9.743   3.006  14.063 -0.2610  0.3075  0.1784
23757W        W39941   4.636  18.967  14.278  0.2803 -0.2752  0.1364
23758W        W39942   9.351  16.250   3.882 -0.1935 -0.1377  0.0609
23759W        W39943  18.717  13.854   2.354  0.2360 -0.1437  0.0569
23760W        W39944  10.401  11.983   4.509 -0.0404 -0.1620 -0.1831
23761W        W39945   5.485   9.664   1.742  0.0248 -0.3026  0.0247
23762W        W39946   5.865  11.710  14.335 -0.0004  0.0350 -0.0559
23763W        W39947  12.993  12.278  14.382  0.1119 -0.1224  0.2376
23764W        W39948  17.744  13.550   4.209  0.0710 -0.0938 -0.0338
23765W        W39949   1.272   4.775   4.097  0.1319  0.1975  0.5402
23766W        W39950   6.616   4.017  10.139  0.3166  0.0434  0.0606
23767W        W39951   6.159   5.927   0.632 -0.0334 -0.2585  0.0646
23768W        W39952  17.796   3.124   5.113 -0.2038 -0.0499  0.1015
23769W        W39953   3.019  17.647  10.681  0.4783 -0.1429  0.0843
23770W        W39954   2.308   2.958   3.928 -0.0288 -0.1193 -0.3477
23771W        W39955   1.767  11.222   4.082  0.2857  0.0957 -0.0630
23772W        W39956  11.734  16.074  12.760  0.0126  0.3229  0.1317
23773W        W39957  12.475  13.564   1.188  0.4468  0.5618  0.0750
23774W        W39958   7.891   1.589   2.081 -0.1361 -0.0456 -0.1130
23775W        W39959   2.932  16.277  11.744 -0.0050 -0.1630 -0.0132
23776W        W39960  18.137  12.210   4.966  0.3436  0.0928  0.1050
23777W        W39961   5.149   1.576  12.690 -0.2819 -0.0257  0.0529
23778W        W39962   8.293  14.528  12.955  0.0603 -0.0181 -0.3484
23779W        W39963  18.367  11.184  11.553  0.0567 -0.0012  0.1509
23780W        W39964  16.276   9.282  11.202  0.4799 -0.1555  0.2054
23781W        W39965   5.658  12.641  10.508 -0.1206 -0.1313  0.2772
23782W        W39966  19.172  18.603  13.229  0.0731 -0.0250 -0.1029
23783W        W39967   6.558   8.477   0.660  0.0106 -0.1254 -0.0780
23784W        W39968   0.467   1.721   0.230 -0.2903  0.1344  0.1354
23785W        W39969   3.034   8.771   0.619 -0.2689  0.2071 -0.3062
23786W        W39970   9.230   9.713  14.686 -0.2455  0.1730 -0.4291
23787W        W39971  13.054   6.034   5.724  0.3666 -0.0744  0.1036
23788W        W39972   3.485  13.433   1.175 -0.2406 -0.0250 -0.2029
23789W        W39973  11.857   9.119   9.473 -0.1344  0.1366  0.0660
23790W        W39974  14.655  16.302  14.060  0.0470  0.1260 -0.1009
23791W        W39975   9.023   5.696   2.053 -0.2779  0.0394 -0.1242
23792W        W39976  11.104   9.015  14.803 -0.0270 -0.0796  0.0466
23793W        W39977  15.703   3.513  10.389 -0.2782  0.2494 -0.2585
23794W        W39978  16.659   2.964   3.021 -0.0622 -0.3081  0.2377
23795W        W39979  10.254  16.388   0.105  0.0340  0.0031  0.0241
23796W        W39980   3.283   4.679   3.081 -0.1816 -0.1206 -0.2525
23797W        W39981  15.867  14.124   0.844  0.0438 -0.2519 -0.0176
23798W        W39982   8.802   4.660  14.724  0.0061 -0.0608 -0.0733
23799W        W39983   9.756   7.630   0.526  0.1237 -0.1050  0.0743
23800W        W39984   7.047   9.103  10.962  0.4352 -0.3456 -0.2187
23801W        W39985  12.372   1.927  13.397  0.1602  0.0443 -0.0723
23802W        W39986   0.253   8.652  12.065  0.2285 -0.2304  0.3180
23803W        W39987   3.441  13.556  10.687 -0.1024  0.0282 -0.5079
23804W        W39988   5.036  15.391   1.636  0.2371  0.1915 -0.2674
23805W        W39989   9.264  10.745  13.018 -0.0025  0.0897 -0.0403
23806W        W39990   4.315  15.158   3.895 -0.2872  0.0053  0.0563
23807W        W39991   0.909  18.914  11.394 -0.0090 -0.0519 -0.0286
23808W        W39992   1.670   0.852   1.043 -0.0404  0.4479 -0.1335
23809W        W39993   2.230   8.699   3.128  0.1553  0.1078 -0.0087
23810W        W39994   5.317  12.410   1.733  0.0358  0.0658  0.1834
23811W        W39995  15.749  17.977  10.202  0.1958  0.0820 -0.0732
23812W        W39996  18.286   4.394   1.017  0.1435  0.1254 -0.0015
23813W        W39997   8.282  11.581   3.990 -0.0299  0.0093  0.1052
23814W        W39998   1.986   0.089  12.047 -0.0065 -0.2874  0.1317
23815W        W39999  13.364   7.466  10.484 -0.3407 -0.0433 -0.0928
23816W        W40000   9.668  13.711  11.688  0.1019 -0.0329  0.0191
23817W        W40001  15.510  17.390   2.373  0.1180 -0.0603  0.4080
23818W        W40002   2.757   0.683   2.854 -0.3233  0.1208  0.0598
23819W        W40003   4.508  15.985   1.294 -0.0839 -0.1293 -0.1356
23820W        W40004   3.923  12.421  12.225 -0.0489 -0.2822  0.0885
23821W        W40005  10.503   6.432   1.981  0.0883  0.0378 -0.0696
23822W        W40006   9.426  11.998   0.424  0.1680  0.2786  0.0146
23823W        W40007  10.136   7.816   3.285  0.1250 -0.1955 -0.5245
23824W        W40008  17.945  15.148  10.949  0.2138 -0.0605  0.1578
23825W        W40009   2.524  16.900   4.572  0.0598  0.3030 -0.1384
23826W        W40010   4.981  11.294  13.632  0.2140  0.1320  0.1722
23827W        W40011   5.944   2.705  12.434 -0.1416  0.0510  0.2821
23828W        W40012  18.642  11.572  11.893 -0.0494  0.0398 -0.1622
23829W        W40013   7.377  18.999   4.992  0.0814 -0.3907  0.3267
23830W        W40014   7.442   5.686  12.226 -0.2892  0.3048 -0.2170
23831W        W40015   8.280   9.912  14.288  0.0208  0.0458 -0.3044
23832W        W40016  15.300   3.836  12.581 -0.0538  0.0346 -0.1058
23833W        W40017  18.178   2.460   2.268  0.0502 -0.2419 -0.1182
23834W        W40018  11.372   6.469   3.300 -0.3589 -0.0237  0.2542
23835W        W40019  16.154   7.698   0.048 -0.0169  0.0266  0.0020
23836W        W40020  10.938  12.918  14.440 -0.0070  0.1515 -0.2158
23837W        W40021  11.524  14.236   4.558 -0.3702  0.2951 -0.0777
23838W        W40022   9.055  14.210   3.816  0.0877  0.2219  0.0330
23839W        W40023   8.406  13.371  10.570  0.0300  0.0612 -0.1128
23840W        W40024   7.387  16.010   1.123 -0.0270 -0.1393 -0.0441
23841W        W40025   9.782   9.691  14.801 -0.1925  0.3216 -0.1449
23842W        W40026   3.928   8.321   1.678  0.0987  0.3063 -0.0543
23843W        W40027   8.647  12.297   2.781 -0.2230 -0.4814 -0.3626
23844W        W40028  12.333   4.828   0.107  0.2731 -0.1427  0.0635
23845W        W40029  14.203  11.940   1.241  0.2315 -0.3553 -0.2245
23846W        W40030  17.230  18.218  13.519  0.1562  0.1750 -0.1212
23847W        W40031  13.466  10.278   2.082 -0.2731 -0.0805 -0.1022
23848W        W40032   3.394   8.103   1.021 -0.1874  0.3487 -0.2126
23849W        W40033  16.467  18.992   2.075  0.1326  0.0746  0.0459
23850W        W40034  15.158  11.409   1.845  0.0223  0.1095 -0.1678
23851W        W40035  10.318  17.272   0.156  0.2301  0.1269 -0.2698
23852W        W40036   8.490  16.478   1.419 -0.3026  0.1881  0.3027
23853W        W40037   7.893  14.020   0.636 -0.3776 -0.0930  0.1274
23854W        W40038  12.883   4.781  11.817 -0.0400 -0.4821 -0.1814
23855W        W40039  12.443   0.795   1.638  0.0659 -0.1507 -0.1469
23856W        W40040  19.182  12.615   2.768  0.1371 -0.0355 -0.2795
23857W        W40041   9.019  14.293  14.722  0.1124 -0.0183 -0.4506
23858W        W40042   5.820   4.032   4.079  0.0623  0.0286  0.2148
23859W        W40043  15.365  18.221   0.816  0.1381 -0.0975  0.0462
23860W        W40044  11.516   2.934   4.544 -0.4338  0.0703 -0.1321
23861W        W40045   5.621   4.711  11.490 -0.0997 -0.0356  0.1530
23862W        W40046  10.260  15.551   3.234  0.2616 -0.2717  0.0773
23863W        W40047  15.676   5.361   4.932 -0.1757 -0.3837 -0.1401
23864W        W40048  15.133  19.248  10.164  0.3060 -0.2955  0.1315
23865W        W40049  15.632  14.609  11.159  0.2410  0.2210  0.1819
23866W        W40050   9.009  18.743   3.210 -0.0761  0.2592  0.0354
23867W        W40051  16.748   3.929   2.753 -0.1314 -0.2630  0.0273
23868W        W40052  13.571   4.571   1.043 -0.0990 -0.2781 -0.1372
23869W        W40053   6.874   4.888  14.572  0.0321  0.1505 -0.0524
23870W        W40054  15.473  18.392   3.124  0.3041 -0.0291  0.3808
23871W        W40055  10.668  15.965   4.202  0.2562  0.3734 -0.3339
23872W        W40056  12.323  13.991   4.274 -0.0829 -0.1595  0.0651
23873W        W40057  18.314  12.809  14.144 -0.0457  0.0845  0.1257
23874W        W40058   0.200   1.095  10.116  0.0130 -0.0832  0.4518
23875W        W40059  16.648   6.236   2.532 -0.0442 -0.3796  0.0447
23876W        W40060  14.385   2.666  14.582  0.3716 -0.5157 -0.2635
23877W        W40061   4.810  14.942  10.588  0.0247 -0.0383  0.3564
23878W        W40062  17.143  10.315   3.217 -0.0358 -0.2840 -0.1801
23879W        W40063  13.514   3.088   3.330  0.0757  0.1620  0.1944
23880W        W40064  17.554   7.708  12.721 -0.2008  0.0952 -0.1380
23881W        W40065   0.342   2.432  11.103 -0.0568  0.2604  0.0561
23882W        W40066  12.083   0.517   4.730  0.1627 -0.0541  0.0894
23883W        W40067   5.710   3.125   1.391 -0.3350 -0.1259 -0.0094
23884W        W40068  15.207  12.570   5.081  0.1672  0.1477  0.1435
23885W        W40069  17.351   6.582  12.638 -0.0511 -0.0583  0.1427
23886W        W40070   5.318  10.925  14.149 -0.1922  0.1122 -0.0462
23887W        W40071   8.684   2.661  10.351  0.1331  0.2151 -0.2011
23888W        W40072   4.730  17.323   1.104  0.2252  0.1879 -0.1725
23889W        W40073  17.325   0.215   2.270 -0.1478  0.1708 -0.1044
23890W        W40074  15.803   0.581   4.356 -0.1294  0.2697  0.0193
23891W        W40075  19.349  16.029   3.866 -0.0037 -0.1206  0.0804
23892W        W40076   5.714  19.278  13.496  0.3897 -0.3107 -0.0606
23893W        W40077   5.376   1.313  11.692  0.0078 -0.2963  0.1605
23894W        W40078  16.965  16.337   5.153  0.1306  0.1740  0.1201
23895W        W40079  14.322   3.856  12.161 -0.0026 -0.1978 -0.0004
23896W        W40080  11.773  17.986   1.203 -0.1577 -0.1368 -0.0542
23897W        W40081   3.513   5.936   3.647  0.0781 -0.0794 -0.0543
23898W        W40082   9.596   4.942  11.756 -0.0134  0.0567  0.2185
23899W        W40083  16.436   1.502   4.142 -0.1595 -0.0585  0.1488
23900W        W40084   9.257  15.308  10.648 -0.0327 -0.1231  0.1701
23901W        W40085  13.649   6.580   2.963 -0.1690  0.0291 -0.0568
23902W        W40086   0.062  17.550   1.915  0.0735 -0.3924  0.2937
23903W        W40087   3.959  17.045   4.972  0.0255  0.0566 -0.0588
23904W        W40088  19.271   0.522   2.662  0.0097  0.3140  0.2170
23905W        W40089   5.829   7.990  10.564  0.0935 -0.0873  0.1983
23906W        W40090  17.791  14.798   1.200  0.0988  0.2280  0.0827
23907W        W40091  11.295  19.255   0.250  0.2359 -0.0861 -0.1982
23908W        W40092   7.168   1.807   3.038  0.2427 -0.2977  0.1319
23909W        W40093  19.229   3.163  11.594  0.0335  0.0086  0.1184
23910W        W40094  15.758  14.300  13.465  0.1360  0.2538  0.1885
23911W        W40095  10.580   7.443  10.903  0.2001 -0.0795  0.0011
23912W        W40096  11.998  14.491  13.984  0.0694  0.1831  0.3775
23913W        W40097   1.404   9.857   2.240  0.2384 -0.3095  0.4031
23914W        W40098   8.343   5.505   0.240 -0.1018 -0.4217 -0.2456
23915W        W40099  15.293   3.997   2.219  0.1519 -0.1440  0.2531
23916W        W40100  10.391  18.682   4.737 -0.1774 -0.1207 -0.3297
23917W        W40101  15.529   7.734  11.254 -0.1331 -0.2019 -0.3119
23918W        W40102   1.957   7.517   4.284 -0.1671  0.0369  0.0175
23919W        W40103  10.017  10.092   3.326 -0.1239 -0.1346  0.2759
23920W        W40104   9.438   9.249  14.569  0.0634 -0.1892 -0.1171
23921W        W40105   5.761   3.291  12.229 -0.2337 -0.0367  0.2297
23922W        W40106   3.567   6.890   2.552 -0.2513 -0.2593  0.3315
23923W        W40107  17.597  18.770   1.272 -0.1332  0.0092  0.5871
23924W        W40108  10.947  15.997   3.317  0.0666  0.2075 -0.0499
23925W        W40109   9.405  12.620   2.888  0.0530 -0.0217  0.2294
23926W        W40110  10.768  12.121   4.063 -0.0081 -0.0711  0.2387
23927W        W40111  17.636  12.977   4.519  0.2054 -0.1257 -0.2810
23928W        W40112   7.619   2.999   0.704  0.1490 -0.2377 -0.0404
23929W        W40113   6.550   0.516   4.318  0.0347  0.2351  0.0392
23930W        W40114   7.045   4.622  10.117  0.1683 -0.0603 -0.0406
23931W        W40115  11.023   0.568   0.719  0.0738  0.1053 -0.3981
23932W        W40116   2.850  10.607  10.780  0.0581 -0.1929 -0.0033
23933W        W40117  19.005  15.264   3.290  0.0963 -0.1610  0.0790
23934W        W40118  16.473  13.214   0.968 -0.0699 -0.1793  0.3796
23935W        W40119  12.496  17.393  10.982  0.1843  0.0110 -0.1226
23936W        W40120   0.985   8.514   1.414  0.2059 -0.2419 -0.3067
23937W        W40121   7.686   6.067   3.992 -0.1580 -0.0287 -0.0586
23938W        W40122  15.907  12.755   4.433  0.1163  0.3415  0.3262
23939W        W40123   2.817   0.606   0.772 -0.2080 -0.1324  0.2477
23940W        W40124   1.811  19.275   2.493 -0.1359  0.2141 -0.1718
23941W        W40125   6.800  18.446   3.296 -0.1624  0.1620  0.0677
23942W        W40126  11.203  19.037  11.922 -0.1007  0.0777 -0.2029
23943W        W40127   2.629   1.631  10.412 -0.3553  0.3135 -0.1404
23944W        W40128   7.891  11.003   3.044 -0.0474  0.0192  0.1507
23945W        W40129   1.239  17.137   3.632 -0.0090  0.0719 -0.1267
23946W        W40130  19.178   8.630  12.260  0.0100 -0.2557  0.0516
23947W        W40131  13.894  17.924   2.652  0.1845  0.0076  0.4219
23948W        W40132   7.752  14.627   1.436  0.1428  0.0926  0.2472
23949W        W40133  16.262   2.434  10.776  0.0026  0.1495 -0.2057
23950W        W40134  17.506  19.106  14.509  0.2734  0.2316 -0.1292
23951W        W40135   8.220   6.140   4.613 -0.0580 -0.0376 -0.3017
23952W        W40136  13.455  13.377  13.734 -0.0034 -0.0603  0.0970
23953W        W40137  15.184   3.613   0.158  0.0182 -0.0901  0.3381
23954W        W40138   9.909   7.314  13.197  0.0236  0.1970 -0.1727
23955W        W40139  19.222   4.537  10.687  0.4123 -0.1711 -0.0155
23956W        W40140   6.961  16.448  11.932 -0.0433 -0.1123  0.2893
23957W        W40141   9.880   4.749  14.301 -0.0571 -0.0450 -0.1395
23958W        W40142   9.770   0.740   3.408  0.1261  0.1026  0.2990
23959W        W40143  10.205   9.057  10.037 -0.2640  0.0625 -0.0451
23960W        W40144   7.342  11.043  13.850  0.1884  0.1811  0.2559
23961W        W40145  11.461   8.379   5.578  0.0299  0.3397  0.3386
23962W        W40146   2.441  14.795  13.988  0.0338 -0.2376  0.0427
23963W        W40147  17.450  10.154  11.860  0.1959  0.1243 -0.0029
23964W        W40148   7.699   3.056   4.039  0.1676 -0.1885  0.1536
23965W        W40149   6.618  11.635  13.987 -0.2953 -0.2285  0.2968
23966W        W40150   4.846  11.774  13.813 -0.1324 -0.2653  0.2228
23967W        W40151  19.046  15.934   2.394 -0.0410 -0.0045  0.0821
23968W        W40152  10.013  14.325   4.027 -0.0385 -0.0492 -0.2594
23969W        W40153  16.569  13.313  11.555  0.0037  0.0208  0.1044
23970W        W40154   7.135  13.700   4.729 -0.3015 -0.2837  0.1283
23971W        W40155  18.716   3.575   2.972 -0.1516 -0.0078 -0.1170
23972W        W40156   5.333   7.682   5.257  0.0097 -0.3181 -0.0806
23973W        W40157  10.073  13.388   3.569  0.1941 -0.2422  0.2351
23974W        W40158   0.575   0.112  11.923  0.1605 -0.2120 -0.1892
23975W        W40159   6.553   3.909   1.528 -0.0198  0.1430  0.0218
23976W        W40160   4.821   2.099   4.424 -0.3524 -0.0855 -0.2595
23977W        W40161   0.015  15.618   1.851  0.1032  0.1273  0.0214
23978W        W40162  16.494   1.250  14.174 -0.1139 -0.5438  0.0420
23979W        W40163   0.577   3.114  13.335 -0.2867  0.0509 -0.1980
23980W        W40164  17.012   8.464   3.051  0.3335 -0.1143 -0.1638
23981W        W40165   0.426  11.187  10.995  0.3167 -0.0091  0.4353
23982W        W40166  14.835   6.765   2.009 -0.2797 -0.1564  0.0895
23983W        W40167   7.145  10.471   2.828 -0.1995  0.1263  0.0046
23984W        W40168   1.995   0.211   1.483 -0.0170 -0.4123 -0.0653
23985W        W40169   4.466  13.404   2.235 -0.2205 -0.1979  0.1784
23986W        W40170   3.576   4.496  14.902 -0.1021  0.3825  0.3456
23987W        W40171   2.547  12.006   4.298 -0.2001  0.0188  0.2254
23988W        W40172  15.747  16.728   5.250 -0.0654 -0.1662 -0.0080
23989W        W40173   7.044   0.149  11.144  0.1998  0.1103 -0.1422
23990W        W40174  16.699   7.334  12.433 -0.1161  0.1987  0.1359
23991W        W40175  19.272  11.834   0.813  0.0726  0.2575 -0.3206
23992W        W40176   8.419   1.691   4.334  0.2307 -0.0511  0.0496
23993W        W40177   8.470   8.835   0.537 -0.0816 -0.4846  0.0380
23994W        W40178  13.350  14.530  13.432  0.0229  0.4188 -0.1835
23995W        W40179   0.789  14.511  10.238 -0.1330 -0.1778 -0.2278
23996W        W40180   4.360  15.653   3.898  0.0421  0.3013  0.2663
23997W        W40181  13.262   6.583   9.979 -0.1256 -0.0036  0.1574
23998W        W40182   5.993   0.142  10.824  0.2533  0.2375 -0.2682
23999W        W40183  19.046   4.422   4.455  0.0046  0.4108  0.1642
24000W        W40184  17.394   9.808   2.565  0.0415 -0.0428 -0.2897
24001W        W40185   5.233   0.263   4.411 -0.0268  0.2873 -0.0781
24002W        W40186  13.207  12.342   1.581  0.2717  0.0388  0.1254
24003W        W40187  11.319   0.175   0.708 -0.1321  0.0575 -0.0833
24004W        W40188   8.974  12.380  12.494 -0.2158 -0.2734  0.1634
24005W        W40189  14.781   5.762   1.679 -0.2585  0.1969 -0.0356
24006W        W40190   7.860   5.241   2.643  0.3399 -0.0332 -0.0501
24007W        W40191  18.648   7.281  14.544  0.1528 -0.0135  0.1047
24008W        W40192   7.118  14.848  11.761 -0.0596  0.2121 -0.1007
24009W        W40193   9.176  14.423  11.278  0.0039  0.1300  0.1113
24010W        W40194  13.549  14.432   4.995  0.0228 -0.3961  0.1773
24011W        W40195   7.831   4.237  10.101 -0.3020 -0.2339  0.4033
24012W        W40196   4.597   4.153  12.212  0.1321 -0.2626 -0.0910
24013W        W40197  12.822   3.297   1.833  0.2909  0.3175 -0.5993
24014W        W40198   4.459  18.949   2.709  0.1909 -0.0254  0.0172
24015W        W40199   8.497   2.205   5.221 -0.1263 -0.0274  0.1334
24016W        W40200  10.707   5.154   9.143  0.3396  0.0908  0.0243
24017W        W40201   1.064   2.035  14.742 -0.4434 -0.1812  0.2361
24018W        W40202  14.484   6.830   4.168 -0.0282 -0.2757  0.1050
24019W        W40203   2.307   3.261   4.434  0.1694 -0.3487  0.5173
24020W        W40204  12.063   0.474   5.741 -0.2741  0.0187 -0.3126
24021W        W40205   9.731   5.706   2.836 -0.2423 -0.0954 -0.1471
24022W        W40206  17.151   5.241   3.199  0.1296  0.1251  0.0741
24023W        W40207  14.347   3.135  13.271 -0.0613 -0.1670  0.2794
24024W        W40208   4.926  12.463  14.277 -0.2803  0.1048  0.1305
24025W        W40209   2.179  11.649   1.777  0.2372 -0.0345  0.3578
24026W        W40210   4.358   2.426  10.558 -0.0950  0.0233  0.0072
24027W        W40211  11.818  13.916   2.327  0.0816  0.2245  0.0276
24028W        W40212  16.725   7.103   8.779 -0.3222  0.1485 -0.1161
24029W        W40213   4.563   2.464  11.192 -0.1160  0.1035 -0.2826
24030W        W40214  13.070  15.959   0.547 -0.1958 -0.0201  0.4738
24031W        W40215  13.850   5.434   0.859  0.2014  0.1198 -0.1764
24032W        W40216   9.555   4.750   4.613  0.0813  0.0397  0.1805
24033W        W40217   7.726  13.612   3.389 -0.0750  0.1064 -0.0349
24034W        W40218   7.622   4.621   9.910 -0.1641  0.0523  0.2607
24035W        W40219   0.940  19.054   5.342 -0.1122 -0.0523  0.0598
24036W        W40220   3.310   3.739  12.439 -0.1027  0.6469 -0.3014
24037W        W40221   0.670  13.240   1.567 -0.1873  0.2649  0.4343
24038W        W40222  11.573   2.273   4.910  0.0267  0.4332 -0.1988
24039W        W40223   6.631   3.446   4.264 -0.0063  0.1794  0.2246
24040W        W40224  15.215  16.463   5.767  0.1570  0.1141 -0.0597
24041W        W40225  15.600  10.340  11.370  0.4170  0.2017 -0.0529
24042W        W40226  19.232   7.652   0.422 -0.1908 -0.1671  0.4963
24043W        W40227   5.762  15.301   0.138  0.2559  0.1903 -0.2478
24044W        W40228   7.945   0.332  12.601  0.1005 -0.0464 -0.1867
24045W        W40229   5.374  19.266   5.314 -0.0713 -0.2290 -0.4111
24046W        W40230  19.318  18.563   4.895 -0.2055 -0.0653 -0.0997
24047W        W40231   4.255   1.898   1.177  0.0718 -0.4022 -0.3090
24048W        W40232  12.188  12.581  14.138 -0.2207 -0.1733  0.1424
24049W        W40233  15.823   1.892  12.762  0.2514  0.0499 -0.0783
24050W        W40234   5.713  11.651   3.756 -0.0219 -0.0242 -0.3956
24051W        W40235  11.149   9.464   0.164  0.2121  0.0163 -0.0046
24052W        W40236   7.087  10.873  13.471  0.5010 -0.2707 -0.0676
24053W        W40237  17.156  12.939   3.835  0.0927  0.0212 -0.1261
24054W        W40238   8.743  15.235  10.503 -0.2697 -0.1091  0.0206
24055W        W40239  13.196  12.546  11.973 -0.1743  0.1378 -0.0474
24056W        W40240  12.019  13.386  12.463 -0.1840  0.2495  0.2871
24057W        W40241   1.005   2.591   0.515 -0.0542  0.3717  0.0144
24058W        W40242  11.107  15.662  13.922 -0.0167 -0.4627 -0.1165
24059W        W40243   7.226  11.945   0.233 -0.0804  0.3393 -0.2838
24060W        W40244   9.354   5.910  10.367  0.2153 -0.1244 -0.1418
24061W        W40245  13.235   5.537   3.629  0.3410  0.2232 -0.1361
24062W        W40246   8.820  13.944  11.973  0.1457 -0.1382  0.1439
24063W        W40247  16.859   0.621  12.880 -0.2528 -0.2811  0.4039
24064W        W40248   1.927   8.676   3.546  0.1520 -0.0556  0.1001
24065W        W40249   1.095  14.194   2.357  0.1480 -0.1902  0.0383
24066W        W40250  10.153  10.505   3.589 -0.3756  0.0263  0.1050
24067W        W40251   5.909   9.437   9.520 -0.0248  0.1132 -0.0896
24068W        W40252   5.040   2.306  11.904 -0.0170 -0.0153  0.0954
24069W        W40253  18.357  17.885   3.851  0.0216 -0.1740  0.3334
24070W        W40254  13.991   6.464  12.418 -0.0509 -0.1279 -0.1520
24071W        W40255   2.713  12.477   4.519  0.0458  0.0629  0.0014
24072W        W40256   3.730  14.399  10.309  0.1622 -0.1405 -0.2301
24073W        W40257  14.092  18.950  13.332 -0.3940 -0.1694 -0.2355
24074W        W40258   8.673   5.080  13.403  0.2356 -0.3018 -0.1450
24075W        W40259   3.636  14.309   2.302 -0.0864 -0.1061 -0.0739
24076W        W40260  18.245   0.593  10.920 -0.0580 -0.0847  0.0526
24077W        W40261   6.207  12.165   1.642 -0.1077 -0.0589 -0.0311
24078W        W40262   4.558  12.254   4.526 -0.0906  0.0570  0.1127
24079W        W40263   3.186  17.497   2.578 -0.0147 -0.0583 -0.1044
24080W        W40264   4.302  14.256  13.861 -0.0588 -0.1204  0.2540
24081W        W40265   4.408  16.765  10.525  0.0705  0.1879  0.4379
24082W        W40266  12.949  16.225   5.795 -0.0368 -0.0936  0.3047
24083W        W40267  13.831  15.415  11.680 -0.0944 -0.2596  0.1149
24084W        W40268  16.627  16.796  13.182  0.2846  0.0242 -0.0342
24085W        W40269  11.395   7.478   1.459 -0.3708  0.0708 -0.1377
24086W        W40270   1.328   9.546  14.883 -0.0510  0.0497  0.0658
24087W        W40271  16.508   0.800   5.131  0.2767 -0.0888 -0.0153
24088W        W40272  13.760  11.545   0.217  0.2558 -0.1397 -0.1774
24089W        W40273   3.552  11.394  13.333 -0.1393 -0.2081 -0.0570
24090W        W40274   6.864  18.954   4.966 -0.3507 -0.1870  0.0093
24091W        W40275   4.826  18.901   3.469  0.5152  0.3806  0.1762
24092W        W40276   7.162  15.099   1.012  0.1583 -0.0068  0.0723
24093W        W40277  19.371   8.228  12.647 -0.0641 -0.2274  0.4079
24094W        W40278  15.484  15.933   1.828 -0.1802 -0.0303 -0.2916
24095W        W40279   7.716  15.154   1.284 -0.0990  0.0063  0.5281
24096W        W40280  14.790   1.177   0.591 -0.3419  0.2412 -0.1381
24097W        W40281   6.675   4.144  13.516  0.1301  0.0969  0.0623
24098W        W40282  17.300   7.493   4.048 -0.0139 -0.0533  0.1825
24099W        W40283   9.849   3.717  11.365 -0.0270  0.1171  0.1005
24100W        W40284   9.872   3.393   4.349  0.0551 -0.1318 -0.0747
24101W        W40285  16.215   6.651  11.076 -0.2462  0.2588  0.0331
24102W        W40286   8.270   5.339  13.664  0.4516 -0.2323  0.1970
24103W        W40287  16.013  16.159  13.495  0.0400 -0.1165  0.0851
24104W        W40288   9.615  15.007  14.193  0.0151  0.0804 -0.0852
24105W        W40289  10.433  14.084   0.884  0.0450 -0.0589  0.1871
24106W        W40290  12.385   8.488  12.337 -0.2942  0.3597 -0.1255
24107W        W40291  12.747  13.759   0.307  0.0747 -0.1853 -0.0471
24108W        W40292  16.947  16.238   5.666 -0.1076 -0.2422 -0.0884
24109W        W40293   9.610   4.760   3.304 -0.0392 -0.2401  0.2337
24110W        W40294  12.978   5.824   1.702  0.0737  0.0900 -0.0265
24111W        W40295  13.807   8.364   1.135  0.1232  0.3281 -0.5978
24112W        W40296  15.456  12.482   4.559 -0.0828 -0.3353 -0.0256
24113W        W40297   0.501   4.110  14.260  0.0742 -0.1503 -0.2428
24114W        W40298   8.327  18.103  10.980  0.0864  0.1129  0.0693
24115W        W40299  14.540   0.052  11.111 -0.0570 -0.1350  0.2543
24116W        W40300  14.838   4.865   1.946  0.0020  0.0830  0.0200
24117W        W40301   2.275   4.407   1.510 -0.1613 -0.2752 -0.0950
24118W        W40302  16.553   4.766   0.305  0.3264 -0.1042 -0.2401
24119W        W40303  16.838  18.014   0.481 -0.0608  0.1824  0.1630
24120W        W40304   4.176   2.982  14.977 -0.1251 -0.1063  0.2536
24121W        W40305  10.172  12.083  11.371  0.1266 -0.1050 -0.0997
24122W        W40306   3.048   1.656  12.064 -0.2131 -0.3581  0.0791
24123W        W40307   8.914  15.922   0.270 -0.4818  0.0578 -0.1670
24124W        W40308  15.252   1.682   3.522 -0.1419 -0.1756  0.0700
24125W        W40309   6.327   8.179   0.990  0.5292  0.2163 -0.0463
24126W        W40310  10.174  15.420  14.320 -0.1395  0.0374 -0.0220
24127W        W40311  13.245  18.534   2.995 -0.0467  0.0152  0.1637
24128W        W40312   0.328  11.419  12.065  0.6301 -0.5009 -0.0080
24129W        W40313  18.870   4.637  11.602 -0.1489  0.0866  0.1832
24130W        W40314   4.058  18.698  13.495  0.0309 -0.2381  0.0602
24131W        W40315   6.368   1.642   3.825 -0.0363  0.0618 -0.0103
24132W        W40316  18.340   2.346  11.429 -0.1487 -0.1280 -0.2890
24133W        W40317   7.085  17.952  10.817 -0.1614  0.0849  0.0766
24134W        W40318   9.280  16.256  10.580 -0.1141  0.1557  0.1512
24135W        W40319  12.182   1.587  12.437  0.1806 -0.2361  0.0227
24136W        W40320  18.375   0.076   4.399 -0.1298 -0.2367 -0.0843
24137W        W40321   8.943   4.884   2.846 -0.1937  0.0953 -0.1555
24138W        W40322   0.757   3.243   2.706 -0.1875  0.2159 -0.0455
24139W        W40323  12.997   2.466  12.030 -0.1756 -0.1110  0.2798
24140W        W40324   4.082  18.634   2.531  0.0884 -0.3628 -0.0102
24141W        W40325   8.052   5.801   2.687  0.1099  0.3104  0.2032
24142W        W40326   7.184  14.732  12.436 -0.3618 -0.1336 -0.2481
24143W        W40327  13.893   8.139   3.985 -0.0158 -0.3437 -0.2002
24144W        W40328  10.109   2.543   2.725  0.1044 -0.1122 -0.3956
24145W        W40329  12.371   2.497   9.995 -0.1388 -0.0884 -0.1970
24146W        W40330  16.494  15.835  13.417  0.1438 -0.0225 -0.1214
24147W        W40331   9.099   7.532   4.957  0.0154 -0.1179  0.2301
24148W        W40332  17.850   7.120   0.268 -0.1557  0.1280  0.1549
24149W        W40333  10.453  15.869   3.658 -0.3947 -0.2423  0.2157
24150W        W40334   8.123  15.963  14.269  0.0137 -0.0399  0.3171
24151W        W40335   7.458   6.059  14.245  0.0065  0.0021  0.0737
24152W        W40336  14.664  18.243  13.754 -0.2561 -0.1217 -0.0427
24153W        W40337  17.754  13.967   3.807  0.4429 -0.0210 -0.0925
24154W        W40338  12.826   7.112  12.998  0.0437  0.0738  0.0669
24155W        W40339  10.572   6.419  11.039  0.0676 -0.4873  0.0955
24156W        W40340   7.283   8.919   9.532 -0.0826  0.0334 -0.1917
24157W        W40341   3.598   7.178  13.625 -0.2141 -0.3279  0.4295
24158W        W40342  18.257   0.559  14.107  0.0989 -0.0156 -0.1009
24159W        W40343   2.843  12.528   5.003 -0.0210  0.1125 -0.2038
24160W        W40344  10.901   0.818   0.294 -0.3069  0.1247 -0.0418
24161W        W40345   0.083   6.415   3.035  0.2129 -0.2155  0.1285
24162W        W40346   4.889   3.509   4.186 -0.2604  0.0950 -0.0021
24163W        W40347   8.211  14.923   4.888 -0.1938 -0.0538 -0.1081
24164W        W40348  15.268   1.940  14.193  0.3401  0.3371  0.1262
24165W        W40349  18.051   6.541   2.852  0.3785  0.0527 -0.1583
24166W        W40350  14.649   9.633  12.128  0.0337 -0.0509 -0.0231
24167W        W40351  16.096  10.372   2.905 -0.0916  0.1925 -0.1434
24168W        W40352  13.156   6.836  11.852  0.0063 -0.0172 -0.2157
24169W        W40353   2.314  13.435  14.577 -0.0866  0.3178  0.1238
24170W        W40354   4.695  13.533   4.677 -0.1619  0.0827 -0.3375
24171W        W40355   0.428  14.177   0.238  0.0903 -0.1213 -0.0608
24172W        W40356   3.000   2.485   5.430 -0.1313 -0.1545  0.1042
24173W        W40357   9.359   3.301  12.372  0.1035  0.1160 -0.0550
24174W        W40358   2.752  15.481  11.307  0.0526  0.1963  0.0728
24175W        W40359   1.883   8.447  12.104 -0.2989  0.2061  0.0609
24176W        W40360  11.796   6.689  11.551 -0.1352  0.0549  0.1652
24177W        W40361  18.372   7.951   3.393  0.1095  0.1000 -0.2512
24178W        W40362   6.853  19.199  14.315  0.2799  0.1217  0.1276
24179W        W40363  18.106  11.158  13.186  0.0219 -0.2663  0.0246
24180W        W40364   3.971  18.549   2.060 -0.0101 -0.0908 -0.1541
24181W        W40365   5.192  16.625  10.004  0.0837 -0.0444 -0.0706
24182W        W40366   9.236   0.493  11.413 -0.1696  0.1276  0.1814
24183W        W40367  12.100   2.468  13.243 -0.2030  0.1176  0.0830
24184W        W40368   3.975  18.900  12.638  0.0552 -0.0572 -0.1565
24185W        W40369  18.011   1.272   0.247  0.0806 -0.0405  0.0185
24186W        W40370   3.835   0.500  12.167  0.0361 -0.1225  0.2196
24187W        W40371  17.642   8.269  10.778  0.0742  0.0475  0.3325
24188W        W40372  11.429  14.992   2.991  0.0609  0.2554 -0.0344
24189W        W40373   2.195   7.879   2.787  0.1033 -0.2786 -0.2220
24190W        W40374   9.458  11.063   2.537 -0.2116  0.0095  0.0096
24191W        W40375  12.837   9.594   4.758  0.0705 -0.2636  0.3438
24192W        W40376  18.832   5.760   0.300 -0.5335 -0.0079 -0.1741
24193W        W40377  14.055  14.487   0.982  0.4477  0.0762 -0.0189
24194W        W40378  13.226  12.612   1.143  0.5319  0.0743 -0.2181
24195W        W40379  16.827  19.377   2.917  0.3484  0.2788  0.1935
24196W        W40380   5.666   9.720   4.651  0.3976  0.0076 -0.1703
24197W        W40381  15.063  17.541  12.479  0.2351 -0.1237 -0.0145
24198W        W40382   2.406   2.341   4.692 -0.0936  0.0395 -0.2414
24199W        W40383   7.093   7.046  10.384 -0.1337 -0.0317 -0.0601
24200W        W40384  12.384  16.618  11.656 -0.0465  0.1603  0.0024
24201W        W40385   8.978  10.427  13.922 -0.2620 -0.2200  0.0899
24202W        W40386  17.030   7.255   4.518 -0.1568 -0.0687 -0.3356
24203W        W40387   2.635   8.945   0.443  0.0183  0.0059 -0.0722
24204W        W40388  12.718  19.369  10.706 -0.3315 -0.2191  0.0897
24205W        W40389   5.294   7.565   3.581  0.0915 -0.2228 -0.0286
24206W        W40390   0.979  15.765  11.436 -0.1371 -0.0760  0.1842
24207W        W40391   3.876   1.126  12.840 -0.0606 -0.2284 -0.0201
24208W        W40392  19.192   6.179   2.482 -0.1008  0.0826  0.1311
24209W        W40393   1.758   8.558  12.605 -0.0089 -0.1521 -0.1216
24210W        W40394  10.208   9.987   3.782 -0.0295  0.0056  0.2790
24211W        W40395  11.553   2.323   5.455  0.2852  0.0966 -0.1361
24212W        W40396  12.791   6.503  10.546 -0.2594 -0.0509  0.1629
24213W        W40397   4.665  11.279   3.565  0.0871  0.0959 -0.3369
24214W        W40398  16.563  16.978  10.650  0.2336 -0.2612  0.1921
24215W        W40399   1.154   4.157   0.285 -0.0647 -0.1401  0.0447
24216W        W40400   6.040   0.117   2.159  0.2440 -0.1278 -0.1643
24217W        W40401  16.631  12.243  11.280 -0.2956 -0.0295 -0.2522
24218W        W40402  15.660   3.728  14.969 -0.0497  0.1552 -0.1479
24219W        W40403  18.749  13.868  13.093  0.3667 -0.1830  0.0251
24220W        W40404  12.630  17.524   1.794 -0.0428 -0.0079 -0.2078
24221W        W40405   8.514   0.838   9.589 -0.1164  0.1531 -0.0618
24222W        W40406   0.826  10.203  12.846  0.0922  0.3762  0.2116
24223W        W40407  16.304  18.584  12.493  0.0965 -0.2561 -0.1709
24224W        W40408  10.479   1.858   3.665 -0.2289  0.2351  0.1404
24225W        W40409   1.108   7.338   3.984 -0.1699 -0.1773 -0.2626
24226W        W40410   4.215   7.284   3.767  0.3768 -0.2525  0.4545
24227W        W40411   8.926  11.025   4.583 -0.1371 -0.0665 -0.3222
24228W        W40412   0.581   1.570  11.713 -0.0799 -0.1202 -0.1517
24229W        W40413   7.747  17.439  11.635  0.2928 -0.2136  0.0197
24230W        W40414   5.574   3.042  14.957  0.0323  0.0452  0.1446
24231W        W40415  11.915   0.163   1.423  0.0143  0.1967 -0.2182
24232W        W40416   7.135  17.648   1.739  0.3154 -0.0003 -0.0721
24233W        W40417  11.309  11.639   3.077  0.1260  0.0912 -0.2754
24234W        W40418  16.846  12.765   0.198 -0.1356 -0.0764 -0.0868
24235W        W40419  16.568   6.755  14.762  0.1941 -0.1995 -0.0855
24236W        W40420   6.565  11.982   3.237 -0.1882  0.1451 -0.2070
24237W        W40421  16.715   5.780   3.039 -0.2756  0.0571 -0.0270
24238W        W40422  19.215  16.581   2.085  0.3061  0.2078 -0.0724
24239W        W40423  18.096  18.575   0.577  0.0995 -0.2461 -0.1020
24240W        W40424   5.818  12.465   1.610  0.0903 -0.1272  0.4953
24241W        W40425  19.343   9.917   4.455 -0.2661 -0.1086 -0.0280
24242W        W40426  14.712   6.475   4.363 -0.2722  0.2247 -0.2066
24243W        W40427  15.924   2.770  10.259  0.1486 -0.1046  0.0354
24244W        W40428  18.415  15.477  14.933  0.3060  0.0226 -0.2580
24245W        W40429  14.809   2.824   2.048 -0.2048  0.1113  0.0470
24246W        W40430   7.424  17.517  13.301 -0.0880 -0.0390  0.1848
24247W        W40431   0.994  12.515   0.839  0.3592 -0.1044  0.1214
24248W        W40432  17.983  18.902  12.126 -0.4187 -0.0077 -0.2201
24249W        W40433   8.608  10.688  10.984 -0.1948 -0.2342  0.1346
24250W        W40434  16.345   2.219   4.435  0.0065  0.2418  0.0412
24251W        W40435   1.057  11.943  12.858 -0.0668 -0.1299 -0.0229
24252W        W40436   7.453   3.448  12.180 -0.3363 -0.0427 -0.1390
24253W        W40437  11.211   0.842  11.896 -0.0018  0.2709 -0.0314
24254W        W40438  18.105  12.890  14.647  0.1165 -0.2518  0.0631
24255W        W40439  12.872  10.451   3.614  0.0912 -0.2313 -0.2006
24256W        W40440   7.610   9.383   2.281 -0.0812  0.2545 -0.0036
24257W        W40441  15.802   5.659  12.219 -0.2126 -0.3546 -0.0387
24258W        W40442   7.491  15.850  14.865 -0.1461 -0.3379  0.0279
24259W        W40443   7.905  17.275   0.213  0.2428 -0.3066  0.0329
24260W        W40444   3.154   7.400   4.137 -0.2312  0.1942 -0.0104
24261W        W40445  10.577  13.390   3.289  0.0057 -0.1469  0.1277
24262W        W40446  14.813  15.674   4.895  0.2553  0.2024  0.1427
24263W        W40447  10.206  17.484  10.404 -0.1232 -0.2304  0.3214
24264W        W40448   9.716   9.848   5.970 -0.1426  0.1905 -0.2173
24265W        W40449  11.308   9.781   4.302  0.3037 -0.0925 -0.2235
24266W        W40450   9.477  16.136   2.284  0.2186 -0.0516 -0.0925
24267W        W40451   5.189  11.695   4.915 -0.2621  0.1292  0.0129
24268W        W40452  16.309  12.425   4.345 -0.0215  0.2988  0.0687
24269W        W40453  13.033   5.413  14.546 -0.0980 -0.2396 -0.2435
24270W        W40454  13.833   8.732   4.677  0.1221  0.2612  0.0485
24271W        W40455   8.638   5.282  14.111  0.2543  0.2602 -0.2693
24272W        W40456   9.027  12.315  11.655 -0.1436  0.1130  0.0953
24273W        W40457  19.296  10.905   0.093  0.2406  0.1821  0.1064
24274W        W40458   5.704   7.712  12.671 -0.0648  0.0203  0.1047
24275W        W40459  11.422  11.202   2.458 -0.1252  0.1206 -0.0270
24276W        W40460  13.665   0.984  13.469 -0.0506  0.0717  0.2084
24277W        W40461  16.543  17.709   2.379 -0.0245 -0.0586 -0.2418
24278W        W40462   8.071   5.118   3.112  0.0170  0.0308  0.1839
24279W        W40463   4.030  13.025  12.003  0.0394 -0.0245  0.0236
24280W        W40464  18.019  18.970   2.147  0.3788  0.0871 -0.0898
24281W        W40465   9.537   3.772   4.092 -0.0159  0.0375  0.2821
24282W        W40466  18.741  13.555   0.626  0.2925  0.0212 -0.2036
24283W        W40467  10.240   7.104  14.869 -0.2007  0.0056  0.1356
24284W        W40468  16.021   8.110  14.845  0.1233 -0.1097  0.1017
24285W        W40469  19.311  13.142   3.008  0.4919  0.1863  0.0323
24286W        W40470   1.058   3.357   5.244 -0.0557 -0.2021  0.2630
24287W        W40471  12.597   4.776   3.865 -0.2790  0.0357 -0.1059
24288W        W40472   4.947   0.906  11.957  0.2156  0.1140 -0.1029
24289W        W40473  14.466   7.310  13.114  0.1067  0.1506 -0.2292
24290W        W40474  17.034   2.716  10.340  0.0579  0.3745 -0.0437
24291W        W40475  17.944   8.610   4.499  0.1440  0.0362 -0.0716
24292W        W40476   5.404   3.135  11.748  0.0040  0.2515  0.0784
24293W        W40477  18.724  10.593  14.967 -0.1556 -0.0150  0.0306
24294W        W40478   7.596  13.578   2.376 -0.1228  0.3463  0.0131
24295W        W40479   3.530   7.166   4.952  0.1130 -0.0042 -0.1948
24296W        W40480   9.357   3.236   0.200  0.0789 -0.2349 -0.0735
24297W        W40481   7.657   8.828  13.346  0.2372  0.5785  0.1246
24298W        W40482  19.267  18.159   2.014  0.0118 -0.1756 -0.1323
24299W        W40483  12.854  10.868  11.014  0.0950 -0.3943  0.1282
24300W        W40484  14.088   7.803   0.986 -0.0373  0.0276 -0.0030
24301W        W40485   5.917  14.338   0.376 -0.2092 -0.1516  0.2278
24302W        W40486  14.585  14.677   3.967  0.0569  0.0403  0.1100
24303W        W40487  14.267  12.016   2.717 -0.1629 -0.1234 -0.2452
24304W        W40488  15.668  10.062   2.855 -0.1365  0.2376 -0.0337
24305W        W40489   0.429   9.638   2.262  0.0175 -0.0542  0.1763
24306W        W40490   9.270   0.044  12.743 -0.0674  0.0344 -0.1046
24307W        W40491   6.443   8.967   0.981  0.3894  0.1727 -0.0620
24308W        W40492   9.671  13.711  14.027  0.1845  0.1015  0.3906
24309W        W40493  16.050   9.748  14.793  0.0229  0.0476  0.1277
24310W        W40494  13.137   0.838  13.653  0.0515 -0.3059 -0.0797
24311W        W40495   9.779  17.214   3.796 -0.0692 -0.3181 -0.1727
24312W        W40496  11.463  15.836   0.723  0.2716  0.1820  0.0517
24313W        W40497   6.111   1.762  13.751 -0.0833 -0.1045 -0.1542
24314W        W40498   7.679   9.254   5.499 -0.0150  0.2069 -0.0153
24315W        W40499  14.464   0.009   1.912  0.3853 -0.1005  0.1851
24316W        W40500  15.672   2.565   1.827  0.2164 -0.2500 -0.1434
24317W        W40501   3.917  15.981   0.752  0.0832 -0.1196 -0.1255
24318W        W40502  19.004   6.711  11.715 -0.3225 -0.2515  0.1210
24319W        W40503  10.934   6.186   2.051 -0.2400 -0.3125 -0.0130
24320W        W40504   7.528   8.268  13.281 -0.1423 -0.0823  0.0870
24321W        W40505  18.789  12.720  11.915 -0.0728 -0.4627  0.1928
24322W        W40506  18.939  16.174   0.602 -0.4846  0.1339 -0.2658
24323W        W40507  11.500  10.927  13.629  0.3225  0.2981  0.0966
24324W        W40508  11.583  12.784   4.601 -0.2402  0.0308  0.2381
24325W        W40509   5.931   7.211   4.340 -0.1174  0.2828  0.0108
24326W        W40510   1.767   1.485  14.481 -0.1093 -0.2188 -0.1304
24327W        W40511  17.201   2.103  10.466  0.2313 -0.0448 -0.1070
24328W        W40512   2.189   3.069  10.119 -0.3514 -0.0105 -0.1245
24329W        W40513   9.459   7.957   2.717  0.2379  0.1398  0.0459
24330W        W40514   4.918   9.045   4.925 -0.0056 -0.1870  0.1974
24331W        W40515  12.026   6.295  13.364 -0.0792 -0.0671 -0.0250
24332W        W40516   5.138  12.031   0.204  0.2009  0.1120  0.0271
24333W        W40517  17.641   1.114  13.405 -0.0956 -0.4648 -0.0444
24334W        W40518  10.182  14.718   4.366 -0.0620  0.3859  0.0744
24335W        W40519   4.520   4.046   3.177  0.1417 -0.1580  0.2044
24336W        W40520  11.600   4.640   2.324 -0.3556  0.1890 -0.1409
24337W        W40521  15.559  15.956   0.363  0.0272  0.1645 -0.0477
24338W        W40522   7.430  12.457   4.887  0.0274 -0.1372 -0.0216
24339W        W40523   3.794  11.045   4.048  0.0929 -0.0823  0.0206
24340W        W40524   5.269   2.461   1.731  0.4692 -0.0111 -0.1594
24341W        W40525  13.370   5.020   2.382  0.0400  0.0237  0.1158
24342W        W40526   2.344   5.870   1.352 -0.2276 -0.2384 -0.0468
24343W        W40527   0.588  11.756  12.335  0.2103  0.1131  0.0883
24344W        W40528   8.145  13.988  14.684 -0.1427  0.2479 -0.2684
24345W        W40529   4.037   7.323   0.636  0.4298 -0.1363  0.1863
24346W        W40530   6.748   7.027  10.947 -0.4172 -0.0705  0.1941
24347W        W40531   9.600   6.437   1.168 -0.0497  0.3132 -0.3244
24348W        W40532   3.363  12.102  13.848  0.4033  0.1996 -0.1271
24349W        W40533   3.976  13.308   2.226 -0.4850 -0.0122  0.0111
24350W        W40534   8.786   6.292  14.308  0.0246  0.1480  0.0021
24351W        W40535   9.493  17.545  13.191  0.1622 -0.0522  0.3298
24352W        W40536  11.542   8.761   3.388 -0.3492  0.1764  0.0494
24353W        W40537  16.406   0.024  14.732  0.0602  0.1382 -0.0036
24354W        W40538  11.491   9.722  12.795 -0.1087 -0.1428  0.1236
24355W        W40539  12.314  11.740   1.547  0.0282 -0.0760  0.0835
24356W        W40540  12.229   2.312   4.005  0.1083 -0.1012  0.3664
24357W        W40541   0.717   1.850   0.817 -0.2318 -0.0327 -0.0914
24358W        W40542   0.123  18.374  13.538  0.2619  0.0481  0.0187
24359W        W40543  19.157  18.250  12.699 -0.2710 -0.0994 -0.3164
24360W        W40544  10.174   0.323   1.001 -0.0013  0.4484  0.0718
24361W        W40545   4.399   9.077   1.692  0.0511 -0.3886  0.1165
24362W        W40546   9.160  13.132   3.605 -0.3097 -0.2723 -0.0100
24363W        W40547   3.412   7.784   5.729  0.0444  0.1679 -0.0547
24364W        W40548   3.512   0.339   1.930  0.4030 -0.0086  0.1700
24365W        W40549   2.861  13.601  11.510  0.0381 -0.0804  0.1095
24366W        W40550  16.209   5.277   1.533  0.0298 -0.2234  0.0336
24367W        W40551   3.281  11.194  13.788  0.3875 -0.1245 -0.2533
24368W        W40552  14.452  10.993  13.094  0.1253  0.3138 -0.0055
24369W        W40553   5.084  11.359  10.881 -0.2101  0.4405 -0.0231
24370W        W40554  17.982   4.249  10.670  0.3186 -0.0133  0.1955
24371W        W40555   4.706  18.131   4.551 -0.2400 -0.1973  0.2668
24372W        W40556   1.543   3.107   3.408 -0.0576  0.0136  0.5182
24373W        W40557   3.041  15.198   3.233 -0.1503  0.2888 -0.0003
24374W        W40558  11.917   8.394  14.865  0.1086  0.0055  0.1720
24375W        W40559  14.793   3.397   0.948  0.1056 -0.0696  0.0677
24376W        W40560  19.243   4.104  12.634 -0.1498  0.4404 -0.0212
24377W        W40561   7.151   6.073   2.279  0.1849 -0.0664 -0.0625
24378W        W40562  10.419  12.287   2.567  0.0375 -0.0497  0.1961
24379W        W40563   9.430  13.461   4.728 -0.2325  0.0957 -0.0807
24380W        W40564   8.919  13.658   4.727  0.0101  0.0953  0.1825
24381W        W40565  11.191  13.837   2.492  0.0868 -0.0002 -0.0270
24382W        W40566  15.756  16.920   0.082  0.0729  0.3617  0.2456
24383W        W40567  12.499   1.022  11.791  0.1887  0.1788  0.0914
24384W        W40568   3.845   9.817  14.940  0.2048  0.0452 -0.1419
24385W        W40569   4.479  10.719   2.992 -0.1566  0.1510  0.4144
24386W        W40570   1.839   5.771   2.101  0.2616 -0.0514  0.0811
24387W        W40571  11.736   6.806   0.691 -0.0582  0.2455  0.1011
24388W        W40572   5.814   3.224  11.217 -0.3846  0.2181  0.2349
24389W        W40573  16.602  14.570  13.357  0.0319  0.0295 -0.5414
24390W        W40574  12.484   8.748   2.947  0.0438 -0.2263  0.1341
24391W        W40575  10.369   7.567  14.357  0.0607 -0.1166  0.1896
24392W        W40576  10.398  18.682   2.078 -0.0297 -0.0040 -0.2775
24393W        W40577   8.201   5.284   3.572  0.2802  0.0332 -0.0666
24394W        W40578   8.448  13.534  12.125 -0.1125  0.3350  0.2011
24395W        W40579  12.024  15.395   2.492 -0.0612  0.4508 -0.2637
24396W        W40580   6.407   2.333   2.399  0.0784 -0.1502  0.0195
24397W        W40581  13.939   7.646   4.293  0.0762 -0.1841  0.1743
24398W        W40582  17.090   8.779  14.909  0.1428 -0.1520 -0.1017
24399W        W40583   4.447   8.922  11.933 -0.0803 -0.0799  0.0270
24400W        W40584   8.468   2.979   1.190 -0.0316 -0.2137 -0.0630
24401W        W40585   9.134   5.301  12.475  0.0669  0.0430 -0.3502
24402W        W40586   7.769   3.513  12.987 -0.1156  0.1280 -0.3411
24403W        W40587   6.382   3.892   4.017  0.1671  0.0112 -0.1624
24404W        W40588  17.484   9.159   3.730 -0.0921  0.0725 -0.3187
24405W        W40589  16.295  10.961  10.850 -0.0263 -0.0144  0.1347
24406W        W40590   0.690   1.573   4.659  0.1535  0.1765 -0.1505
24407W        W40591   7.345  12.114   2.400 -0.2390  0.6448  0.0337
24408W        W40592  14.711  17.394   4.125 -0.0810  0.1734  0.4462
24409W        W40593   8.773   6.119   2.219 -0.1912 -0.0658 -0.0265
24410W        W40594  15.768   9.573   4.606 -0.0483 -0.0871  0.0602
24411W        W40595  12.486  15.915  14.392  0.1807 -0.0253 -0.0991
24412W        W40596   9.031  10.588   4.953  0.0764 -0.0727  0.3536
24413W        W40597   5.911   7.032  14.008 -0.0160 -0.2008  0.2203
24414W        W40598   2.301   4.077   5.342  0.1350  0.0549  0.0127
24415W        W40599  12.204  15.078   0.255  0.1262 -0.1263  0.1456
24416W        W40600   4.243  13.557   4.834  0.0179  0.2036  0.1672
24417W        W40601   4.726   8.352  12.524 -0.5532 -0.1177  0.0403
24418W        W40602   0.164   5.363  14.175 -0.3643  0.1668 -0.2232
24419W        W40603  17.774  14.374   2.912 -0.0492  0.2863  0.0336
24420W        W40604   6.435  12.944   4.971  0.3385 -0.1667 -0.1681
24421W        W40605  15.267   7.265   2.021  0.3317  0.1717 -0.1577
24422W        W40606   4.550  10.539   0.835 -0.0533  0.1341  0.0377
24423W        W40607   6.830  13.618  14.174 -0.1640  0.3196 -0.1511
24424W        W40608   4.614   9.412  12.978  0.1429  0.2799 -0.2449
24425W        W40609   6.853   2.693   0.877 -0.2235  0.1038  0.1937
24426W        W40610   6.415  17.065   3.022  0.0244  0.1325  0.1680
24427W        W40611   0.664  16.955  11.234  0.0301  0.0923  0.1753
24428W        W40612   4.082  17.670  13.854  0.1318  0.2758  0.2150
24429W        W40613   0.885   8.207   1.031 -0.4127 -0.1280  0.0733
24430W        W40614   1.748   9.565  11.799  0.1694  0.0056 -0.1625
24431W        W40615   2.817  17.058  13.457 -0.2309 -0.0945 -0.0147
24432W        W40616   7.995   7.335   0.651 -0.1328  0.0693  0.0186
24433W        W40617   2.858   4.344   0.490 -0.0471  0.2241  0.1910
24434W        W40618   3.637  16.673   0.326 -0.0435 -0.0367  0.0810
24435W        W40619  17.615   5.839  12.658  0.1941  0.0367 -0.2600
24436W        W40620  18.557   6.622   0.237 -0.0783 -0.0701  0.1743
24437W        W40621  15.933   7.773  10.916  0.0888 -0.0572 -0.1246
24438W        W40622  12.687   2.315   0.248 -0.2618 -0.2138 -0.0974
24439W        W40623   6.805   8.714   4.391  0.0549 -0.0143  0.0304
24440W        W40624  17.724  18.937   0.170  0.0488  0.3966 -0.4407
24441W        W40625  13.612  10.144   1.581  0.1911  0.0367  0.2496
24442W        W40626  14.427  16.903   1.671 -0.0489  0.2212 -0.1431
24443W        W40627  10.968  12.658  12.272 -0.2683 -0.0689  0.3345
24444W        W40628  13.522  13.812  12.724  0.1496  0.0716 -0.2809
24445W        W40629  13.181   9.841   3.073  0.1642  0.2296  0.1777
24446W        W40630   9.010   4.010  13.574  0.1474 -0.0443 -0.0860
24447W        W40631  10.025   6.996  14.446  0.2168 -0.0401  0.0494
24448W        W40632   1.824   3.248   1.695  0.1982 -0.0715 -0.2564
24449W        W40633  17.337  11.624  11.345 -0.1887  0.0357  0.2591
24450W        W40634  16.516   8.361  14.164  0.1336 -0.0715 -0.0341
24451W        W40635   7.757   0.113   9.462  0.1151  0.0448  0.4101
24452W        W40636  10.258  12.129   4.035  0.1758 -0.2936 -0.0337
24453W        W40637   6.490  16.226  12.031  0.3363 -0.2130  0.1467
24454W        W40638  13.189   2.712   0.810  0.0110  0.0501 -0.0219
24455W        W40639  14.471   1.904  13.192  0.2331 -0.1757 -0.3261
24456W        W40640  15.530   7.921   1.203 -0.0960 -0.0771  0.3224
24457W        W40641   5.678  15.732  10.993 -0.1464 -0.0020 -0.1440
24458W        W40642   1.726   2.015  14.780 -0.1963  0.0933  0.2504
24459W        W40643   9.608  15.192   2.407 -0.0144 -0.1887  0.1289
24460W        W40644  17.399  18.144   3.553 -0.2781  0.1789 -0.1992
24461W        W40645   5.158   1.771   4.330 -0.1501 -0.0714  0.3093
24462W        W40646   4.541   5.061   1.960 -0.1746  0.1943 -0.3164
24463W        W40647   7.344   0.759   4.290  0.0402  0.0608 -0.2079
24464W        W40648   5.010  19.331   1.886  0.3383 -0.0694  0.0394
24465W        W40649   9.045   0.172  11.027  0.1679  0.0782 -0.0714
24466W        W40650  16.975  16.040  13.618  0.1940  0.4596 -0.1577
24467W        W40651   4.257  12.952   2.523  0.1762  0.1849 -0.1185
24468W        W40652   0.243   3.100  12.574  0.0156 -0.0979  0.3222
24469W        W40653  10.973   2.377  11.687  0.2322  0.0215 -0.2406
24470W        W40654  18.927  18.770  11.761 -0.1948  0.1138 -0.1708
24471W        W40655  14.202  15.507   4.574 -0.1728  0.1110 -0.1994
24472W        W40656   7.050  13.130   3.454  0.1096  0.2580 -0.3791
24473W        W40657  11.846  13.032   0.299  0.0574  0.0423 -0.1606
24474W        W40658  18.124   7.078   3.458  0.1605 -0.1377  0.1492
24475W        W40659  18.238  16.299   2.044 -0.0065 -0.1108 -0.1142
24476W        W40660  13.657  12.981   4.341  0.2808 -0.1569  0.2686
24477W        W40661   0.374   4.229  12.728  0.2359  0.0461 -0.3643
24478W        W40662   8.643  14.527   2.914  0.1171  0.3293  0.0052
24479W        W40663  18.588  15.264  11.514 -0.5357  0.1327 -0.0385
24480W        W40664   3.750  17.544   1.058 -0.2603  0.2987 -0.1108
24481W        W40665  15.273  10.522   1.632  0.4275 -0.2749 -0.1148
24482W        W40666  14.284  10.490  11.678  0.2213 -0.0249 -0.0835
24483W        W40667  14.711   8.537  12.955 -0.5269  0.1418  0.4062
24484W        W40668  17.365   0.608   1.096 -0.0422 -0.1914 -0.1599
24485W        W40669  16.198  16.633  11.301 -0.0132  0.2088  0.3463
24486W        W40670  19.373  19.369  13.394 -0.0244 -0.0133  0.1634
24487W        W40671   1.890   0.275  11.578 -0.1122 -0.0340 -0.2193
24488W        W40672  10.186   6.984   2.220 -0.1976  0.0045 -0.1015
24489W        W40673   1.326   5.510  14.769  0.0491 -0.2072 -0.3215
24490W        W40674   3.398   4.310   2.809  0.2430 -0.4328  0.0210
24491W        W40675   2.394  17.057  10.726  0.1279 -0.1476 -0.0759
24492W        W40676   1.827  15.254  14.399  0.0053 -0.1485 -0.0649
24493W        W40677  17.395   0.163   1.787 -0.0081  0.3984 -0.0510
24494W        W40678  15.325  12.248  13.778  0.1247 -0.0366  0.1545
24495W        W40679  18.167   9.497  13.169  0.0009 -0.0938  0.2620
24496W        W40680   9.749  18.078  10.907 -0.2290 -0.0620 -0.1901
24497W        W40681  16.980  14.118   4.875  0.3055  0.1939 -0.0609
24498W        W40682  11.915   2.605  14.558  0.3592  0.1860  0.0882
24499W        W40683   9.884   2.857  10.105  0.1221 -0.0318  0.1758
24500W        W40684  10.506  10.224  14.187 -0.3302  0.1099  0.1075
24501W        W40685  15.793  15.942   0.894  0.2761 -0.1684 -0.3735
24502W        W40686   9.873   7.769  10.604  0.1759 -0.1767  0.1813
24503W        W40687   5.761   8.027   3.738  0.1075 -0.0635 -0.1101
24504W        W40688   1.107  15.643   2.628  0.1071 -0.1103  0.5539
24505W        W40689  16.211   7.586   2.058  0.2378  0.5429 -0.3200
24506W        W40690   1.356  18.997  12.624 -0.1721  0.3742  0.0470
24507W        W40691  17.576   5.446  11.475 -0.1433  0.1034  0.2251
24508W        W40692   8.503  11.891  13.857  0.2394  0.4613  0.0747
24509W        W40693   4.445   0.192  13.533  0.0674 -0.1812 -0.1199
24510W        W40694  16.654   1.433   2.878  0.0813 -0.3082  0.2040
24511W        W40695   6.315   7.878   2.849 -0.1233  0.1197  0.1567
24512W        W40696   5.896  16.740   4.012  0.1520 -0.0140  0.3530
24513W        W40697   4.642   6.979  13.341  0.1250  0.1377 -0.0040
24514W        W40698  11.733   0.117   2.824 -0.3853 -0.0550 -0.1726
24515W        W40699   9.962  10.931   2.051 -0.1301  0.3413  0.1339
24516W        W40700  14.431  18.398   1.312  0.2440  0.0641 -0.1040
24517W        W40701   4.204   4.723  11.955  0.1242 -0.0746 -0.3531
24518W        W40702  18.095   3.040  13.830  0.0360 -0.0240  0.0028
24519W        W40703   8.133  16.261  13.110  0.1041 -0.1833  0.2164
24520W        W40704   5.332  11.632   1.242 -0.0058 -0.0527 -0.3294
24521W        W40705   6.979  11.896  12.332  0.0452 -0.2977  0.2044
24522W        W40706   9.318  11.126   0.013 -0.2633 -0.0892  0.1449
24523W        W40707  14.767   3.174   1.665 -0.2836  0.3880  0.1660
24524W        W40708  16.040  17.008   0.996  0.3900 -0.0016 -0.0351
24525W        W40709   5.680   1.789  13.520 -0.0067 -0.0219 -0.1061
24526W        W40710   1.732   7.418  14.825 -0.2841 -0.0934  0.1297
24527W        W40711   9.990   3.962   2.931 -0.2501  0.0370 -0.1344
24528W        W40712   1.423   2.514  11.901  0.3018 -0.1468  0.2032
24529W        W40713   0.683  15.862   4.413 -0.0780 -0.0849  0.2068
24530W        W40714  14.580  14.352   0.840  0.1925 -0.0251  0.3118
24531W        W40715   4.269  16.741   0.614 -0.2526  0.0964  0.0483
24532W        W40716  16.143  11.774   0.702  0.3870  0.0494 -0.3688
24533W        W40717  19.120   7.211  14.268  0.2449 -0.0205 -0.0018
24534W        W40718   4.776   2.518   4.087 -0.1946 -0.0897  0.0410
24535W        W40719  11.024  19.264   3.254 -0.0983  0.3204 -0.0114
24536W        W40720   6.243   3.533   1.136 -0.2634 -0.3090 -0.3763
24537W        W40721   1.713   6.304  10.668  0.5036 -0.0699  0.1922
24538W        W40722   4.432   5.889  13.979 -0.1358  0.1667  0.0688
24539W        W40723  13.143  17.707   0.648 -0.1175 -0.0334  0.0634
24540W        W40724  14.580  19.147  12.957 -0.4130 -0.2985 -0.0046
24541W        W40725  16.941   2.631   2.357 -0.0451 -0.3346  0.2119
24542W        W40726   6.493   1.007  11.500  0.0144  0.1370  0.0999
24543W        W40727  11.704   7.562  12.655  0.1739 -0.2333 -0.0678
24544W        W40728  17.280  11.131   2.074  0.1858 -0.2996  0.0202
24545W        W40729   9.234  19.113  10.664 -0.2752  0.0456 -0.0796
24546W        W40730   1.662   8.020   1.090  0.2088 -0.1590 -0.0592
24547W        W40731  10.509   9.708  13.366  0.1589 -0.2332 -0.0045
24548W        W40732  10.137  17.134  11.724  0.2343 -0.0966  0.1471
24549W        W40733  16.251  18.098  12.520 -0.0941 -0.0759  0.0391
24550W        W40734  13.729   4.153   2.342  0.1525 -0.0358  0.2564
24551W        W40735   0.917  10.776   0.308  0.3363  0.1336 -0.4209
24552W        W40736  14.235  13.380   3.147  0.4848  0.1200 -0.1308
24553W        W40737   3.910  12.323  13.415 -0.0899  0.0181  0.0362
24554W        W40738  13.041   0.509  12.650 -0.0353  0.1691 -0.0691
24555W        W40739   5.682  16.856  12.272 -0.3838 -0.3269  0.1369
24556W        W40740   3.194  12.929  11.832 -0.0299 -0.2200 -0.1116
24557W        W40741   0.224   6.225  14.021 -0.0548  0.2669 -0.1689
24558W        W40742   6.553  17.015   3.527 -0.1672 -0.0036  0.2576
24559W        W40743   9.066  11.050   3.019  0.2338 -0.3162 -0.0543
24560W        W40744   8.743   3.515  14.559  0.0632  0.1051  0.1074
24561W        W40745  11.263  10.825   4.321 -0.5266 -0.4087  0.1350
24562W        W40746  11.007   9.939   3.268  0.2135 -0.3196 -0.1362
24563W        W40747   0.162  12.152   1.188 -0.1060 -0.0569  0.1939
24564W        W40748   4.963  13.585  11.297 -0.1911  0.0067  0.2189
24565W        W40749  13.693  19.071   2.778  0.0529  0.4987 -0.0773
24566W        W40750   9.400  10.343  13.553  0.0345  0.1136 -0.1901
24567W        W40751   7.961  16.496   5.228 -0.1489  0.1017  0.0181
24568W        W40752   7.459   1.803   4.407  0.0133  0.0959 -0.0757
24569W        W40753  14.052  12.964   0.949 -0.1218 -0.0543 -0.0271
24570W        W40754   1.819   5.239   3.171 -0.0532 -0.1385  0.1190
24571W        W40755  13.308   9.169  11.829  0.2263  0.2525  0.2718
24572W        W40756  18.341   8.286   1.233 -0.0675  0.1553 -0.1734
24573W        W40757  15.132  19.047   3.772 -0.1938 -0.0243  0.1132
24574W        W40758   9.384   0.482   3.727  0.0849  0.3521 -0.2155
24575W        W40759   5.512   4.850   3.596 -0.0198  0.1850 -0.0344
24576W        W40760  14.742  15.177  14.255 -0.3241  0.1134  0.1514
24577W        W40761  10.332  10.984   2.826  0.2904 -0.0899 -0.1967
24578W        W40762   4.311  10.534   4.073  0.2485  0.3374 -0.0001
24579W        W40763  10.220   6.613   1.476  0.1432 -0.3576 -0.0173
24580W        W40764   8.453   6.448   4.130 -0.2243 -0.4217  0.0906
24581W        W40765  19.015   9.974   2.714  0.1900 -0.1570 -0.1858
24582W        W40766  13.093  18.134   2.335 -0.2008  0.3044 -0.2193
24583W        W40767  18.066   9.110  14.334 -0.1234  0.0719 -0.0754
24584W        W40768  17.408   8.485  11.135  0.1387  0.0363 -0.5127
24585W        W40769   1.403  11.799   2.114 -0.3434  0.1819 -0.0893
24586W        W40770  15.078  13.225  12.850  0.0360 -0.0456  0.0283
24587W        W40771   9.066   5.851  14.115  0.0511  0.2133 -0.1120
24588W        W40772  12.385  13.227   1.670 -0.0492  0.1544  0.0089
24589W        W40773  13.286  18.845  13.980 -0.0372  0.1614  0.0900
24590W        W40774  16.880   9.077  11.969 -0.2036 -0.2118 -0.0277
24591W        W40775   9.307  13.364   1.681 -0.4816  0.1747 -0.2797
24592W        W40776  15.676   3.506   4.240  0.0067 -0.1274 -0.2026
24593W        W40777   1.307  14.243   5.093 -0.1455 -0.2074 -0.2527
24594W        W40778  11.619  18.607   2.678 -0.2787 -0.0071  0.1133
24595W        W40779  11.876  12.971  13.614  0.0729  0.0751 -0.1938
24596W        W40780  19.118   6.373  13.785  0.1172  0.0405 -0.0899
24597W        W40781  11.230  13.243  12.360  0.3149 -0.2480 -0.0995
24598W        W40782  14.750   0.216  14.438 -0.3590 -0.4535  0.0739
24599W        W40783   7.924   6.649  12.437  0.2326  0.1804 -0.0583
24600W        W40784   0.926  17.711  12.527  0.0683  0.2186 -0.3701
24601W        W40785   2.817  10.893   1.616 -0.0827 -0.1756  0.1818
24602W        W40786   6.587  14.863  11.634  0.3909  0.1780 -0.1282
24603W        W40787   9.158   2.995   0.624 -0.1562 -0.1243 -0.1826
24604W        W40788  10.955   0.481   2.244 -0.0476 -0.1372  0.1209
24605W        W40789  15.437  16.379   1.069 -0.2388 -0.1956 -0.1324
24606W        W40790   4.350   4.631  10.308  0.0074 -0.2432 -0.0156
24607W        W40791   9.545   8.645   3.196 -0.0899 -0.0955 -0.0602
24608W        W40792   1.132   9.356   1.045  0.0563  0.0048 -0.1942
24609W        W40793  11.410  12.696  14.476  0.1703  0.2138 -0.0873
24610W        W40794   9.293   0.406  13.569 -0.0165 -0.2966  0.0733
24611W        W40795   8.840  15.173   3.106  0.1642  0.4312  0.1439
24612W        W40796  17.189  18.403  11.911 -0.1586  0.1280 -0.0897
24613W        W40797   9.719  11.685   5.045 -0.1521  0.3191  0.0348
24614W        W40798  11.791   1.217   2.353  0.2540 -0.2999  0.0719
24615W        W40799  16.256  16.448   0.740 -0.0883 -0.1342  0.1312
24616W        W40800  17.315   2.343  10.047 -0.2024 -0.2368  0.1848
24617W        W40801  11.302  13.191   1.190 -0.3359  0.1777  0.0461
24618W        W40802  10.672  17.629  11.589  0.3626 -0.2999 -0.1310
24619W        W40803   8.625  10.742  12.154  0.0946 -0.0692 -0.1374
24620W        W40804  12.574  15.239  12.239  0.2546 -0.1417  0.1833
24621W        W40805  16.115   9.150  11.936  0.0534 -0.2904  0.0486
24622W        W40806   2.239  10.967   3.798  0.0419  0.0529  0.2808
24623W        W40807   1.114   1.566   5.550 -0.1604 -0.1622  0.2840
24624W        W40808   7.586   8.551  11.982  0.1196 -0.3300  0.0612
24625W        W40809  15.341  10.106  10.940 -0.0122  0.2573  0.0330
24626W        W40810   8.489   3.861   1.837  0.0579  0.2278 -0.0121
24627W        W40811  13.179  11.233   0.167  0.2287 -0.0591  0.1754
24628W        W40812   2.413   9.815   4.987 -0.2001  0.0253  0.2897
24629W        W40813   3.129   5.183   1.058 -0.2248 -0.0171  0.2380
24630W        W40814   6.572  18.152  13.394 -0.3993  0.0629  0.3437
24631W        W40815  14.028  14.534   5.333  0.0929 -0.1169  0.1958
24632W        W40816   2.342  18.622  13.246 -0.0061  0.2241  0.1342
24633W        W40817  16.576  18.926  13.607 -0.2677  0.0340  0.3812
24634W        W40818   6.815  11.325   1.141 -0.1779 -0.2882 -0.2962
24635W        W40819   3.923   9.450   3.276 -0.0410  0.2255 -0.0514
24636W        W40820  12.428   3.485   3.108 -0.2177  0.1803  0.3065
24637W        W40821   8.218   0.044   0.155 -0.1876 -0.1619 -0.1498
24638W        W40822  12.407  11.784   2.035  0.0501 -0.1171  0.0411
24639W        W40823   7.006  11.538  11.607  0.0512  0.1043 -0.0442
24640W        W40824  10.267   8.460  11.275 -0.1006 -0.1546  0.3795
24641W        W40825   4.606  10.773  10.352 -0.0518 -0.1278  0.0026
24642W        W40826   0.253  18.824  12.563  0.0114  0.0678  0.0790
24643W        W40827   9.135   3.203  14.707  0.2158 -0.0432 -0.1482
24644W        W40828  10.737   4.559  13.682 -0.0456  0.3892 -0.1104
24645W        W40829   7.814  16.795   0.024  0.0561 -0.0261 -0.1509
24646W        W40830  10.969   8.614   4.834 -0.2992  0.1106 -0.0315
24647W        W40831  13.669  10.413   3.638 -0.2130 -0.0693 -0.2223
24648W        W40832   9.959   6.941  10.812 -0.1138 -0.1721  0.5099
24649W        W40833   8.193  16.938   0.390 -0.0327 -0.0750 -0.0493
24650W        W40834   7.501   4.740   2.689 -0.1066  0.0049 -0.0213
24651W        W40835  11.254   8.366   2.616 -0.1784 -0.0577 -0.0195
24652W        W40836  10.836   8.206   2.961 -0.1638 -0.2886  0.2664
24653W        W40837   0.195   0.481  14.524 -0.2208  0.1839  0.1609
24654W        W40838  17.550   3.276   4.200 -0.1289  0.4919 -0.0084
24655W        W40839   7.834   3.511   0.726 -0.1820  0.3526  0.2090
24656W        W40840  15.595  14.561   0.736  0.1795  0.4113 -0.3379
24657W        W40841   7.231  18.033   4.707 -0.1784  0.1698 -0.2239
24658W        W40842  13.526  14.099  11.960  0.2399 -0.1404 -0.2771
24659W        W40843   9.373   9.048   0.869 -0.0280  0.0412  0.2872
24660W        W40844   2.568  13.535  13.590 -0.0327  0.2351 -0.1722
24661W        W40845   0.859   6.042   1.436  0.0496 -0.1136 -0.0795
24662W        W40846   7.190   5.424  13.503 -0.1051  0.0327  0.1118
24663W        W40847  15.177   5.821   4.926 -0.0273  0.0767  0.2378
24664W        W40848  10.891   9.088  10.657 -0.3753 -0.0435 -0.0345
24665W        W40849  15.117   7.569  12.108  0.0788  0.3004  0.0255
24666W        W40850  17.649   9.978   0.506 -0.0992  0.2458 -0.0906
24667W        W40851   1.025  12.719  11.017  0.1961 -0.0869 -0.2693
24668W        W40852   5.238  10.943   2.299 -0.0875  0.1721 -0.1731
24669W        W40853  13.914   1.296   1.459  0.0932  0.0807  0.0044
24670W        W40854  16.089  15.712  13.816  0.0113 -0.2584  0.2191
24671W        W40855   2.706   8.089   2.561 -0.0791 -0.1023 -0.2156
24672W        W40856   4.189   3.904  12.196  0.2649  0.2879 -0.0653
24673W        W40857   5.401  18.442   3.362  0.2513 -0.0756  0.0497
24674W        W40858   8.285  14.004   0.915 -0.1694 -0.1643  0.2668
24675W        W40859   3.695   0.176  10.530  0.5459  0.0414 -0.0652
24676W        W40860   1.673   4.227  11.307  0.0042  0.2581  0.1575
24677W        W40861   3.334   6.398  11.076 -0.1241  0.0616 -0.0237
24678W        W40862   5.668  12.811  11.786 -0.1371  0.0503  0.0775
24679W        W40863  17.264  10.599   4.267 -0.0990 -0.0234  0.3508
24680W        W40864   1.465  17.232   3.172 -0.1584 -0.2443 -0.0570
24681W        W40865  13.573   9.014   1.383 -0.0183 -0.1265  0.2596
24682W        W40866  10.250   8.514   9.442  0.0305  0.3131 -0.0078
24683W        W40867   1.759   6.172   2.410  0.2109 -0.1103  0.0133
24684W        W40868   4.361   5.526  14.869  0.0958 -0.2132  0.1875
24685W        W40869  10.926  14.822  12.903  0.1805  0.3737 -0.2743
24686W        W40870   7.672  10.083  11.580  0.1758 -0.0353  0.3837
24687W        W40871   1.258  11.636   0.598 -0.4026 -0.0689  0.1037
24688W        W40872  13.675   4.588  10.729  0.0730  0.0262 -0.1269
24689W        W40873   8.731   1.339   3.548 -0.2671  0.2449 -0.0354
24690W        W40874   8.206  12.143  12.114 -0.0825  0.2153 -0.0851
24691W        W40875   7.373   7.730  13.201 -0.2223  0.0823 -0.0638
24692W        W40876   8.804  17.789   2.440  0.0261 -0.0530  0.0323
24693W        W40877   2.750   5.507  14.194  0.1292 -0.0759  0.3444
24694W        W40878   9.603   4.330  13.064  0.2174 -0.0395  0.1589
24695W        W40879  14.459  16.976   3.741 -0.2210  0.5453 -0.3823
24696W        W40880  15.955   2.447  14.464  0.0734 -0.0263 -0.1521
24697W        W40881  10.829   7.591   3.688  0.1811  0.1366 -0.2125
24698W        W40882  18.699   4.633   1.114  0.2525  0.1567  0.1357
24699W        W40883   8.306  13.081   0.425 -0.1987  0.2605  0.3194
24700W        W40884   7.791   2.583   4.051 -0.2113 -0.1419  0.0606
24701W        W40885   2.670  11.567  10.494 -0.1382 -0.2499  0.1309
24702W        W40886  19.011   5.842  10.219 -0.1203 -0.0547  0.3471
24703W        W40887   5.647  14.565   9.677  0.3644  0.0538 -0.0375
24704W        W40888   4.452   1.803  14.793  0.3806  0.0351  0.2051
24705W        W40889   9.787   7.789  14.969  0.3698 -0.0214  0.2767
24706W        W40890   8.708   1.549   0.322 -0.0070 -0.0687 -0.1633
24707W        W40891  11.042   4.231  10.686 -0.0858  0.2407  0.0546
24708W        W40892  18.737  10.557   4.661  0.2602  0.0776 -0.2021
24709W        W40893   9.392  15.425   0.396  0.1168  0.2170  0.3443
24710W        W40894   2.223  17.669   4.946  0.1308 -0.0342  0.1209
24711W        W40895  16.871   0.268  13.822 -0.0216 -0.1136 -0.1011
24712W        W40896  11.301  10.753   2.564  0.1924 -0.3922  0.0157
24713W        W40897  15.698  16.661  12.458 -0.1386 -0.0396 -0.0345
24714W        W40898   8.615  11.672   4.578 -0.1888  0.0568 -0.0057
24715W        W40899   8.625   1.656  14.168  0.1853 -0.1857 -0.0414
24716W        W40900  14.805   0.987  13.054 -0.3787 -0.0350 -0.1211
24717W        W40901   5.653  11.963   2.614 -0.4145  0.0195  0.0351
24718W        W40902  12.941   9.733   4.308 -0.0656  0.0604  0.2938
24719W        W40903   6.933   3.815  11.272  0.1109 -0.2488  0.0958
24720W        W40904   1.342  12.019   3.284  0.3630 -0.0521 -0.1911
24721W        W40905  11.882  10.243  14.335 -0.2266  0.1765  0.2439
24722W        W40906  17.300   7.593  11.856  0.0840 -0.0378 -0.0309
24723W        W40907   9.879  16.844  10.872  0.0697 -0.3070  0.0140
24724W        W40908   3.836  14.710  13.324  0.0458  0.0224 -0.2471
24725W        W40909   0.752   7.116   2.113  0.0649  0.3272  0.0446
24726W        W40910   7.247  14.957   3.046  0.0402 -0.2950  0.1487
24727W        W40911   9.468  10.320   5.931  0.3595 -0.0269  0.0784
24728W        W40912   1.157  13.864   0.567  0.0226 -0.1100  0.0957
24729W        W40913  17.446  14.673   0.714  0.1627  0.2051  0.2016
24730W        W40914  18.318  13.581   1.520  0.1179 -0.1537 -0.0577
24731W        W40915   2.798   2.894  13.664  0.0507 -0.0695 -0.3265
24732W        W40916   4.748   2.718  12.893 -0.2314 -0.5489 -0.1478
24733W        W40917   6.028  11.561  11.092 -0.1997 -0.0090 -0.2923
24734W        W40918   9.569   9.037  10.591 -0.0251  0.1302  0.1182
24735W        W40919  14.362  12.885  14.567 -0.2915  0.1415 -0.1328
24736W        W40920   2.628   9.085   9.907  0.0932  0.1532  0.2284
24737W        W40921  11.435   6.553   1.013  0.1206  0.0273  0.3706
24738W        W40922  12.950   3.572   4.310 -0.1995 -0.0910 -0.0545
24739W        W40923  10.338  14.141  11.114  0.0537 -0.1211 -0.1734
24740W        W40924   8.575  15.212   1.016 -0.0974 -0.2239  0.0697
24741W        W40925  17.420  13.471  14.839 -0.1777  0.2394  0.1380
24742W        W40926  17.842  17.899   3.590  0.4877  0.0037 -0.1857
24743W        W40927  17.811  14.115   4.275 -0.1759 -0.0100  0.1696
24744W        W40928   7.573  15.346  14.625 -0.2058  0.1045 -0.4403
24745W        W40929  15.972  16.401   1.117 -0.0718  0.3598 -0.2125
24746W        W40930   9.307   6.282  13.428 -0.4207 -0.5811  0.0279
24747W        W40931   4.108  18.906   1.747  0.3757 -0.2639  0.2497
24748W        W40932   0.447   2.467   1.520 -0.3027 -0.1368  0.0372
24749W        W40933  14.536   1.930   4.271  0.0916  0.0248 -0.3711
24750W        W40934  11.496   2.526  10.044 -0.0280 -0.3944 -0.4058
24751W        W40935   3.248   3.102  13.617  0.0444  0.2550 -0.1824
24752W        W40936   6.249   0.608   9.410 -0.2109 -0.0497 -0.2118
24753W        W40937  11.549   5.361   0.992  0.1711 -0.1246 -0.1128
24754W        W40938  11.706   8.993   1.275 -0.0644  0.3030 -0.3041
24755W        W40939  14.314   0.570   4.249  0.0849 -0.2555 -0.0329
24756W        W40940   0.559  10.528  10.168  0.1123 -0.0217 -0.0756
24757W        W40941   9.296   5.227  11.466 -0.0529 -0.3235 -0.0695
24758W        W40942  14.702   6.855  12.909 -0.0335  0.0845  0.1724
24759W        W40943  10.291   3.443  12.584  0.1207 -0.3710  0.1467
24760W        W40944  18.278   5.197   2.843  0.2267 -0.0629 -0.4061
24761W        W40945  15.027  16.060   0.399  0.0410  0.0976  0.2629
24762W        W40946   7.112  14.499   1.952 -0.2174  0.2814  0.2873
24763W        W40947  11.541   9.007   2.568 -0.3036  0.0469 -0.2533
24764W        W40948   9.150  14.970   0.428  0.0639 -0.1329 -0.3426
24765W        W40949  15.379  18.849  10.171  0.0465 -0.0948  0.2628
24766W        W40950   4.740  14.813   4.617 -0.0546  0.0456  0.3789
24767W        W40951  16.028  13.861  11.245 -0.0274  0.3587 -0.0699
24768W        W40952   5.048   3.709   8.982 -0.0336 -0.1176  0.2013
24769W        W40953   3.883   6.670   0.818 -0.3543  0.3056 -0.3024
24770W        W40954  12.500  12.630   0.749 -0.0502  0.2947  0.2072
24771W        W40955  14.295   4.268  14.801 -0.1400 -0.2611  0.1889
24772W        W40956   0.304  10.616  12.491 -0.0217  0.1541 -0.1659
24773W        W40957  13.595   3.365  12.750 -0.2328  0.0994 -0.1126
24774W        W40958  12.998  17.222  11.706 -0.2666  0.1995  0.0313
24775W        W40959   7.107  11.108   4.525 -0.1067  0.1738  0.0699
24776W        W40960   9.226  19.016   4.345  0.0230  0.3652  0.2155
24777W        W40961  18.103  11.213   1.106  0.1219  0.2655  0.0878
24778W        W40962   9.528  13.888   5.302  0.2553  0.1634 -0.0637
24779W        W40963   0.511  13.055  11.525  0.0160  0.0482 -0.0635
24780W        W40964   6.456   0.706   1.238 -0.2613 -0.1436 -0.3095
24781W        W40965  11.621  12.868   1.021  0.1451 -0.1908  0.4465
24782W        W40966  10.369  18.302  14.302  0.0079  0.3390  0.0474
24783W        W40967   9.718  11.353   4.236 -0.0856  0.0059  0.0278
24784W        W40968  13.403  16.358   0.513 -0.1394 -0.2975  0.1343
24785W        W40969   5.132  16.755   1.034  0.1766 -0.2711  0.2610
24786W        W40970   5.646  10.792   3.929 -0.0378 -0.0191 -0.1210
24787W        W40971  17.210   3.469  11.297 -0.1760  0.3392  0.0975
24788W        W40972   3.091   7.069   3.756  0.2547 -0.1915 -0.0417
24789W        W40973   9.380   3.913   1.777  0.0975 -0.0986  0.1930
24790W        W40974   5.216   8.844  13.936 -0.5238 -0.0547  0.2649
24791W        W40975  11.381  18.830  13.596  0.1477  0.3118 -0.1091
24792W        W40976  16.265  11.203  12.939  0.0743  0.3312  0.0719
24793W        W40977   5.153  15.728  11.858 -0.1376 -0.2948  0.0841
24794W        W40978  18.516   3.886  12.326  0.1907 -0.0467  0.1752
24795W        W40979  14.919  10.214   0.253  0.3066 -0.3024  0.2452
24796W        W40980  15.582   0.567   9.270 -0.3124 -0.0258  0.1041
24797W        W40981   7.339  19.320  13.502  0.1675  0.0311 -0.0207
24798W        W40982  11.857   2.179   0.816 -0.1998 -0.0800  0.1911
24799W        W40983  11.104  15.615  12.082  0.0310 -0.1141 -0.2799
24800W        W40984   4.633   5.075   3.344 -0.2088  0.3280  0.1451
24801W        W40985  13.701  15.167   1.637 -0.4994 -0.0413  0.1372
24802W        W40986  11.523  10.072  12.420 -0.0129  0.2165 -0.0699
24803W        W40987  11.332  18.701   1.564  0.2166 -0.1446  0.2932
24804W        W40988  18.438  18.971  10.114  0.2902  0.0358 -0.1060
24805W        W40989   2.975   5.664   1.939  0.1934  0.2317  0.3582
24806W        W40990  15.431  15.680  13.522  0.1437  0.0275  0.1167
24807W        W40991   2.490  10.498  14.816  0.0921 -0.2096  0.1242
24808W        W40992   1.634   0.118  14.171 -0.1252  0.3942  0.1187
24809W        W40993  15.360  14.140   1.949 -0.4369  0.1100  0.0532
24810W        W40994   9.612  17.744   1.241 -0.1918  0.0334 -0.2455
24811W        W40995  12.467  19.346   5.542 -0.0124  0.1146  0.2675
24812W        W40996  12.764  12.326   0.295  0.0021  0.1813  0.1644
24813W        W40997  13.623  17.006   4.661  0.1553  0.1791  0.0751
24814W        W40998  12.259   2.999   9.925  0.2429 -0.4463 -0.2863
24815W        W40999  14.925  18.233  12.398  0.0146 -0.0118 -0.0653
24816W        W41000  17.243  10.724  11.205 -0.3706  0.1840  0.1217
24817W        W41001  17.363  18.699   1.691  0.0684  0.0670  0.4078
24818W        W41002   8.803  12.719  14.671  0.0337 -0.2076 -0.0879
24819W        W41003   4.764  12.742  13.721 -0.0376  0.0917 -0.0972
24820W        W41004   0.333  14.559   0.693  0.0082 -0.3303 -0.0484
24821W        W41005   6.819   9.860   4.873  0.1405  0.1233 -0.2563
24822W        W41006  15.826  12.296  10.609 -0.2960 -0.2197 -0.0665
24823W        W41007   5.026   5.581  11.809 -0.0636  0.1568  0.0851
24824W        W41008   7.637   3.822   4.819 -0.0887 -0.0069 -0.0254
24825W        W41009  16.648  18.481   0.324 -0.0613  0.1424  0.0866
24826W        W41010   8.308   7.981   9.306 -0.1836  0.3393  0.0154
24827W        W41011   9.184   5.409   3.461 -0.0346 -0.1733  0.2783
24828W        W41012   6.584   5.904  13.241 -0.0217 -0.0775 -0.1435
24829W        W41013   5.521  10.537  13.931  0.0652  0.1403 -0.1638
24830W        W41014   4.533  12.813  11.106  0.0903 -0.2410 -0.0275
24831W        W41015  18.968   5.786   1.524 -0.2738  0.0340  0.0578
24832W        W41016  10.294  10.385   5.396  0.0513  0.0849 -0.4761
24833W        W41017   7.497   3.139  12.685  0.4594 -0.6177 -0.1128
24834W        W41018   2.180   5.492   2.298 -0.0911 -0.2200  0.1802
24835W        W41019  13.105   9.296   3.322 -0.1400  0.0421 -0.1753
24836W        W41020   9.898   9.613   5.052 -0.1043 -0.2922  0.1648
24837W        W41021   3.640  18.870   5.217  0.3235  0.2367 -0.1735
24838W        W41022   6.741  16.915  11.102 -0.2329  0.0958 -0.0956
24839W        W41023   7.285   6.963  13.843  0.3836  0.0172  0.1478
24840W        W41024   2.826   8.713   1.400  0.0439 -0.1321  0.5724
24841W        W41025   9.192  19.376   3.499 -0.2482 -0.2137  0.0691
24842W        W41026   3.899   9.290  12.724 -0.2342 -0.2450  0.2181
24843W        W41027  15.273  12.332   2.822 -0.2115  0.2491  0.2556
24844W        W41028  17.303  19.194  14.958 -0.0897 -0.2550 -0.0553
24845W        W41029  14.628  17.213   2.961  0.3417 -0.1566 -0.1070
24846W        W41030  10.533  13.937   4.573  0.0671 -0.1074  0.0773
24847W        W41031  17.080   7.894  13.833 -0.0058  0.2541 -0.1560
24848W        W41032   2.460  17.262   0.720  0.1749 -0.0990 -0.0046
24849W        W41033   0.958   6.371   2.602 -0.0513  0.0603  0.0284
24850W        W41034   3.007   3.475  13.733  0.0937  0.4959 -0.2243
24851W        W41035   4.279  13.135   3.710 -0.1659 -0.0940 -0.3279
24852W        W41036   4.163  19.086  13.139 -0.0325  0.0921 -0.0882
24853W        W41037  19.289   1.927   5.907 -0.0713 -0.0710 -0.0737
24854W        W41038  11.796   6.755  13.236 -0.1710 -0.0271 -0.2062
24855W        W41039   2.085   7.222  11.069 -0.2390  0.0543 -0.0718
24856W        W41040   2.618   6.578  11.696  0.0739 -0.4730  0.0101
24857W        W41041  18.117   2.042  12.799 -0.1778  0.2967 -0.2629
24858W        W41042   3.395  13.487  12.715 -0.3028  0.1202  0.0083
24859W        W41043   9.554   9.193   2.110 -0.0002 -0.0360 -0.2354
24860W        W41044   4.959   5.837   1.962 -0.2150  0.1533  0.1552
24861W        W41045  10.144   6.421  13.949 -0.2495 -0.0153  0.0667
24862W        W41046  16.370   8.630   4.450 -0.1550 -0.1033  0.4918
24863W        W41047   5.930  16.626   5.180  0.0725 -0.2294 -0.1695
24864W        W41048   0.757  19.236   3.437  0.3152  0.0326 -0.0026
24865W        W41049  12.353   6.833   2.973 -0.0341 -0.1990 -0.2951
24866W        W41050   2.004  17.774   3.076  0.0650  0.1415 -0.0455
24867W        W41051  14.737  11.384  14.392 -0.0050  0.2516 -0.1704
24868W        W41052   0.358  10.058  13.154 -0.0129  0.2003  0.2673
24869W        W41053  19.191   1.479  13.310  0.0527 -0.1270  0.4442
24870W        W41054  17.716   1.704  13.516 -0.1474  0.1862 -0.0344
24871W        W41055   8.246   1.116   1.664 -0.0556 -0.1616  0.1780
24872W        W41056  13.392  10.047   4.366 -0.1562  0.3496  0.1364
24873W        W41057   1.318  12.463   2.285  0.0104  0.3696  0.0044
24874W        W41058   6.713   9.527  13.915 -0.0027 -0.2164  0.0514
24875W        W41059  17.668  18.817   0.669  0.1006  0.2804 -0.0147
24876W        W41060  14.847   0.737   9.988  0.0457 -0.0370  0.1872
24877W        W41061   4.822  16.762  12.604  0.0060  0.1677 -0.2618
24878W        W41062   5.652  17.004   0.385  0.0870  0.2707  0.0120
24879W        W41063   1.684  19.152  12.322 -0.2256 -0.2269 -0.1514
24880W        W41064  13.233  11.297  11.070 -0.0334 -0.1815  0.0418
24881W        W41065   3.186   1.579  10.487 -0.3753  0.2398  0.0044
24882W        W41066  18.729  15.737   4.797  0.2570 -0.0224  0.0666
24883W        W41067  14.849  11.818   5.400 -0.0788  0.2053  0.0098
24884W        W41068  12.603  14.177   5.253  0.2394  0.2404 -0.0934
24885W        W41069  14.274  17.064  11.051 -0.1747  0.1443 -0.1390
24886W        W41070   5.808  18.258  14.808  0.2199  0.1429 -0.1065
24887W        W41071   7.021   1.885  14.849 -0.0513 -0.0356 -0.0085
24888W        W41072   4.156   8.810  12.960 -0.3986 -0.1078 -0.2297
24889W        W41073  18.128  18.001  11.052 -0.3389 -0.2709 -0.1427
24890W        W41074  13.532  14.806  13.802 -0.1993 -0.0252 -0.0397
24891W        W41075  11.030  17.794   3.449  0.2880 -0.1995  0.0307
24892W        W41076  13.574   8.490   2.674  0.1226  0.2047 -0.0139
24893W        W41077   3.576  18.707  14.067 -0.1546 -0.1402  0.0877
24894W        W41078   9.909  16.088   4.606 -0.1314 -0.0229 -0.2439
24895W        W41079   1.963   3.682  11.353 -0.0101  0.1656 -0.0888
24896W        W41080   8.429   6.027   1.894 -0.2984 -0.1116 -0.2371
24897W        W41081   1.746   4.539  11.688 -0.4057  0.1337 -0.2863
24898W        W41082  17.326   6.346  11.444  0.0431 -0.0625 -0.0029
24899W        W41083  12.086   0.143   5.126 -0.3993  0.2207 -0.0419
24900W        W41084  16.800   5.216   0.032 -0.0860 -0.1728  0.0323
24901W        W41085  13.687   8.793   0.334 -0.2479 -0.0761  0.0424
24902W        W41086   7.164   2.662   1.458 -0.5867 -0.0084  0.2539
24903W        W41087   1.106   4.370   4.311 -0.1133  0.1561 -0.0746
24904W        W41088  13.064   6.247  11.587  0.1305  0.0799 -0.0699
24905W        W41089  10.407  11.554   4.095 -0.6189  0.2360  0.1733
24906W        W41090  16.089   9.127   4.501 -0.0773 -0.0342  0.1878
24907W        W41091  18.679  14.505   3.538  0.5002  0.0780  0.3944
24908W        W41092  15.272  16.808   5.378 -0.3635  0.4390  0.0581
24909W        W41093  17.516  13.459   4.607  0.1325 -0.0670  0.1220
24910W        W41094   9.175   4.474  13.705 -0.3169 -0.0711  0.1064
24911W        W41095   5.983   5.006  10.063  0.2340  0.0718  0.0534
24912W        W41096   7.440  15.547  12.922 -0.0264  0.4521 -0.0179
24913W        W41097   8.884   9.981   5.199  0.1493  0.1648  0.0338
24914W        W41098  16.899  15.759  13.135  0.0013 -0.2018  0.1083
24915W        W41099  16.927  15.585   1.801  0.3551  0.0987  0.0766
24916W        W41100   6.046   2.656   2.652  0.2024  0.1982 -0.0916
24917W        W41101   3.783   4.197   1.085  0.1652  0.3832  0.0551
24918W        W41102  19.221  14.198  13.127 -0.0387  0.0949 -0.4015
24919W        W41103  16.609  18.473  14.300  0.0595 -0.1355  0.0258
24920W        W41104   7.380   6.283   1.709 -0.2437 -0.0135 -0.0933
24921W        W41105  19.362  14.478   1.064 -0.1289  0.1397 -0.2459
24922W        W41106  12.834  18.734  14.649 -0.0527 -0.1275 -0.1123
24923W        W41107  19.071  16.552  11.873  0.1170 -0.1709 -0.0998
24924W        W41108   5.724   9.275  10.789 -0.1310 -0.0851 -0.1151
24925W        W41109   1.117  12.993  12.350  0.0039 -0.3630 -0.2484
24926W        W41110  18.987  14.003   4.204  0.1508  0.0203  0.1547
24927W        W41111  17.132   4.126  10.671  0.1515 -0.0027 -0.0378
24928W        W41112   8.040  14.622   2.407 -0.3404 -0.1102  0.0612
24929W        W41113   2.537   1.916   4.881 -0.0846  0.1748  0.2245
24930W        W41114   0.446   9.408   4.202 -0.2072  0.0478 -0.1107
24931W        W41115  13.169   9.762   0.645  0.0898 -0.0661  0.0694
24932W        W41116  18.671  12.098   2.363 -0.1125  0.3202  0.0110
24933W        W41117   5.887  14.133   4.948  0.2003  0.0747  0.0721
24934W        W41118   4.261   7.540   4.443 -0.1327  0.1861 -0.4626
24935W        W41119   0.574  11.475  14.703 -0.3065 -0.4445  0.1773
24936W        W41120  10.045   3.965   0.186 -0.3511  0.2310  0.2535
24937W        W41121  14.354  13.265  10.835 -0.1751  0.1092  0.0172
24938W        W41122   5.090  15.138   4.759 -0.0510 -0.2338  0.3915
24939W        W41123  10.723   7.126   1.302 -0.2348  0.2278  0.1773
24940W        W41124  18.532   0.455  14.579  0.0327  0.0789  0.1302
24941W        W41125   4.040   5.946   3.326 -0.1260 -0.3335 -0.2803
24942W        W41126   8.343  12.711   1.275  0.1266  0.1535  0.1563
24943W        W41127   4.977  13.411  13.304 -0.0231  0.1410 -0.1541
24944W        W41128   6.787   6.901  13.560 -0.2208 -0.1879 -0.1359
24945W        W41129  14.917  10.731  14.770  0.3731 -0.0086 -0.0351
24946W        W41130   7.681  16.332  14.928  0.1193 -0.1048  0.1528
24947W        W41131  14.996  16.889   3.015  0.1259  0.0811 -0.3870
24948W        W41132  16.807   0.111   3.412 -0.1261 -0.4693 -0.0648
24949W        W41133  10.071  11.569  11.649  0.2753 -0.0599  0.3483
24950W        W41134   6.062   1.434   0.303  0.2407  0.1113 -0.1299
24951W        W41135   0.203   8.215   2.504 -0.1131  0.3538  0.0360
24952W        W41136   8.219  13.831   3.353  0.0118  0.1997  0.0287
24953W        W41137   4.285  10.485  10.666 -0.1050 -0.0080  0.2231
24954W        W41138  15.968  14.840  11.423  0.1244 -0.0435 -0.0820
24955W        W41139   2.479   5.645   4.570  0.0418  0.1714  0.1601
24956W        W41140   2.474   1.898   0.803  0.2618  0.2128 -0.1138
24957W        W41141  13.597  15.190   2.696  0.0284 -0.4557  0.3309
24958W        W41142  11.029   8.051   3.474  0.0660 -0.1745 -0.1164
24959W        W41143   8.844  15.746  13.191  0.0502 -0.0266 -0.0189
24960W        W41144   0.765   8.760   2.450  0.0764  0.3122  0.1878
24961W        W41145   5.201   3.120   2.316  0.1161 -0.1326 -0.0527
24962W        W41146  18.357   5.356   2.085 -0.2789  0.0156 -0.1776
24963W        W41147  16.295   9.611   2.374 -0.0706 -0.2739  0.0852
24964W        W41148  17.640  17.453   4.873 -0.1017 -0.0589 -0.1094
24965W        W41149  10.109   9.306   6.034  0.0578  0.1309 -0.0013
24966W        W41150   9.054   2.075  13.502  0.2645  0.0816 -0.1298
24967W        W41151  18.753  14.399   3.052  0.1104  0.2929  0.1051
24968W        W41152   6.350   3.866  11.194 -0.0856 -0.2410  0.1206
24969W        W41153   9.463  10.214   0.119  0.1105  0.2142  0.3033
24970W        W41154  15.243   8.538  14.344  0.4074 -0.0777 -0.1034
24971W        W41155   0.607  12.641  13.875  0.1092  0.1784 -0.1395
24972W        W41156   1.653  16.016   1.389 -0.1210 -0.1770 -0.1999
24973W        W41157  15.280  11.842   3.033  0.0288  0.0428 -0.1221
24974W        W41158   1.569  12.161   1.322  0.0283  0.0554 -0.0933
24975W        W41159   4.311   0.301  14.375  0.1863  0.0215  0.4655
24976W        W41160  17.078   7.339  13.601 -0.3166 -0.0412 -0.1863
24977W        W41161  16.505   1.741  11.998 -0.2272 -0.0831  0.0568
24978W        W41162   9.459  10.668  14.694 -0.2476 -0.1046  0.1131
24979W        W41163   4.038   2.970   4.031 -0.0704  0.2092  0.1282
24980W        W41164  15.807   5.992   3.248  0.1661  0.2721  0.0803
24981W        W41165   3.297   3.669   4.342 -0.3039 -0.0822  0.1450
24982W        W41166   8.510   0.116   1.553  0.1551 -0.3285  0.1388
24983W        W41167  11.224  15.180   1.972 -0.1081 -0.2122 -0.1103
24984W        W41168   0.429   7.810  10.668  0.2282  0.2120  0.0183
24985W        W41169   5.139  15.356  14.358 -0.3295 -0.0878  0.2675
24986W        W41170   5.263  12.857  14.545  0.1552 -0.0713 -0.0487
24987W        W41171   4.807  13.621   1.877 -0.1690 -0.2145  0.2681
24988W        W41172  15.053   4.813  14.283 -0.0451 -0.2638  0.0688
24989W        W41173   4.517   2.831   0.368  0.1050 -0.4131  0.3511
24990W        W41174   2.271  11.228  10.704  0.2687 -0.0121 -0.0459
24991W        W41175   6.608   4.252   5.047 -0.2385  0.0937  0.2268
24992W        W41176   5.772  10.585  13.495 -0.1471  0.2346 -0.1066
24993W        W41177  14.004   2.759  13.116 -0.3179 -0.0377 -0.2405
24994W        W41178  13.286  16.452   3.556  0.0468  0.0444 -0.1125
24995W        W41179  16.864  11.242   2.940 -0.5066  0.1387  0.1704
24996W        W41180  13.151   8.250   3.527  0.0315  0.1586  0.2204
24997W        W41181   0.243   3.597   2.706  0.0572  0.0311 -0.3959
24998W        W41182  12.562  10.420   1.186  0.3057  0.1768 -0.0211
24999W        W41183   7.816   9.718  12.716 -0.0139  0.0481 -0.3526
25000W        W41184  12.574   8.224   3.559 -0.3002 -0.1424 -0.1734
25001W        W41185  17.637  13.375  13.944  0.1968 -0.3166  0.4298
25002W        W41186   8.926   3.518  11.507 -0.0754 -0.0364  0.0764
25003W        W41187  15.752  10.539   2.518 -0.0293 -0.0298 -0.0812
25004W        W41188  17.011   2.665  13.745  0.2094  0.0043 -0.0810
25005W        W41189  17.646   6.783  11.569  0.3178 -0.1270 -0.0706
25006W        W41190  10.884  10.768  14.945 -0.0872 -0.3520 -0.0522
25007W        W41191  13.795   3.187   0.015 -0.2838 -0.0936  0.1790
25008W        W41192   0.269  10.437  11.692  0.0250  0.0139  0.1061
25009W        W41193  11.080  10.496  14.057 -0.1744  0.1427  0.0098
25010W        W41194   4.585   8.467  14.717 -0.0990  0.0037 -0.0442
25011W        W41195  10.140   1.156  12.000  0.1550 -0.0839  0.0736
25012W        W41196  11.631   9.972   4.871  0.2152 -0.1550  0.0500
25013W        W41197   2.509   4.836  12.318  0.1612  0.0106  0.2117
25014W        W41198   1.884  13.628  14.319  0.0830  0.2623  0.1460
25015W        W41199   7.225   8.298  12.280  0.0500 -0.0139  0.1454
25016W        W41200   3.070   8.476  14.592 -0.1337 -0.1692 -0.2894
25017W        W41201  11.360   3.397   9.560  0.2468  0.2950  0.1507
25018W        W41202  11.726  14.598   4.319 -0.1072  0.2698  0.3261
25019W        W41203   9.927   3.416  13.802 -0.3558  0.4269  0.1213
25020W        W41204  19.194   0.164   0.390 -0.0676 -0.0085 -0.0735
25021W        W41205  16.485  11.523   2.680 -0.1503 -0.0846 -0.1223
25022W        W41206  10.924  13.608  11.563  0.0543 -0.1051 -0.2292
25023W        W41207  17.052  15.095   4.605 -0.2363 -0.1489 -0.1691
25024W        W41208   1.425   4.105  10.313 -0.2908  0.3251 -0.3875
25025W        W41209   3.155  15.925   0.763  0.0342 -0.0944 -0.2580
25026W        W41210   4.981  12.612   9.832  0.0254 -0.0839 -0.0393
25027W        W41211  19.161  10.924  13.331 -0.1718 -0.3197  0.1195
25028W        W41212   1.964   1.536   3.089 -0.0813 -0.3464 -0.3198
25029W        W41213  10.627  15.288   1.043 -0.0562 -0.2052 -0.1706
25030W        W41214  12.594  15.571   3.452  0.1151 -0.1339 -0.2548
25031W        W41215  14.052  19.302  13.787 -0.1131  0.0689 -0.1783
25032W        W41216  14.485  14.764  12.530  0.0232  0.0226  0.1850
25033W        W41217   9.439   2.514  13.218  0.1678  0.0532 -0.0161
25034W        W41218  14.261   4.570   1.553 -0.0422  0.3283 -0.0926
25035W        W41219   8.301   7.138  10.847 -0.0021 -0.1216  0.1293
25036W        W41220   2.236  18.773  14.165  0.0458  0.0116  0.1264
25037W        W41221   8.114   9.222   1.936  0.3366 -0.0539 -0.3196
25038W        W41222  15.265   5.917   1.560  0.0410  0.0776 -0.1351
25039W        W41223   5.940   2.184  14.381 -0.0852  0.1018  0.1342
25040W        W41224  15.913  10.852   0.613  0.2510  0.1025  0.0656
25041W        W41225  11.947  12.888   5.004 -0.1958 -0.1642 -0.1120
25042W        W41226  12.863   2.569  10.252  0.2058 -0.0789  0.0134
25043W        W41227  14.494  19.040  14.638 -0.2057  0.1414  0.0017
25044W        W41228  16.849  17.798   0.943  0.1130 -0.3239  0.0939
25045W        W41229   7.025   6.232   2.739 -0.1600 -0.1257 -0.0413
25046W        W41230   1.835   7.846   0.050  0.0758  0.3560 -0.0061
25047W        W41231   7.366   3.013   4.789  0.0143  0.0932  0.3545
25048W        W41232   8.141  15.169  10.771  0.0175  0.0293 -0.0359
25049W        W41233  16.014  13.719   4.221 -0.4188  0.0973 -0.1640
25050W        W41234   8.529  16.188  14.788 -0.3675  0.0216 -0.1628
25051W        W41235  17.271   6.873  13.594 -0.0022  0.1454  0.0546
25052W        W41236  10.490  15.194   2.690  0.1491 -0.0908 -0.0141
25053W        W41237  18.662  15.173  14.565 -0.1695 -0.0013 -0.0183
25054W        W41238   3.074  14.433  12.550  0.0487  0.1158 -0.2988
25055W        W41239  10.712   9.544  12.455  0.0826 -0.1821  0.2472
25056W        W41240  10.692   8.178  13.018 -0.3297  0.0770  0.2548
25057W        W41241   5.594   6.194   2.782  0.1683 -0.2079  0.0671
25058W        W41242   0.055   7.926   4.572  0.2423 -0.1155 -0.2147
25059W        W41243  11.734   9.404  14.549 -0.3683 -0.0615 -0.1830
25060W        W41244   4.734   3.596  10.259  0.1691  0.1737 -0.1971
25061W        W41245   4.659   3.004   4.127 -0.0206  0.1135  0.3060
25062W        W41246   3.942   8.045  11.197  0.1785 -0.1272 -0.1972
25063W        W41247   1.371  15.511   2.056 -0.0907  0.2538 -0.1523
25064W        W41248   7.464   0.535   3.810 -0.0872 -0.1272  0.2702
25065W        W41249  10.878  10.192  11.409  0.0758 -0.1495 -0.1791
25066W        W41250  10.006   0.414   0.423  0.3315 -0.1067  0.1335
25067W        W41251  11.789   3.286   1.702 -0.1313 -0.2120 -0.0712
25068W        W41252  12.059  10.778   1.854 -0.1764  0.2868  0.0227
25069W        W41253  10.222  15.531   1.780 -0.1092 -0.0953  0.3132
25070W        W41254   7.874  16.336   1.939  0.0216  0.0807 -0.2710
25071W        W41255  16.834  11.141  13.056 -0.2125 -0.1134 -0.1800
25072W        W41256  15.206   9.565  12.148  0.0555  0.2313  0.0771
25073W        W41257  17.331   0.804  13.116  0.1642 -0.1771 -0.3732
25074W        W41258   9.831  18.565  14.521  0.1881  0.1420 -0.0976
25075W        W41259  16.390  19.228   3.434  0.0113 -0.2616 -0.1397
25076W        W41260  10.036  11.089  13.960  0.1961 -0.1611  0.0347
25077W        W41261   9.141  14.451   4.293  0.2965 -0.1409 -0.1162
25078W        W41262   0.301   5.662  10.793  0.0922 -0.0732  0.0956
25079W        W41263  17.102  16.139   3.834 -0.2560  0.2566 -0.2396
25080W        W41264  10.688  14.077   1.294  0.2970 -0.1105 -0.2407
25081W        W41265  14.943   2.252   1.449 -0.1323  0.1973  0.2437
25082W        W41266  17.098  16.953   0.601  0.2010 -0.0161 -0.1113
25083W        W41267   4.997  11.900   2.567 -0.2894  0.0650 -0.0044
25084W        W41268  12.557   3.747   1.570  0.2756 -0.4915  0.1890
25085W        W41269   6.205   0.967  10.531  0.2118  0.0713 -0.1063
25086W        W41270   7.242   1.290   4.238 -0.1398 -0.0372  0.0315
25087W        W41271  18.280   9.173   1.697  0.3091 -0.0311  0.2749
25088W        W41272  17.506  12.072   1.959 -0.1596  0.1463 -0.1117
25089W        W41273  16.453  18.597   4.058  0.0043 -0.3885  0.0595
25090W        W41274   9.573  11.175   3.801 -0.1372 -0.3232 -0.2045
25091W        W41275   5.745   9.166  14.107 -0.0284 -0.1303  0.3162
25092W        W41276   7.182  17.408   2.574 -0.1522 -0.1397  0.3054
25093W        W41277   6.134  12.304  11.346  0.0835 -0.1424 -0.1673
25094W        W41278   5.628  10.699   1.498  0.2588 -0.2813  0.0025
25095W        W41279   0.738  19.119   2.823 -0.1833 -0.0292 -0.0873
25096W        W41280  15.174   3.221   0.469  0.0867  0.1097  0.0595
25097W        W41281   3.517  15.467   3.971  0.2131  0.1141  0.2197
25098W        W41282   3.473   1.044   3.429  0.0688  0.2515  0.1940
25099W        W41283   9.772  15.277   1.957  0.1819 -0.1852 -0.0964
25100W        W41284  11.088  17.515  14.688 -0.2366  0.1996 -0.1356
25101W        W41285  17.662   7.370   4.430 -0.1097  0.1771  0.1511
25102W        W41286  17.467  14.784  14.953 -0.0606 -0.0878 -0.2859
25103W        W41287   8.593  11.248   9.830 -0.0023 -0.1448  0.1291
25104W        W41288  18.426   2.417   3.523 -0.2088  0.3118 -0.0539
25105W        W41289  13.395   2.023   5.405  0.2010  0.3069  0.0312
25106W        W41290  16.868  17.841   5.292 -0.0496  0.1398  0.3247
25107W        W41291  18.505  13.195   1.839  0.0821  0.0145  0.0846
25108W        W41292  10.804  10.591   4.662 -0.2898  0.3392  0.4662
25109W        W41293  10.606   8.358  14.523 -0.0625 -0.0466  0.1384
25110W        W41294   0.946  18.714   2.600 -0.3210  0.3108 -0.2743
25111W        W41295   3.950  15.310   3.109 -0.0903 -0.1621 -0.4993
25112W        W41296   0.291  16.716   3.649 -0.0011 -0.1227 -0.0655
25113W        W41297  12.753  10.819   4.708 -0.1263  0.0498  0.2032
25114W        W41298   7.589   2.797  10.732 -0.3305  0.1980  0.4199
25115W        W41299  10.901   8.041  12.525 -0.3680  0.2665  0.0470
25116W        W41300   1.957  17.057  13.522 -0.3311  0.0137  0.0892
25117W        W41301  13.080   6.372   9.570 -0.2240  0.1599 -0.1834
25118W        W41302   8.133   7.478  13.792  0.2085 -0.2682 -0.0791
25119W        W41303  17.351  14.829  12.792  0.1104 -0.3576  0.0720
25120W        W41304  15.140   0.057   0.659 -0.2272  0.0392  0.0490
25121W        W41305   3.978   7.580  14.198  0.2108  0.0424  0.2364
25122W        W41306  10.812  14.341  13.043 -0.0183  0.0688 -0.1152
25123W        W41307  17.032   6.925   9.649 -0.1926 -0.1300 -0.2242
25124W        W41308   7.400   0.157  10.746  0.0430  0.3852  0.1854
25125W        W41309   5.837  12.863  14.492  0.0298 -0.1687 -0.1431
25126W        W41310   4.272   9.524  11.832 -0.0125  0.0789  0.0804
25127W        W41311  13.633  14.816  12.612 -0.5322  0.0865 -0.0683
25128W        W41312   8.777   9.542   1.948  0.2931  0.1687  0.2720
25129W        W41313   9.212  15.760   1.910 -0.0431  0.2884  0.0807
25130W        W41314   5.731   7.939   9.801  0.2700  0.1446 -0.3103
25131W        W41315  16.038  18.268   1.622 -0.0804 -0.1205  0.0758
25132W        W41316  14.399   5.455   4.296  0.1153 -0.0912  0.3750
25133W        W41317  16.794  10.616   5.506  0.0203 -0.1421 -0.0132
25134W        W41318  14.368   4.162   4.319  0.0472  0.1745 -0.0731
25135W        W41319   6.705  15.927  14.569  0.1122 -0.0368 -0.2876
25136W        W41320   5.319   2.822   1.341  0.0360  0.0198  0.1337
25137W        W41321  14.280  17.550  11.812 -0.2411  0.2465  0.1471
25138W        W41322   9.889   6.700   0.194 -0.1108  0.1173  0.1347
25139W        W41323  11.884   1.574  12.882 -0.0946  0.2046  0.2484
25140W        W41324  10.869   7.500  11.778 -0.2036  0.1162 -0.1103
25141W        W41325   9.652  11.102  11.910  0.2698 -0.2440 -0.0098
25142W        W41326  17.544   4.052   0.487  0.0429 -0.1503  0.1314
25143W        W41327   9.924   7.823  13.516 -0.4209 -0.2216  0.1870
25144W        W41328   6.372  18.274   3.438 -0.0723 -0.0756 -0.1107
25145W        W41329   6.283   5.232   3.793  0.3243  0.1514 -0.2487
25146W        W41330  13.439  17.920  14.005  0.1009  0.0257 -0.1363
25147W        W41331   7.766   6.031  10.290  0.3183 -0.1516  0.2004
25148W        W41332  10.598   6.854  13.579  0.3423 -0.0183 -0.0151
25149W        W41333  15.567  12.480  14.615  0.1760 -0.1938  0.1393
25150W        W41334   8.594   9.771   5.614  0.0168 -0.0424 -0.1699
25151W        W41335  11.301   4.301   2.512 -0.0740  0.1688  0.2931
25152W        W41336   4.568  12.455   3.447 -0.0717 -0.1446  0.2460
25153W        W41337   4.019  18.096   2.353 -0.2918 -0.1644 -0.3186
25154W        W41338  18.806   7.723   0.042  0.0454 -0.1592  0.2293
25155W        W41339   9.316   4.396   1.657  0.0471 -0.0627 -0.5292
25156W        W41340  13.973   5.205  12.771  0.0228  0.0925 -0.3814
25157W        W41341   8.414  15.824   0.278 -0.3063  0.2275  0.0131
25158W        W41342   3.841  11.751   1.970  0.1464  0.0907 -0.1967
25159W        W41343  12.010   3.071   1.245 -0.2293 -0.2207 -0.1349
25160W        W41344   4.046   5.653  11.835  0.3821 -0.0494 -0.3989
25161W        W41345  12.921   1.904   0.544  0.2525  0.0465  0.1960
25162W        W41346   6.891   9.101   2.256  0.0728  0.0538 -0.1605
25163W        W41347  15.726   2.167  14.015  0.0379 -0.1623  0.0622
25164W        W41348  11.709   5.517  10.190  0.0747 -0.0949  0.1011
25165W        W41349   9.362  10.698   2.843  0.0815 -0.1166 -0.2225
25166W        W41350   7.287   3.344   2.924 -0.0691 -0.1560 -0.3231
25167W        W41351   4.561  10.223   1.846  0.0638  0.1064 -0.0717
25168W        W41352   4.306   5.827   2.822 -0.0402  0.1013  0.2643
25169W        W41353  18.189   4.860   1.311 -0.0925 -0.2822  0.1339
25170W        W41354  18.996   8.246   0.515  0.2738 -0.0671 -0.1576
25171W        W41355   2.843   2.094   4.437 -0.1956 -0.1749 -0.1532
25172W        W41356   8.887  11.505   0.646 -0.0451  0.3190  0.2408
25173W        W41357   2.001  10.366   1.397  0.0030  0.1765  0.2444
25174W        W41358  10.670  11.842   0.469  0.0181 -0.0918  0.3397
25175W        W41359  14.692  15.171   1.426  0.3644 -0.1854 -0.0194
25176W        W41360   3.207   8.587   1.053  0.4066 -0.1745  0.0509
25177W        W41361   9.744  11.821   2.954  0.1658  0.2013 -0.1505
25178W        W41362  14.780   5.733  11.947 -0.3427 -0.2409  0.0212
25179W        W41363  14.556   2.873  12.363 -0.0853 -0.2079 -0.0555
25180W        W41364  10.591  15.139  13.706 -0.4515  0.1465 -0.1474
25181W        W41365   6.104   7.771  10.972  0.1775  0.0727 -0.1704
25182W        W41366  12.920   0.510   5.299 -0.0242 -0.1089 -0.4362
25183W        W41367  15.373  19.303   2.044  0.0552  0.2007 -0.0527
25184W        W41368   4.769  18.831   5.635  0.0752  0.0670  0.2918
25185W        W41369   6.868   5.531  10.444  0.1843  0.1674  0.1290
25186W        W41370  12.929   8.027   4.073 -0.2772  0.0032 -0.1671
25187W        W41371  13.186  16.704  13.395  0.0705  0.2036  0.0177
25188W        W41372   3.064   5.137  13.705 -0.0496 -0.1788 -0.1139
25189W        W41373  18.285   0.721  13.214  0.0540  0.1660  0.1216
25190W        W41374   6.409   2.550   3.219  0.0399 -0.0550  0.2018
25191W        W41375   4.891   3.230  11.362  0.1269  0.0334 -0.0999
25192W        W41376  14.441  15.344   2.167  0.2491  0.2051 -0.0859
25193W        W41377   5.594  19.202   0.273 -0.1548 -0.0916 -0.0476
25194W        W41378  11.786  17.835   4.237 -0.2258 -0.1757 -0.0377
25195W        W41379  16.854   7.496  11.740  0.1270  0.0409 -0.1065
25196W        W41380   3.302   9.718   2.216 -0.0206 -0.4638  0.0864
25197W        W41381  16.851   5.184  13.224 -0.2552 -0.0124  0.1131
25198W        W41382   9.625  10.035   0.955  0.1860 -0.2136  0.0877
25199W        W41383  11.647   2.821  14.951  0.1829 -0.3339 -0.0007
25200W        W41384  19.371  18.922  14.100  0.0426  0.0333 -0.2947
25201W        W41385  18.172   0.366   9.469  0.0050  0.1499 -0.0460
25202W        W41386   6.953   0.259  11.930 -0.0056 -0.0546 -0.1565
25203W        W41387   2.088   7.887  14.336  0.0870  0.1637 -0.0323
25204W        W41388   2.075   4.359   0.019  0.1476 -0.1184 -0.0489
25205W        W41389   6.084   0.902   5.057 -0.0935  0.0388  0.3175
25206W        W41390   6.272   7.703   0.705  0.2485  0.1247  0.2984
25207W        W41391  10.673  16.028   5.053 -0.2927  0.2642 -0.1712
25208W        W41392  14.183  18.705  12.856  0.0088 -0.1487  0.3770
25209W        W41393  15.741  13.380   3.601 -0.0491 -0.2058  0.1572
25210W        W41394   2.089  14.037  13.157 -0.2407 -0.1298  0.0275
25211W        W41395   1.277   0.620   4.167 -0.2070  0.0045 -0.2113
25212W        W41396   4.083   1.102   4.607  0.0703 -0.3395 -0.2107
25213W        W41397   3.285  12.607   1.516 -0.0791  0.2475 -0.0210
25214W        W41398   1.551  17.629   2.824  0.0752  0.3517 -0.3057
25215W        W41399  17.438  13.648  13.554 -0.2529 -0.3171  0.1463
25216W        W41400   4.049  14.805   2.969  0.0148 -0.1566 -0.1844
25217W        W41401   3.323  14.290   3.246  0.1641 -0.1603 -0.1683
25218W        W41402  10.121   1.618   5.663 -0.1881 -0.4239 -0.0017
25219W        W41403   2.874  11.987   0.489  0.0291  0.1314 -0.2051
25220W        W41404   8.521   2.107   1.483 -0.2255  0.0728  0.2057
25221W        W41405  11.466  12.032  13.361 -0.3251 -0.1691  0.0617
25222W        W41406   0.786   1.048   0.095  0.1411  0.0074 -0.1414
25223W        W41407   6.190   7.420   2.879  0.3316 -0.0103 -0.1303
25224W        W41408  17.372  12.626   2.387 -0.1379  0.3713 -0.0432
25225W        W41409   2.899  10.406   1.505 -0.1618  0.4532  0.0974
25226W        W41410   8.161  14.265   1.964 -0.0068  0.0166  0.2688
25227W        W41411   5.376  14.079  14.069  0.1606 -0.0340 -0.3195
25228W        W41412   3.448  15.727  14.917  0.0421 -0.0433  0.0443
25229W        W41413   2.741   8.815   2.292  0.0842 -0.1152 -0.1440
25230W        W41414  12.656   6.130   5.137  0.0911 -0.1198 -0.2485
25231W        W41415  18.368   6.579  12.498  0.0192 -0.2015  0.1362
25232W        W41416   5.572   7.174  13.441 -0.0972 -0.1432 -0.0930
25233W        W41417  17.028   4.391   0.362  0.5081  0.0866  0.0641
25234W        W41418   9.982  10.074   4.203 -0.0610  0.0744  0.0582
25235W        W41419  10.147  16.409  10.924  0.0435 -0.1184 -0.2092
25236W        W41420  12.035  16.841   0.706 -0.0694 -0.1047  0.2376
25237W        W41421   0.736  15.571  11.886  0.0787 -0.0089  0.1231
25238W        W41422  10.806  16.368   1.049  0.2276 -0.0843 -0.0286
25239W        W41423   8.793   3.919  12.683 -0.0656 -0.0792  0.2815
25240W        W41424  16.406   5.918   2.188 -0.1852 -0.1101  0.1118
25241W        W41425  16.928  16.952   3.356  0.0126  0.2752  0.3012
25242W        W41426   5.214   4.758   2.005  0.0823  0.1077  0.3002
25243W        W41427  17.028  13.600  13.294 -0.1015  0.0972  0.2260
25244W        W41428  14.694   0.838   0.240 -0.0360 -0.1412 -0.0938
25245W        W41429   7.217  15.051  13.502  0.0654 -0.1034 -0.1373
25246W        W41430  11.221   9.604   2.679 -0.0296  0.1839 -0.0808
25247W        W41431   4.061   9.923  14.224  0.1173  0.1554  0.1342
25248W        W41432   2.712  12.374   3.981  0.1920  0.3336 -0.0130
25249W        W41433   7.502  11.129   5.109 -0.0767 -0.0180 -0.0429
25250W        W41434   6.285  16.174  12.475  0.1219 -0.3910  0.1554
25251W        W41435   7.331   5.408  10.739  0.0847 -0.1302 -0.0513
25252W        W41436  13.179   3.752   0.698 -0.0192  0.0866 -0.2153
25253W        W41437  11.541   1.120   2.920 -0.1897 -0.6509 -0.1162
25254W        W41438   2.220  13.632   1.859  0.1533 -0.1939  0.0635
25255W        W41439  12.506  16.849   0.040 -0.0782  0.1746  0.1448
25256W        W41440  15.629   7.604  12.340  0.0915  0.1422  0.0477
25257W        W41441   9.276   1.991  12.533 -0.5133  0.1111 -0.2342
25258W        W41442   2.475   6.733  14.355  0.1142 -0.1593  0.1230
25259W        W41443  12.176  11.674  11.040  0.2969 -0.1268 -0.2454
25260W        W41444   7.074  13.956   1.090  0.0686 -0.2152 -0.1148
25261W        W41445  12.013  16.437  11.098  0.2362 -0.4178 -0.2335
25262W        W41446   4.482  16.396   0.274 -0.0016  0.0924  0.1729
25263W        W41447  15.006  16.050  12.851 -0.1107  0.3290  0.2447
25264W        W41448  16.769  12.037  14.143 -0.0994  0.1670  0.3173
25265W        W41449   7.918   8.802   4.178  0.2666 -0.2644  0.1999
25266W        W41450   8.744  19.018  11.831  0.0207 -0.1585 -0.2252
25267W        W41451  14.364  16.275   3.309  0.0929  0.1476  0.1112
25268W        W41452  18.516   4.407   4.638 -0.1289  0.1884 -0.0248
25269W        W41453  18.334   7.501  10.585 -0.0551  0.4762 -0.1329
25270W        W41454   4.392   4.085   1.972  0.3701  0.1553  0.1623
25271W        W41455   8.075   1.862  11.031  0.3481  0.1486  0.0526
25272W        W41456   6.085   8.249  12.316  0.0991  0.0307 -0.0204
25273W        W41457  14.954  12.466   0.473  0.2610 -0.0298 -0.1204
25274W        W41458  15.328  13.610  12.584 -0.2135 -0.0373 -0.2724
25275W        W41459  15.684   7.538   0.046 -0.2113  0.4422 -0.1217
25276W        W41460  12.005  17.912  12.134  0.1870  0.0653 -0.1233
25277W        W41461  17.303   0.250   0.258 -0.1743  0.2189  0.0628
25278W        W41462  18.843   4.347   1.980 -0.0003  0.1709  0.0904
25279W        W41463   8.254  12.115   5.060  0.2213  0.0719  0.3442
25280W        W41464  16.975  13.064  11.749 -0.2993  0.0640 -0.1365
25281W        W41465  13.196  13.066   3.512  0.0078 -0.1083  0.2033
25282W        W41466  18.757   7.375   0.980 -0.0398 -0.2397 -0.2178
25283W        W41467   8.059   1.541   1.464  0.3761  0.1579  0.0246
25284W        W41468  18.106   6.149  10.201  0.3279 -0.1063 -0.1369
25285W        W41469   4.782   9.197  14.051  0.3183 -0.0754  0.1042
25286W        W41470  11.785  13.047   4.100 -0.0457  0.0696 -0.2120
25287W        W41471  17.965  12.853   3.589  0.2516  0.1806  0.2168
25288W        W41472   7.905  18.885  10.735 -0.2819  0.0251  0.0411
25289W        W41473  11.723  14.405   1.634 -0.0980  0.0215 -0.0868
25290W        W41474  11.674   4.004   5.296  0.1243  0.0400 -0.1150
25291W        W41475   3.676  16.852  11.046  0.0194  0.2450  0.0670
25292W        W41476   9.711   5.547   3.374 -0.0225 -0.0558 -0.1782
25293W        W41477  16.053   9.308   3.609 -0.1032 -0.1612  0.0933
25294W        W41478  15.237   5.839   3.973  0.1696  0.0505  0.0171
25295W        W41479   7.393   4.268  12.330 -0.0814  0.1863  0.1969
25296W        W41480  12.331   9.903   2.703 -0.0674 -0.1047  0.1080
25297W        W41481   1.026  18.071  12.910  0.0461  0.0348 -0.1744
25298W        W41482   1.946  10.991   0.119 -0.0199 -0.0502 -0.0570
25299W        W41483   5.135  18.960   0.142 -0.2301  0.0799 -0.1906
25300W        W41484   9.208  17.582   0.826 -0.0900  0.0668  0.3831
25301W        W41485  10.398  11.694   1.131  0.0178 -0.0927  0.0439
25302W        W41486   3.439   3.399   3.392  0.4386 -0.2834  0.2081
25303W        W41487  14.534   9.155   1.368 -0.3861  0.3991  0.0980
25304W        W41488   5.583  19.084  10.743 -0.0531 -0.0809 -0.3396
25305W        W41489  14.575   4.213  11.901 -0.0740  0.0803  0.0308
25306W        W41490  11.126  17.096   2.536  0.0827  0.4059 -0.2003
25307W        W41491  14.949  15.090  13.810 -0.1322 -0.3014 -0.0022
25308W        W41492   6.949  12.667   4.853  0.2100 -0.0628  0.2418
25309W        W41493   8.034   0.892   3.907  0.0346 -0.0743 -0.2679
25310W        W41494  16.064   0.538  13.395  0.2895  0.1404 -0.2096
25311W        W41495  18.341  11.891   0.045  0.3914 -0.2702 -0.1471
25312W        W41496  17.698  10.892   5.661 -0.1391 -0.2123  0.0357
25313W        W41497  13.564  11.415   3.977  0.0207  0.2283 -0.0606
25314W        W41498   6.470  13.946  11.635 -0.0442  0.0579 -0.0239
25315W        W41499  12.026  18.734   0.920 -0.3561 -0.1597  0.2105
25316W        W41500   5.198  19.019  11.424 -0.0712 -0.0079 -0.0774
25317W        W41501   8.671   6.306   1.043 -0.4442 -0.0984  0.1754
25318W        W41502   8.770   1.343  12.057  0.0180 -0.0378 -0.0105
25319W        W41503   7.785   2.640  11.709 -0.1137  0.1009 -0.2037
25320W        W41504  18.860  16.637   3.566 -0.1987 -0.2072  0.4748
25321W        W41505  14.754  10.630   3.550  0.0632  0.1574 -0.0777
25322W        W41506   1.903  16.122  13.873 -0.1117 -0.2942  0.0849
25323W        W41507  11.962   3.236  12.186 -0.3827  0.0974  0.1634
25324W        W41508   9.113  11.221  13.476  0.0974  0.1533  0.0043
25325W        W41509   1.303   4.142   1.613  0.1078  0.1399  0.2923
25326W        W41510  16.327  16.503   3.964  0.0799 -0.1923 -0.3311
25327W        W41511   1.603  17.733  11.837 -0.3392 -0.1362  0.1246
25328W        W41512   2.141  14.102   5.411  0.4964 -0.0812 -0.0621
25329W        W41513   0.313   5.601  13.392  0.2844 -0.2181  0.3666
25330W        W41514  10.669   8.523  10.004 -0.0293  0.1014 -0.3073
25331W        W41515  11.683   9.772   3.765 -0.0981 -0.1805  0.1652
25332W        W41516  16.002  10.950  14.457 -0.0896 -0.1855  0.2878
25333W        W41517   9.499  17.197  11.055 -0.2487 -0.0102 -0.1811
25334W        W41518   0.681   7.937  14.304 -0.2847  0.5445  0.1374
25335W        W41519   1.940  18.358  11.214  0.4214 -0.1031 -0.1245
25336W        W41520  14.742   1.434  10.645  0.1924  0.2566 -0.2954
25337W        W41521   5.339   6.680  11.340  0.2376  0.1982  0.0891
25338W        W41522  13.480   5.179  13.443  0.1336  0.3478  0.0276
25339W        W41523   3.835   3.947   2.492 -0.7338 -0.2256 -0.0036
25340W        W41524  17.366   5.598   0.848 -0.0389  0.0247 -0.0309
25341W        W41525   4.137  17.467  13.048  0.0260  0.0277 -0.2673
25342W        W41526   4.800   3.414  13.796 -0.1333  0.1365 -0.2087
25343W        W41527  18.474   5.865   3.629  0.3632 -0.0723  0.0275
25344W        W41528  18.711  16.901   3.174 -0.2898  0.1534  0.1105
25345W        W41529   2.651  18.093   5.190  0.1859 -0.1033  0.2478
25346W        W41530   2.349   7.013   3.918  0.0977  0.0010  0.0728
25347W        W41531   3.401   1.910   4.791 -0.1531 -0.2064 -0.1999
25348W        W41532   8.256   6.346   3.518 -0.0401  0.0954  0.2552
25349W        W41533   3.850   1.346  13.284  0.0905  0.1606 -0.3113
25350W        W41534  13.271  14.947  10.989  0.1819  0.1778 -0.0338
25351W        W41535  11.670  10.510   1.638  0.1976  0.1282 -0.2781
25352W        W41536   2.775   6.831  14.909 -0.2423 -0.4905 -0.0753
25353W        W41537   2.487   4.275  13.304  0.1868  0.0340  0.2738
25354W        W41538  11.856  15.743   4.762 -0.1570 -0.1260 -0.1181
25355W        W41539  14.239  11.024   2.330  0.1228  0.1029  0.1866
25356W        W41540   5.408   2.942  11.285 -0.1716  0.3920  0.0909
25357W        W41541   6.479  14.742   9.227 -0.1675  0.0739  0.0862
25358W        W41542  15.190   2.337  13.842  0.0637 -0.0005  0.0833
25359W        W41543   5.552   3.273  12.716 -0.0807 -0.2894 -0.0757
25360W        W41544  13.662  10.002  13.810 -0.0774  0.0437 -0.0930
25361W        W41545   8.132  15.241  12.178 -0.2424  0.2967  0.2281
25362W        W41546  18.280   8.330  11.153  0.1425 -0.1971 -0.0919
25363W        W41547  16.603   1.234  12.121 -0.1450 -0.0532 -0.1729
25364W        W41548   5.645  15.476  13.395 -0.3647  0.3194 -0.6726
25365W        W41549  14.994   2.348  13.012 -0.0857 -0.1549  0.1014
25366W        W41550   1.874  15.595  11.284  0.2043  0.2644  0.2019
25367W        W41551  11.343   4.069  14.321 -0.0715  0.3037 -0.3272
25368W        W41552  14.262   3.175   0.144  0.1793 -0.1322 -0.1143
25369W        W41553   0.111  10.772   4.118 -0.1546 -0.1316  0.0318
25370W        W41554   4.646   2.199   3.062 -0.0036  0.0052  0.2513
25371W        W41555   1.118  13.918   1.510 -0.0600  0.2499 -0.0524
25372W        W41556  11.672  16.531   0.548  0.0254  0.0555  0.1881
25373W        W41557  14.615  11.077  10.589 -0.1698  0.2300  0.1873
25374W        W41558  15.718   7.633   1.637  0.2416  0.2274 -0.1044
25375W        W41559  15.825   3.777  13.568 -0.0372 -0.3187 -0.1826
25376W        W41560  15.993   8.243  10.115  0.0665  0.0298  0.0042
25377W        W41561   2.128   0.860   0.761  0.1368 -0.1008  0.3132
25378W        W41562   2.400   4.580  11.904 -0.1206  0.2454  0.2999
25379W        W41563  15.640  16.156   4.817 -0.1422  0.1808 -0.0888
25380W        W41564   6.979  18.266  12.026 -0.1660  0.1527 -0.1599
25381W        W41565   7.938   7.040   4.479 -0.4217  0.1858  0.4019
25382W        W41566   9.882   2.357  13.864  0.0342  0.0150  0.0908
25383W        W41567   0.344   7.687  12.802  0.0104 -0.0315 -0.0081
25384W        W41568  14.978  10.118  12.211  0.0765  0.1048 -0.0981
25385W        W41569   0.370   1.022   5.902 -0.0865  0.2930  0.2093
25386W        W41570   5.943   7.727   4.431 -0.1806  0.0242 -0.2726
25387W        W41571  12.079   8.775  11.424 -0.0698 -0.2349  0.1134
25388W        W41572   3.527   6.679  14.127 -0.1255 -0.0912 -0.2378
25389W        W41573  18.277   9.744  14.104  0.6012 -0.1882 -0.3397
25390W        W41574   9.867  16.826  14.853 -0.0222 -0.0342 -0.1177
25391W        W41575  16.056   0.950   4.762 -0.0865  0.0073 -0.1151
25392W        W41576  12.999   9.659   3.695 -0.2096 -0.1941  0.1351
25393W        W41577   4.963   5.453   3.072  0.2255 -0.0193  0.0375
25394W        W41578  10.071   0.172   4.534  0.2253 -0.2649 -0.2385
25395W        W41579  14.729  16.965  10.633  0.1222 -0.1863  0.0055
25396W        W41580  13.081  13.514  14.580 -0.1920  0.3281  0.2435
25397W        W41581   6.921   9.813  12.258 -0.2056  0.0967  0.0777
25398W        W41582   3.783  18.761  12.212  0.2438  0.1009 -0.0329
25399W        W41583  12.842   8.728  12.528 -0.1185 -0.1064 -0.1395
25400W        W41584  13.236   9.690  13.549 -0.0181  0.0240 -0.0161
25401W        W41585  17.659   6.261   1.355 -0.1026  0.1663 -0.0624
25402W        W41586   1.897  13.764   2.289 -0.0801 -0.0898  0.0817
25403W        W41587  11.069   1.099  12.328 -0.0020 -0.1403  0.1183
25404W        W41588   5.507   5.506  10.623  0.0929 -0.0098 -0.0143
25405W        W41589   2.230  11.166   4.288 -0.0778 -0.2249 -0.1989
25406W        W41590  15.473   2.885  12.189  0.3096 -0.0181 -0.2085
25407W        W41591  13.431  13.448  13.174 -0.2727 -0.1005  0.1401
25408W        W41592  17.300   6.519   0.768 -0.1316 -0.1303  0.3895
25409W        W41593  13.538   7.980   1.224 -0.0278 -0.2549  0.1552
25410W        W41594   1.095  10.149  11.617 -0.0330 -0.0877 -0.0047
25411W        W41595  16.622   4.285   3.750 -0.2051  0.2827  0.5369
25412W        W41596  17.804  18.915   3.180  0.0950 -0.2302 -0.3193
25413W        W41597   7.775  18.218   4.462 -0.0366 -0.0466  0.2665
25414W        W41598   1.371   7.249  14.125 -0.0987  0.0615  0.0876
25415W        W41599   7.355   5.316   0.318  0.3265  0.0452 -0.2796
25416W        W41600  15.849   6.331   4.320  0.1207  0.1326 -0.0557
25417W        W41601   1.645  14.623  10.535  0.1213 -0.0465 -0.0711
25418W        W41602   0.750   0.673   5.953  0.0581 -0.2807  0.3696
25419W        W41603   5.534   1.293   0.377  0.3458 -0.1375 -0.0123
25420W        W41604  14.101  14.582  13.589  0.1979  0.6092  0.0190
25421W        W41605  16.842   4.085   1.518  0.1468  0.1873  0.1451
25422W        W41606   9.664  17.513  11.452 -0.0664 -0.1651  0.1137
25423W        W41607   2.373  15.279  14.274 -0.2557  0.1201  0.0567
25424W        W41608  10.746   0.865  14.504 -0.0969 -0.5352 -0.1903
25425W        W41609  10.684   2.252   5.276 -0.2120 -0.0340  0.2906
25426W        W41610   5.111   6.208   4.353  0.0687  0.1211  0.2286
25427W        W41611   9.949  15.088  10.730  0.1231 -0.1204 -0.0838
25428W        W41612   4.406  13.489  13.449 -0.1734 -0.1394 -0.1351
25429W        W41613  12.822   0.566   1.890 -0.2332 -0.3309  0.0418
25430W        W41614   8.588   0.507  14.016 -0.1102 -0.0440  0.1624
25431W        W41615   8.130  15.614   2.427 -0.5473 -0.0877 -0.2025
25432W        W41616   9.006  16.773  12.544 -0.3279 -0.2541  0.1667
25433W        W41617   6.941  17.435  12.036 -0.1093 -0.1663 -0.3463
25434W        W41618  17.341  15.257  14.884 -0.0816 -0.0879  0.2804
25435W        W41619  11.049  10.898  12.016 -0.3688 -0.0146 -0.2056
25436W        W41620   9.097  18.421  14.486 -0.0704 -0.0001  0.0600
25437W        W41621  12.125  16.341  12.450  0.1849 -0.3640 -0.1606
25438W        W41622  10.458  15.043   0.535 -0.0476 -0.2303  0.3197
25439W        W41623  11.173   6.498   4.210  0.0512 -0.2424  0.3230
25440W        W41624  15.377  13.278   0.101 -0.2415  0.0640  0.0347
25441W        W41625  13.026  12.062   1.161 -0.0263 -0.1381 -0.0128
25442W        W41626   6.377  13.312  10.450  0.0348  0.1448  0.1312
25443W        W41627   2.366   8.448   4.944 -0.0710  0.1055 -0.2212
25444W        W41628   2.964   8.266   0.537 -0.1808  0.0013  0.2520
25445W        W41629   6.319   5.854   3.366 -0.0851  0.1829  0.1901
25446W        W41630  17.075   4.133   3.977 -0.4096 -0.0823  0.0488
25447W        W41631  11.682   8.111  13.858 -0.1090 -0.1704  0.0275
25448W        W41632   2.520   3.371   2.977 -0.0605 -0.4514  0.0039
25449W        W41633   0.024  15.493  12.174  0.0497 -0.0631  0.3348
25450W        W41634  13.953  12.834  11.590  0.2309  0.3140  0.2718
25451W        W41635  16.412  10.233   3.682 -0.0266  0.0360 -0.1610
25452W        W41636   2.817   8.782   5.658  0.0478  0.0097  0.1157
25453W        W41637   6.606  10.615  11.266  0.0414  0.1033  0.2613
25454W        W41638  16.162  11.432   1.416 -0.2801 -0.2097 -0.1397
25455W        W41639   7.585   3.502   1.633  0.0846 -0.0637 -0.0143
25456W        W41640   1.631  16.784  12.144  0.0467 -0.0082  0.0782
25457W        W41641   9.251   1.255  13.197  0.2165  0.0071 -0.0665
25458W        W41642   9.974   3.119   5.011  0.0895  0.0268  0.1727
25459W        W41643  16.719   7.084  13.906 -0.0643 -0.1218  0.1927
25460W        W41644   0.323   2.253   4.623  0.1603  0.1134 -0.0665
25461W        W41645  16.409  18.460  14.824  0.0384  0.3026  0.0434
25462W        W41646   1.447  10.379   1.494  0.0400 -0.2777 -0.0765
25463W        W41647   2.709  13.814   0.765  0.1433  0.1679  0.0775
25464W        W41648   9.752   7.703   4.196  0.0198  0.0735  0.0337
25465W        W41649  17.103   7.937   3.767  0.2868 -0.3931 -0.1290
25466W        W41650   5.189  15.176  13.437  0.0732 -0.0944 -0.2272
25467W        W41651   9.004   6.544   1.923 -0.0135 -0.3249 -0.0809
25468W        W41652   2.160   6.348  14.419 -0.2126  0.1040 -0.0265
25469W        W41653   0.585  16.912  14.615  0.2580  0.1871 -0.0761
25470W        W41654   0.418  18.040   6.027 -0.1243 -0.2232  0.4004
25471W        W41655   7.262   0.821  10.458  0.2021  0.5878 -0.0348
25472W        W41656  12.945  10.611  10.575 -0.3650 -0.1174 -0.1505
25473W        W41657   9.929  11.583  11.122 -0.0215 -0.0892  0.0728
25474W        W41658   3.642  16.446  13.609  0.0672 -0.0106 -0.2025
25475W        W41659  10.453   9.529   4.689 -0.0255 -0.1181  0.1789
25476W        W41660   8.845   4.519  11.486 -0.1100  0.2755 -0.0237
25477W        W41661   2.725   0.305  10.638 -0.0602  0.1557  0.0365
25478W        W41662   1.729   7.512   2.807 -0.1717  0.0635  0.2471
25479W        W41663  13.691  13.880   1.468  0.1330  0.1099  0.2766
25480W        W41664   0.809   5.072  11.724 -0.1758  0.4290 -0.1235
25481W        W41665  19.086   5.490  14.364  0.4570  0.0472  0.2277
25482W        W41666  14.549   8.517   3.352  0.0797 -0.0972  0.2071
25483W        W41667  12.637   8.505   0.885 -0.2095  0.1800 -0.2951
25484W        W41668  10.409   0.295  13.477 -0.1595  0.5351  0.2427
25485W        W41669  10.623  16.431   0.460  0.1550  0.1995 -0.2580
25486W        W41670   5.178  17.116   0.184  0.3612 -0.0146 -0.2081
25487W        W41671   6.937   7.870   5.217  0.0442  0.3037 -0.1291
25488W        W41672  11.171   3.373  11.495  0.1880 -0.1270  0.3086
25489W        W41673   5.485   3.596  11.871 -0.0398  0.1147 -0.2090
25490W        W41674   5.710  15.575   3.749 -0.2495 -0.1497  0.2914
25491W        W41675  12.407   0.803   5.992  0.0211 -0.0713  0.1339
25492W        W41676   6.072   8.322   0.048  0.0851 -0.0344  0.5084
25493W        W41677  10.559  12.663  12.609  0.0115  0.1480 -0.1481
25494W        W41678  16.943   3.082   0.911 -0.0273  0.1424 -0.1164
25495W        W41679   5.202  13.951   1.060 -0.0848 -0.1186 -0.0738
25496W        W41680  16.506   2.806   3.475  0.0518 -0.1618  0.1561
25497W        W41681   3.469   9.766   4.812  0.2179  0.1381  0.1129
25498W        W41682   6.596   8.885   3.085  0.1353 -0.3139  0.0746
25499W        W41683  16.915  13.126  14.803 -0.2645  0.0926  0.0178
25500W        W41684  15.465   3.351  12.420 -0.1236 -0.1387  0.0848
25501W        W41685  17.116   4.214   4.440 -0.0714  0.2615  0.3806
25502W        W41686   3.781  11.811   1.205  0.0871 -0.2301 -0.1667
25503W        W41687  17.967   9.194   2.241  0.0964 -0.1452 -0.0366
25504W        W41688  14.223   9.061  11.220  0.4248 -0.1622 -0.2385
25505W        W41689   4.143  10.057  12.777  0.1420  0.1225  0.1789
25506W        W41690  11.051  17.838   0.699 -0.2593  0.0846 -0.0820
25507W        W41691  15.236   6.774   5.725  0.2055  0.0208  0.0653
25508W        W41692   4.110  14.710  13.749 -0.3263 -0.4504 -0.1287
25509W        W41693   1.378   2.964   4.964 -0.0233  0.0946 -0.2929
25510W        W41694   5.226   9.219  11.429 -0.0211 -0.0738 -0.2383
25511W        W41695   6.066   1.762  12.684  0.3627  0.0491  0.0265
25512W        W41696   4.779  15.334   2.959 -0.3674 -0.0783  0.1252
25513W        W41697  11.185  13.648  13.413 -0.0075  0.1282  0.1905
25514W        W41698   3.827  10.239  13.799  0.3414 -0.0226  0.3169
25515W        W41699   0.431   4.766   9.584  0.2461 -0.0401  0.8027
25516W        W41700  11.786  16.343  10.622 -0.1835 -0.0595 -0.2478
25517W        W41701  16.316   0.257   0.222 -0.0293  0.0234 -0.4034
25518W        W41702   3.769   0.949   2.537  0.1588  0.1774  0.0790
25519W        W41703  13.754  14.483  14.220 -0.1639 -0.0189  0.0302
25520W        W41704  11.770  17.126   1.048 -0.1889 -0.1596 -0.1301
25521W        W41705   8.700   5.617   5.169 -0.3198 -0.2993 -0.2325
25522W        W41706   2.620   2.571  14.778  0.0156  0.0141 -0.2877
25523W        W41707   1.947  17.938   3.843 -0.5175 -0.0890  0.1137
25524W        W41708   3.982   2.573  12.530  0.0095  0.3767  0.1010
25525W        W41709   4.790  14.525  12.199 -0.3306  0.0893 -0.3714
25526W        W41710  12.528   2.455  11.162  0.2499  0.0447 -0.1782
25527W        W41711  14.456  10.107  12.100  0.1297  0.1516  0.1756
25528W        W41712   6.494  13.899   1.498 -0.0260  0.1754  0.0683
25529W        W41713   1.849   2.734  11.740 -0.2424 -0.1221 -0.1298
25530W        W41714   0.163  18.333   9.771 -0.2424 -0.1785  0.1544
25531W        W41715  18.793  14.658   0.284 -0.2299  0.0415 -0.3259
25532W        W41716  18.940   0.140   4.564  0.0124 -0.0506 -0.0495
25533W        W41717   6.948  11.442   3.907  0.1443 -0.1622  0.0800
25534W        W41718   2.486  15.369  11.679  0.0668 -0.1150 -0.0120
25535W        W41719   4.361   1.335  14.946 -0.2078  0.2065 -0.1905
25536W        W41720   2.392   6.166  11.984 -0.0077  0.0516  0.0928
25537W        W41721   2.953  13.412   3.376  0.3330  0.0990  0.4446
25538W        W41722  11.693   0.613  10.018 -0.0644 -0.1079 -0.4381
25539W        W41723   9.970   8.071  12.011 -0.3257 -0.0278  0.4238
25540W        W41724   2.487  16.361  10.094 -0.3614  0.1230 -0.0473
25541W        W41725   4.585   0.106   2.010  0.3880 -0.0780 -0.0402
25542W        W41726   6.276  15.836   3.576 -0.5053  0.0359  0.0312
25543W        W41727   0.036   4.978  14.421  0.1938  0.1386  0.1279
25544W        W41728  18.463  12.218  11.835  0.1031  0.2171  0.1900
25545W        W41729   9.916   4.403   2.341 -0.1492  0.0615 -0.1607
25546W        W41730  16.114  16.705  12.685 -0.2433  0.2429  0.0494
25547W        W41731  16.635   5.958   1.172 -0.6320 -0.0245  0.1837
25548W        W41732  16.994   4.753   0.001  0.0051 -0.1618 -0.1232
25549W        W41733   5.580  14.277   5.840  0.3895  0.1151  0.2341
25550W        W41734   5.742   6.770  12.723 -0.0016 -0.2136  0.0614
25551W        W41735   3.241  11.311   3.187  0.0574  0.2349 -0.0518
25552W        W41736   9.419  12.019  14.451 -0.0339 -0.2391  0.1552
25553W        W41737   4.246  15.075  13.334 -0.1136 -0.0734  0.1771
25554W        W41738  15.059  16.054   1.178 -0.0888 -0.2192 -0.1320
25555W        W41739  11.689   6.926   1.287  0.1424 -0.1142  0.0978
25556W        W41740   2.116  11.002   2.560  0.0530 -0.2426 -0.2813
25557W        W41741   0.406  18.508   4.048 -0.0648 -0.0191 -0.0387
25558W        W41742  10.761   1.417   2.300 -0.2820 -0.1669 -0.3517
25559W        W41743   2.954   2.141  11.209  0.1415 -0.0903 -0.1962
25560W        W41744   6.515   0.201   2.407  0.1760  0.1809  0.2885
25561W        W41745  11.252   7.037   3.150  0.0359  0.1306  0.1177
25562W        W41746  10.666  14.473   0.602 -0.4712 -0.0514 -0.0108
25563W        W41747   2.475  16.048   5.985  0.2563 -0.0105 -0.0847
25564W        W41748  12.720   8.893  12.039  0.0430 -0.0355 -0.0532
25565W        W41749  10.442  19.172   4.655  0.1053 -0.0580  0.1255
25566W        W41750  16.152  13.211  12.071  0.2731  0.3555 -0.0798
25567W        W41751  16.589   5.945  12.799 -0.0831 -0.0222  0.0343
25568W        W41752   5.992  14.589  12.898 -0.1904  0.2702 -0.1299
25569W        W41753  18.418  13.710   2.701  0.1317 -0.0009  0.0578
25570W        W41754  17.114  12.632  14.834  0.0203  0.0390  0.0110
25571W        W41755   8.520  16.696  12.598 -0.2087 -0.2786 -0.1790
25572W        W41756   0.823  10.564  12.496  0.0749 -0.0852  0.2503
25573W        W41757   8.475  18.172  14.485 -0.1425  0.0250  0.1651
25574W        W41758   5.695   6.441   4.586  0.1950 -0.0076 -0.1245
25575W        W41759   7.951   7.614   1.750  0.0795  0.1130  0.4527
25576W        W41760  12.298  11.439   3.499  0.1104 -0.0093  0.0389
25577W        W41761  10.770  16.120  12.228  0.1657 -0.1385 -0.0259
25578W        W41762   8.766  10.923  13.006 -0.6128 -0.1908  0.0962
25579W        W41763  15.222  11.862   1.586  0.2338  0.2890  0.3074
25580W        W41764   2.939  13.814   0.235 -0.0983  0.1674  0.0590
25581W        W41765  17.868  17.154  14.025  0.0597  0.3618 -0.1111
25582W        W41766   2.513   6.877   1.477 -0.0341 -0.0368  0.1366
25583W        W41767  10.383  10.891  14.879 -0.2139  0.3205  0.1602
25584W        W41768   1.449  14.704  10.939 -0.0558 -0.2313 -0.0122
25585W        W41769  15.020  16.140  14.515 -0.1792  0.0217 -0.0495
25586W        W41770  17.213  14.843  10.598 -0.0328 -0.1272  0.2626
25587W        W41771   9.211   5.840  11.703 -0.1763 -0.1770 -0.0053
25588W        W41772  15.576   1.274  13.474 -0.1637 -0.1412  0.2870
25589W        W41773   2.550  18.880  11.398 -0.0258  0.0539 -0.0545
25590W        W41774  10.403   3.980  12.792  0.3729 -0.1265 -0.0207
25591W        W41775  14.513   3.199  11.336 -0.0246  0.1741  0.0554
25592W        W41776  10.128  14.471  14.601  0.3441  0.0081 -0.0073
25593W        W41777   4.596  15.331   1.425 -0.3407 -0.0797  0.4236
25594W        W41778   1.988  11.858   3.530 -0.1829  0.1789 -0.3276
25595W        W41779   9.525  15.102   0.052  0.0275  0.1812  0.1248
25596W        W41780  18.336  11.698  12.413  0.2654  0.1505  0.0757
25597W        W41781  15.469  12.464   0.510 -0.1976  0.0100 -0.2387
25598W        W41782  13.437   7.797  13.166 -0.0458 -0.1366 -0.1935
25599W        W41783   1.023   1.340  14.000  0.0132 -0.0514  0.3002
25600W        W41784  14.601  14.269   3.145  0.2524 -0.1992  0.1980
25601W        W41785   1.046   8.099   0.068  0.0277 -0.0370  0.0963
25602W        W41786   8.579   5.462   1.909  0.1698  0.1231 -0.2088
25603W        W41787   2.355   0.530  11.433  0.0462  0.1974 -0.1771
25604W        W41788  10.671  18.272   3.386  0.1904  0.0531  0.2852
25605W        W41789  14.620   6.303  12.246  0.1077 -0.0150 -0.1841
25606W        W41790  18.724   9.974   9.976 -0.0028  0.0193  0.1941
25607W        W41791  16.832   0.838   2.873  0.0394  0.0626 -0.1219
25608W        W41792   4.581  14.962  11.895  0.2864  0.0860  0.1089
25609W        W41793  12.594   0.627   4.514 -0.1429 -0.0498  0.1117
25610W        W41794   6.777  16.730  10.255 -0.2781 -0.1358 -0.1221
25611W        W41795   6.690  15.883   4.516  0.0392  0.2998  0.1097
25612W        W41796   1.490   2.037  11.781 -0.0536  0.0534 -0.0068
25613W        W41797   6.280  11.834  13.639 -0.1936 -0.0537 -0.1361
25614W        W41798   3.928   4.408   2.079  0.0207 -0.0696 -0.0863
25615W        W41799  16.290  18.952  12.163  0.3397 -0.1188  0.0375
25616W        W41800   0.033   0.039   1.748 -0.0596  0.0253  0.0181
25617W        W41801   6.430   3.479   3.299  0.0734 -0.0437  0.1406
25618W        W41802   0.128   3.738  13.457  0.1969 -0.2652 -0.0195
25619W        W41803   3.435   2.281  11.518  0.1392  0.3164 -0.1307
25620W        W41804  10.115  12.576  12.913 -0.1696 -0.1840  0.1037
25621W        W41805  11.498  13.497   0.119 -0.0978 -0.0794 -0.0851
25622W        W41806   4.318  19.191  11.737  0.0718 -0.0214  0.2086
25623W        W41807   3.367   8.966   2.515 -0.0052  0.0928  0.0747
25624W        W41808  12.559  14.848   3.849  0.2562 -0.0892  0.0093
25625W        W41809   9.572  13.827   3.505 -0.0579 -0.0225 -0.4248
25626W        W41810  13.540  12.460  13.693 -0.3570  0.3865 -0.1498
25627W        W41811   5.574   5.385  11.169  0.2969  0.0654  0.2651
25628W        W41812  14.276  12.511   1.998 -0.0994  0.0983  0.1417
25629W        W41813  13.467   5.397  11.792 -0.4220 -0.0645 -0.2080
25630W        W41814  18.475   9.581  11.691  0.0183 -0.2808 -0.1088
25631W        W41815   7.663   5.446  14.871  0.2448 -0.1157  0.1735
25632W        W41816  18.655   8.735  12.192 -0.1411 -0.0808 -0.0107
25633W        W41817   3.623  18.423   2.415 -0.3604 -0.0624  0.0877
25634W        W41818  17.405   0.733   4.167  0.0086 -0.1343 -0.0270
25635W        W41819   7.530   1.215   0.464  0.2267 -0.0437  0.0392
25636W        W41820  10.053  15.960  11.132 -0.0080 -0.0100 -0.0250
25637W        W41821   8.693   6.690  12.048  0.1616 -0.2505  0.0836
25638W        W41822   7.220  13.864  13.570 -0.1118 -0.0998 -0.1128
25639W        W41823  18.773  10.247   3.512  0.0177  0.1660  0.1646
25640W        W41824  13.823  10.217   2.443  0.0395 -0.0655 -0.2207
25641W        W41825   4.486  14.034   4.855  0.1909 -0.0580  0.0617
25642W        W41826  15.215  11.628   0.615 -0.0511  0.0537  0.1100
25643W        W41827  15.951  18.459   2.990  0.0023  0.1999  0.2409
25644W        W41828   8.840   1.847  12.278  0.1618  0.1133  0.0929
25645W        W41829   7.095   0.259   9.491  0.1009  0.4867  0.4952
25646W        W41830   9.929  13.824   3.849 -0.0535 -0.0210 -0.4726
25647W        W41831   6.762   4.528   9.290 -0.1352  0.2087 -0.2634
25648W        W41832  15.778  13.472  11.562  0.0956 -0.1639 -0.1992
25649W        W41833  10.539  13.700   3.669 -0.0705  0.2806  0.0858
25650W        W41834  15.664  17.556   1.395  0.1928  0.0358 -0.1818
25651W        W41835   8.740   9.173   0.781  0.0140 -0.0474 -0.1247
25652W        W41836   9.187  17.467  11.763 -0.1003 -0.1341  0.1313
25653W        W41837  12.471   5.222   1.385  0.1580  0.0598  0.0526
25654W        W41838  14.253  11.783   0.260 -0.2156 -0.1604  0.0674
25655W        W41839  14.852  13.408   4.728 -0.1245  0.0371  0.1026
25656W        W41840  14.948   1.469   0.952  0.2602  0.2077  0.2459
25657W        W41841   3.826  14.949  14.121 -0.1048  0.0041 -0.0281
25658W        W41842  15.173  14.408  11.643 -0.2139 -0.0223  0.0268
25659W        W41843   5.520   1.351   2.819 -0.0406 -0.0012 -0.4393
25660W        W41844   0.697  16.892   1.401  0.3289 -0.0102 -0.4329
25661W        W41845  19.176   7.052   2.929  0.4095 -0.1468  0.1386
25662W        W41846  16.462  14.441   4.118  0.1364  0.1377  0.0040
25663W        W41847   1.009   7.328   1.177  0.2153 -0.1444  0.0655
25664W        W41848   1.962  13.664   3.915  0.4870  0.0540 -0.2725
25665W        W41849  16.883  15.658  10.875  0.1661 -0.2980 -0.2102
25666W        W41850   3.204   3.207   4.166 -0.1551  0.0185 -0.2832
25667W        W41851  14.655  14.276  11.664 -0.0255  0.0449  0.2982
25668W        W41852   5.713  10.248   3.927 -0.2116 -0.0547 -0.0346
25669W        W41853   4.671  17.760   4.918  0.0882 -0.0295  0.0219
25670W        W41854  14.642   5.303   3.369  0.0126 -0.0849 -0.2237
25671W        W41855  11.544   4.439  10.795 -0.3346  0.1587  0.1754
25672W        W41856  11.000   2.158  10.726  0.0406  0.0027 -0.1460
25673W        W41857  13.639   1.119  12.527 -0.3080  0.0833 -0.0399
25674W        W41858   5.141  15.669  13.245 -0.2886  0.1332  0.0300
25675W        W41859   6.864  17.573   4.324 -0.0323  0.3688 -0.0478
25676W        W41860   8.791  16.472   2.680 -0.1211  0.0311  0.0169
25677W        W41861  14.228  14.379   4.066  0.2349  0.0091  0.1959
25678W        W41862  11.830  13.108   1.381  0.1774  0.2860 -0.2434
25679W        W41863  11.428   1.018   1.577  0.1441  0.0984 -0.0027
25680W        W41864   2.008  14.800  12.089  0.1388  0.0956  0.3249
25681W        W41865   0.534   7.624   2.259  0.0039  0.0580  0.0401
25682W        W41866   5.872  13.883   1.924 -0.2064  0.1823 -0.4477
25683W        W41867   4.936   0.942  10.904 -0.0602  0.2668  0.0475
25684W        W41868  12.629   5.754   3.545 -0.2403 -0.0555 -0.0998
25685W        W41869   8.577  18.566  13.600 -0.0823  0.0187  0.0225
25686W        W41870   3.706   0.027   3.496 -0.0443 -0.0491 -0.2881
25687W        W41871   4.315   3.879   4.105 -0.1034  0.2669 -0.0810
25688W        W41872   3.646   2.342   1.801 -0.0285 -0.1897 -0.1724
25689W        W41873   7.231  11.689   4.428 -0.0395  0.0603 -0.0110
25690W        W41874  18.825   5.708   5.062  0.1956 -0.0666 -0.0953
25691W        W41875   2.942   1.609  14.405 -0.0880  0.0413 -0.0297
25692W        W41876  10.116  11.256  11.998  0.1318 -0.0959  0.1587
25693W        W41877   9.431   6.568   2.818 -0.0412 -0.1492  0.1547
25694W        W41878   8.112  16.117  12.573 -0.0497 -0.2260 -0.1434
25695W        W41879  14.432   1.243  13.197 -0.0790 -0.2171  0.0924
25696W        W41880   5.908   9.091   2.442  0.0901 -0.0175  0.1708
25697W        W41881  18.131   6.939  14.761 -0.1330  0.0924  0.0660
25698W        W41882   7.860  19.221   0.676  0.2253  0.3358 -0.0689
25699W        W41883   5.856  19.132  14.011  0.0680 -0.1337 -0.2699
25700W        W41884  11.475   0.593   1.699 -0.2056  0.1213 -0.2377
25701W        W41885   7.443   2.437  13.158 -0.4233 -0.0201  0.2457
25702W        W41886   5.078  14.499   1.639  0.1269 -0.0303 -0.2439
25703W        W41887   7.100  15.596  14.625  0.0498 -0.1359  0.3667
25704W        W41888   9.755  17.937  10.439  0.1834  0.0352  0.1422
25705W        W41889   5.238  13.893   3.751  0.1456 -0.1251 -0.0781
25706W        W41890  15.649   1.113  12.540  0.1057  0.3674 -0.0846
25707W        W41891   9.448  10.365   1.943 -0.1984 -0.3224 -0.2811
25708W        W41892  14.388   7.441   2.773 -0.0768  0.3344  0.0907
25709W        W41893   2.723  10.129  13.578  0.3821  0.3041 -0.1508
25710W        W41894  12.343   2.352   1.126 -0.0081 -0.3458 -0.2026
25711W        W41895   6.915  17.014   1.224 -0.3912  0.0051 -0.0833
25712W        W41896   9.603  13.116   2.870  0.5987 -0.0805 -0.0316
25713W        W41897  18.866   7.485  12.271 -0.1264 -0.1481  0.0703
25714W        W41898   1.109  18.570  12.725  0.1554  0.0329  0.0839
25715W        W41899   3.643   9.393   0.829 -0.0839  0.1169  0.2301
25716W        W41900   3.268   5.556   3.449 -0.0380  0.0807  0.1827
25717W        W41901   1.777   5.112   2.337  0.0719  0.1652 -0.0412
25718W        W41902   5.158  11.003  14.722  0.1031  0.1784 -0.2459
25719W        W41903  16.946  14.907  14.781  0.1303  0.0550  0.0983
25720W        W41904   1.702  17.923   1.458 -0.0938 -0.0188 -0.1538
25721W        W41905   8.492   8.223   3.774 -0.2998 -0.0878 -0.2514
25722W        W41906  14.141  17.537  13.522 -0.3507 -0.1071  0.0475
25723W        W41907  13.114   8.096   1.533  0.2852  0.1350 -0.0117
25724W        W41908  15.957  15.742  11.133 -0.2875 -0.3239 -0.1403
25725W        W41909  14.507  10.602  10.669  0.2544  0.1325  0.1454
25726W        W41910   4.049   2.568  10.952 -0.1630 -0.1770  0.1231
25727W        W41911   8.107   8.993  12.555  0.1185  0.0654 -0.1675
25728W        W41912  14.607  16.279   2.400 -0.2041  0.2635  0.0261
25729W        W41913  13.587  10.612   2.676  0.0305  0.2835 -0.0136
25730W        W41914   7.021   9.218  14.789  0.0862  0.2986 -0.0868
25731W        W41915  11.086  11.854  12.876 -0.0184  0.0534  0.0302
25732W        W41916   1.624   6.420  14.431  0.3143 -0.0772  0.0926
25733W        W41917  10.087   8.657   5.592  0.0179 -0.1129  0.1028
25734W        W41918  17.191   0.585  11.084 -0.1394  0.1229  0.0277
25735W        W41919  19.139   6.214  11.598  0.3511 -0.0084 -0.2977
25736W        W41920   0.155  12.653   0.849  0.1403  0.2196  0.1605
25737W        W41921  18.671   5.757  14.177 -0.1128 -0.2701 -0.0566
25738W        W41922  11.206  12.361   4.631  0.2152 -0.1702 -0.1176
25739W        W41923  15.449   9.692   3.076 -0.0880  0.0085  0.0585
25740W        W41924   7.867   0.413   9.880 -0.2203  0.1103  0.0582
25741W        W41925  16.772   7.104  11.420  0.3015 -0.0753 -0.2067
25742W        W41926   7.493  18.280   1.371 -0.3030 -0.2201  0.0158
25743W        W41927   8.833  17.686   0.155 -0.0232 -0.1955 -0.1980
25744W        W41928   0.734   4.167   1.384 -0.0053 -0.4835 -0.1279
25745W        W41929   9.922   3.703   0.610 -0.2859  0.0632  0.0316
25746W        W41930  11.009   8.845   3.303  0.0282  0.2248  0.0165
25747W        W41931   4.100   9.562  13.192  0.1499  0.2281  0.3078
25748W        W41932  12.095   9.888  13.428 -0.1015  0.1651 -0.2269
25749W        W41933   7.441  10.111  13.709  0.1251 -0.1817 -0.1992
25750W        W41934   0.062   9.627  13.473 -0.1804 -0.3030  0.3460
25751W        W41935   7.148  12.431  13.838  0.2039  0.2099  0.0203
25752W        W41936   0.833  16.549  14.966  0.2512  0.0523 -0.0452
25753W        W41937   4.543  17.125   4.123  0.0441  0.3657  0.0761
25754W        W41938  11.802  10.699  10.691  0.2648 -0.0014  0.4758
25755W        W41939   3.080  15.182   4.613  0.1382 -0.0439  0.2826
25756W        W41940   4.456   5.893  14.509 -0.1640  0.0769  0.1629
25757W        W41941  16.903  13.104   0.609  0.3548  0.2412  0.1910
25758W        W41942   9.424  14.878   1.806  0.3227 -0.2439 -0.5369
25759W        W41943  18.605   1.889   3.860 -0.0728  0.0472  0.1908
25760W        W41944   7.856  15.348   1.766 -0.2070  0.1179 -0.0768
25761W        W41945  18.706   2.802   5.687 -0.4203  0.4076 -0.0727
25762W        W41946  15.548  14.604   2.117  0.2089 -0.1959  0.0090
25763W        W41947   5.703  12.807  12.587 -0.0267 -0.1013 -0.0335
25764W        W41948  15.779   6.823   0.129  0.4300 -0.0781  0.2604
25765W        W41949  17.471   8.332   3.360 -0.1661 -0.1826  0.1761
25766W        W41950  10.866   7.869  14.452  0.0700  0.1378  0.0418
25767W        W41951   5.401  15.971   1.388 -0.0711 -0.0596  0.1817
25768W        W41952  17.902   0.994   2.047 -0.0508 -0.1339 -0.2252
25769W        W41953  15.999   1.430  11.003 -0.0013  0.2965  0.2985
25770W        W41954   4.920  10.641   0.050 -0.1311 -0.1333  0.2000
25771W        W41955   3.704  13.274  12.393  0.0890  0.1442  0.2849
25772W        W41956   0.662  12.160   4.289 -0.1355  0.0430  0.0877
25773W        W41957  10.188  14.256  11.952 -0.1606  0.0647 -0.0140
25774W        W41958  15.880   1.559  10.506  0.0089  0.1069  0.1168
25775W        W41959  13.172  11.139   3.932 -0.3256  0.0194 -0.0060
25776W        W41960  10.130  17.018   0.868 -0.2283 -0.1175  0.1704
25777W        W41961   4.297  11.981   5.285 -0.1588  0.1081  0.0705
25778W        W41962   6.896   0.077  13.742 -0.2455 -0.3315  0.0267
25779W        W41963  16.262   1.890  10.907 -0.0763  0.4982 -0.0800
25780W        W41964   9.295   0.001   3.981 -0.3062  0.1091 -0.0100
25781W        W41965   9.243  13.928  13.815 -0.1922 -0.0759  0.1254
25782W        W41966   6.725   6.353   3.323  0.1786 -0.0377  0.0728
25783W        W41967  18.386  10.599   0.998 -0.1709  0.4946  0.2287
25784W        W41968  17.620   6.332  13.093 -0.1432  0.0814  0.4277
25785W        W41969   8.371   0.338  10.376 -0.1874  0.2265  0.1751
25786W        W41970  11.221   5.193  13.129 -0.2612 -0.1839  0.3754
25787W        W41971  17.032  10.209   4.418  0.0387 -0.2781  0.0378
25788W        W41972   1.228   3.581  14.145  0.0779 -0.1180  0.1716
25789W        W41973   8.522  10.468   1.468  0.3387  0.1609  0.2319
25790W        W41974   9.025   3.656   0.073  0.2577  0.0455 -0.3486
25791W        W41975   1.259   8.952   2.611  0.5279  0.4842 -0.2696
25792W        W41976   3.982  11.179   1.190 -0.1922  0.1174 -0.2522
25793W        W41977  12.155   1.679  14.181 -0.3699  0.0165 -0.2260
25794W        W41978   3.234  16.952   1.560  0.0233 -0.1236 -0.1467
25795W        W41979   3.684   5.656   3.107 -0.0936 -0.2891  0.0625
25796W        W41980   9.657  12.683   3.574 -0.4733  0.1885 -0.4310
25797W        W41981   7.993  12.140   3.442 -0.3585 -0.1587  0.0612
25798W        W41982  19.029   7.956   3.040 -0.1062  0.2435  0.2336
25799W        W41983   8.472   0.442   1.085 -0.0807  0.0797 -0.0156
25800W        W41984   3.810   2.823   2.106  0.0240 -0.3910  0.1500
25801W        W41985   8.961  16.681  11.217  0.0741  0.0225  0.2071
25802W        W41986  15.349  19.136  12.693 -0.1678  0.1344  0.2095
25803W        W41987   3.292   0.185   0.834  0.0659  0.1789  0.1092
25804W        W41988  10.183  15.602  10.695 -0.0629  0.2263  0.1635
25805W        W41989   3.549   3.879  13.745 -0.1108 -0.1560 -0.1197
25806W        W41990  16.235   8.824  13.023 -0.0984 -0.0630 -0.1074
25807W        W41991   5.611  17.876   3.684  0.1373  0.1893 -0.2892
25808W        W41992   8.688  13.657  13.707 -0.3356 -0.0803  0.0078
25809W        W41993  13.277   2.479  11.381  0.2905 -0.0389 -0.2947
25810W        W41994  10.823  15.960  10.728  0.0707  0.2198  0.0087
25811W        W41995   7.578   7.743   1.491  0.1142 -0.0413  0.0131
25812W        W41996  15.483   8.578   3.626 -0.0235  0.0451  0.0636
25813W        W41997  12.649   3.825   3.407 -0.1683 -0.3960  0.2155
25814W        W41998  13.763   2.239  11.606 -0.0295 -0.0798 -0.0828
25815W        W41999  17.190   6.900   0.351 -0.2952 -0.1628 -0.0829
25816W        W42000  19.272  13.343   1.355  0.2352  0.2187  0.3390
25817W        W42001   4.444  11.744   3.792  0.3392 -0.2977  0.1193
25818W        W42002   7.583   2.496   2.350 -0.2009  0.4343  0.2515
25819W        W42003   7.669  12.271   0.029  0.0771 -0.3210  0.0425
25820W        W42004  18.366   9.832   4.348  0.5033 -0.0730  0.0196
25821W        W42005  12.691   1.795   3.221 -0.1027 -0.0829 -0.1158
25822W        W42006  12.285  18.690  12.505  0.0443  0.1159 -0.2931
25823W        W42007   0.610   0.940   0.646  0.1816  0.2671 -0.1040
25824W        W42008  16.998   9.265   4.190  0.0993 -0.1418 -0.1483
25825W        W42009   1.554   4.897   1.933 -0.3644 -0.0848  0.1821
25826W        W42010  18.751   7.163   3.657 -0.0644  0.2342  0.1161
25827W        W42011  13.138  11.634   3.777  0.1689 -0.0682  0.1432
25828W        W42012   7.274  19.199  13.967 -0.1123 -0.1125 -0.0336
25829W        W42013   4.173  11.680  11.972  0.1222  0.0875  0.0015
25830W        W42014   7.793   8.879   1.903 -0.0104  0.4958 -0.0762
25831W        W42015   4.179  11.126  11.626  0.2670 -0.0540 -0.3334
25832W        W42016   5.279  11.231   3.130  0.4394  0.0182  0.1382
25833W        W42017   8.692  11.986   2.357  0.0810  0.2938  0.0385
25834W        W42018  14.769   0.900  10.551 -0.5063 -0.0798  0.0907
25835W        W42019   9.612   5.007   3.741  0.2999  0.4015 -0.2205
25836W        W42020   7.718  13.772  12.792 -0.0101  0.4572 -0.0464
25837W        W42021  15.217  17.189  10.145 -0.2813  0.1783 -0.0125
25838W        W42022  16.236   1.471   2.458  0.1704 -0.1986 -0.0306
25839W        W42023  14.378  11.552   3.621  0.2818  0.2352  0.0631
25840W        W42024   2.988  14.119  11.512 -0.1661  0.3139 -0.1468
25841W        W42025   2.419   7.164   4.343 -0.1431  0.2925  0.0672
25842W        W42026  16.000   2.900   1.645 -0.0897  0.1808  0.1390
25843W        W42027  15.612  12.733   0.946  0.1572 -0.3702  0.1260
25844W        W42028   4.859   7.271  11.633  0.1274  0.5135  0.2253
25845W        W42029   4.221  11.794   0.482  0.0657  0.1408 -0.0176
25846W        W42030  15.617  11.599   1.489  0.0984 -0.0096  0.0486
25847W        W42031   0.187   5.787  14.379  0.1483  0.0063 -0.1607
25848W        W42032  14.369  12.960  12.540  0.1263 -0.1339  0.0231
25849W        W42033  14.722   2.867  13.728 -0.1248  0.0871 -0.1220
25850W        W42034  11.067   4.571  10.364  0.0609  0.1195 -0.0298
25851W        W42035  13.394   5.909  13.226 -0.3237  0.0892 -0.1660
25852W        W42036   0.802   1.833  13.921  0.0043 -0.0025  0.1460
25853W        W42037  10.770  13.944   2.237  0.1387 -0.4135  0.1285
25854W        W42038  18.290   4.692  11.792  0.1876  0.3206  0.1199
25855W        W42039   4.219   2.825   4.995 -0.3033 -0.1603  0.1862
25856W        W42040   0.220   8.274  14.858 -0.0365 -0.3227  0.0854
25857W        W42041   0.672  10.542   5.300  0.1860 -0.0978  0.3039
25858W        W42042   7.735   8.162   2.846 -0.0748  0.1759  0.0487
25859W        W42043  13.662   9.883   0.678 -0.1215  0.1802 -0.4136
25860W        W42044   1.839   5.780   1.079  0.0212 -0.1945  0.0997
25861W        W42045  12.733  18.889  12.668  0.0080 -0.3951  0.0223
25862W        W42046  16.504   2.929   2.114  0.1057 -0.0341 -0.2371
25863W        W42047  11.543   5.147   0.280  0.3084 -0.0013 -0.0244
25864W        W42048  11.124   5.468  14.611 -0.5672 -0.0415 -0.0285
25865W        W42049   7.955   8.002  12.748  0.0641 -0.0919  0.1294
25866W        W42050   9.926  13.901   2.767  0.0170  0.1549  0.0809
25867W        W42051   9.420   2.161  10.772  0.3296 -0.0041 -0.0252
25868W        W42052   3.629  14.550   3.539 -0.0565  0.2013  0.0603
25869W        W42053   6.745   1.049  13.667  0.1089 -0.2323 -0.0822
25870W        W42054   6.262  18.483  11.471 -0.0642 -0.2871 -0.0041
25871W        W42055   2.519  14.844   0.698  0.1933 -0.0524 -0.3110
25872W        W42056  14.338   0.098  13.323  0.0384  0.1094 -0.0723
25873W        W42057  14.482   1.582  12.824  0.0856 -0.3935  0.0629
25874W        W42058   2.383  10.256   0.223  0.5018  0.2765 -0.5064
25875W        W42059  13.310  14.917   2.385 -0.2664  0.1397 -0.3394
25876W        W42060   4.734   0.385  11.919  0.5206  0.2361  0.1551
25877W        W42061   1.037   3.286   3.162 -0.3074  0.3573 -0.2047
25878W        W42062   4.540  18.141  14.641  0.1405  0.0851 -0.2167
25879W        W42063   0.456  10.842  11.424  0.1284 -0.0349 -0.1274
25880W        W42064   0.677  18.538  13.238 -0.1471  0.2585 -0.2196
25881W        W42065   9.515   1.595  14.080  0.2071 -0.0005 -0.0567
25882W        W42066  13.691   7.772   0.305  0.1748  0.2902  0.1240
25883W        W42067  15.334  10.432   4.268  0.1759  0.2756  0.0184
25884W        W42068   3.408   8.047   3.366 -0.1256 -0.4320 -0.0670
25885W        W42069   7.619  12.843   5.198  0.1479 -0.3205 -0.3037
25886W        W42070  12.536   9.173  13.284 -0.2669  0.1833  0.1006
25887W        W42071   2.423  11.968   9.611  0.1912  0.0900 -0.0146
25888W        W42072   7.370   2.650   4.329 -0.2717 -0.1156 -0.4043
25889W        W42073  16.322  17.102  10.068 -0.0032 -0.0930  0.4656
25890W        W42074  11.724   8.134   2.578  0.0119  0.0178 -0.1096
25891W        W42075  15.425   8.454   2.094  0.1217 -0.3042  0.2263
25892W        W42076  16.159   1.022  12.414  0.0564 -0.3229 -0.0956
25893W        W42077  12.983   1.731   1.094 -0.0011  0.0458 -0.0053
25894W        W42078  14.196  11.377  11.340  0.5342 -0.1052  0.1026
25895W        W42079   8.840   7.703   0.796 -0.1340 -0.0329  0.1937
25896W        W42080  18.834  12.727   4.311 -0.3411  0.0316 -0.0445
25897W        W42081   8.844  16.013   5.360 -0.1111 -0.0078  0.2858
25898W        W42082   0.515   9.324   3.703  0.0100  0.0582 -0.2433
25899W        W42083  13.460   2.091   4.939  0.5105  0.2948 -0.1122
25900W        W42084   4.860   9.782   0.343  0.1912 -0.1827  0.3380
25901W        W42085   9.748   2.535  10.919  0.0518  0.1484 -0.0485
25902W        W42086   4.736   6.773  10.048  0.1805 -0.0656  0.0252
25903W        W42087  13.967   4.398   1.919 -0.2659 -0.0579 -0.1422
25904W        W42088   2.890  11.741  12.597 -0.0550  0.0857  0.1493
25905W        W42089   3.072   6.928  14.125  0.1720  0.1133 -0.3940
25906W        W42090   1.118   5.588   2.676 -0.2374 -0.0644  0.0143
25907W        W42091   7.427  13.580  14.783 -0.4381 -0.1007 -0.2585
25908W        W42092   5.650   5.002  10.504 -0.1578  0.2844  0.4685
25909W        W42093  17.994   9.169   3.609  0.0308  0.0248 -0.0355
25910W        W42094   5.226   9.063   3.106 -0.1000  0.1788 -0.0086
25911W        W42095  10.295  19.298  11.782 -0.2603  0.3345 -0.0568
25912W        W42096   5.160  13.964   3.214  0.2349 -0.2538 -0.0084
25913W        W42097   2.271  17.609   3.516 -0.0827  0.2043  0.0166
25914W        W42098   6.512  11.447   0.765 -0.1310 -0.1016  0.0604
25915W        W42099  11.186   7.967   4.543 -0.3880 -0.0753 -0.2362
25916W        W42100   9.011  16.670   0.529 -0.1137  0.0642 -0.2069
25917W        W42101  10.365  14.664  13.694 -0.1303 -0.0230  0.1654
25918W        W42102  13.611   0.014   0.450 -0.0078  0.0536 -0.0456
25919W        W42103   2.581   1.757  11.068 -0.0865 -0.0164 -0.1514
25920W        W42104   7.946  18.385  10.932  0.0250  0.3440  0.2063
25921W        W42105  15.251   8.698  11.600  0.1737 -0.3504 -0.3099
25922W        W42106  13.516   1.519  14.189  0.1763  0.1062 -0.0377
25923W        W42107   3.882  11.700   3.711  0.0849  0.3000 -0.1071
25924W        W42108   5.336   7.657   3.085 -0.0336  0.0318 -0.1109
25925W        W42109  12.954  10.238   0.812  0.1526  0.0339  0.1927
25926W        W42110   0.707  12.238  12.574  0.0974 -0.1102 -0.2439
25927W        W42111  11.047   5.849   2.468 -0.0815 -0.0105  0.0959
25928W        W42112  12.860   7.955  11.876 -0.1276 -0.1454 -0.2291
25929W        W42113   9.999   8.572  12.327  0.1178  0.2529  0.1188
25930W        W42114   4.044  13.751  13.921  0.0556 -0.2304 -0.0694
25931W        W42115   5.528  11.420   1.646  0.1194  0.1941 -0.0139
25932W        W42116   2.379  10.869  12.859  0.0146  0.2264 -0.0789
25933W        W42117   5.846   4.934   2.238  0.1840  0.0500 -0.1107
25934W        W42118   4.486  14.434   0.837 -0.1594  0.0807 -0.1230
25935W        W42119  10.238   5.627  13.715 -0.0439 -0.0514  0.0702
25936W        W42120  12.870   1.327   2.815  0.0123 -0.0349 -0.0314
25937W        W42121   2.238  13.248   3.884 -0.1261 -0.0880 -0.0243
25938W        W42122  14.592   3.718  12.610 -0.4800 -0.4262 -0.0952
25939W        W42123   1.401   0.056   2.716  0.1784  0.2250 -0.0566
25940W        W42124  15.622   6.791   2.802  0.0932 -0.5107 -0.1590
25941W        W42125  13.097   4.399   4.419  0.2484 -0.1744  0.0531
25942W        W42126  18.064   0.107   3.918  0.0197  0.0520  0.1701
25943W        W42127   9.238  12.737   3.342  0.3739  0.0857 -0.0423
25944W        W42128   5.146   6.139   2.488 -0.0882 -0.1492  0.1202
25945W        W42129  15.294   6.285  11.608 -0.0625  0.2892 -0.1460
25946W        W42130   4.025  16.222   1.235 -0.2642 -0.1669 -0.0534
25947W        W42131  15.409   2.189  13.252  0.1462 -0.3593  0.4646
25948W        W42132   0.236  18.224   0.899  0.2579 -0.1148  0.2350
25949W        W42133   3.965   6.626  14.406  0.0250  0.5094 -0.1473
25950W        W42134  16.941  16.232  12.426  0.4169  0.1233  0.0890
25951W        W42135  15.470  13.464  14.513 -0.3157  0.1232  0.0207
25952W        W42136   6.171   2.332  10.874 -0.0740  0.1375  0.2019
25953W        W42137  16.395  15.761   3.595  0.0062  0.2552 -0.1606
25954W        W42138   5.083  17.834   0.466 -0.0959 -0.4153  0.3440
25955W        W42139  19.288  12.386  13.931 -0.0025  0.1440 -0.2060
25956W        W42140   6.329   8.689   0.235  0.0958 -0.0074 -0.0591
25957W        W42141  13.098  12.387  10.453 -0.3062 -0.0973 -0.1281
25958W        W42142   7.774  17.341   4.742  0.2204 -0.0308  0.1645
25959W        W42143  14.306   4.122   5.336  0.2897 -0.3702  0.2222
25960W        W42144   8.388   6.488   0.161  0.0819  0.2880 -0.1130
25961W        W42145   6.454  15.845   0.088  0.0506 -0.1025 -0.2110
25962W        W42146  15.868   3.022  14.382  0.2920 -0.0880  0.0606
25963W        W42147   4.849   0.487   4.840  0.4775 -0.0966 -0.0065
25964W        W42148   4.442  15.768   4.434  0.0279 -0.5473  0.1291
25965W        W42149  13.007  11.923   4.510  0.0941  0.2760 -0.0023
25966W        W42150  12.224   6.485   3.734 -0.0290  0.0236  0.0842
25967W        W42151  15.182  16.866  12.852  0.3231 -0.3508 -0.0632
25968W        W42152   5.515  10.086  13.012  0.3776 -0.0896 -0.2370
25969W        W42153   1.123  14.586   4.650 -0.1289  0.0716  0.0539
25970W        W42154   0.188  13.031   1.664  0.0472 -0.0556 -0.1470
25971W        W42155   3.019  18.341  12.660  0.1724 -0.0581  0.2447
25972W        W42156   5.318  16.506  12.668 -0.1966 -0.4380  0.1891
25973W        W42157   5.188   8.529   1.279 -0.2897  0.2744 -0.3608
25974W        W42158  12.716   6.148   0.969  0.1628 -0.2223  0.2831
25975W        W42159  16.052   3.755   0.255 -0.2406 -0.0088  0.1411
25976W        W42160   6.081  11.201   1.416  0.0129 -0.1611 -0.1891
25977W        W42161  18.858  17.739   3.719 -0.0930  0.4672 -0.1758
25978W        W42162  18.434  10.795  13.030 -0.4041  0.2294  0.1689
25979W        W42163  10.964  11.508   2.604 -0.2300 -0.0881 -0.0062
25980W        W42164  10.895   2.626   4.188 -0.0003 -0.0306  0.0532
25981W        W42165   6.503   7.190  13.234  0.4113  0.0797 -0.0936
25982W        W42166   9.809   1.945  14.234  0.1357 -0.1065  0.0145
25983W        W42167  16.087  12.060   3.018  0.2062  0.2853 -0.2332
25984W        W42168  10.370   6.097  13.562 -0.3664  0.1249  0.0870
25985W        W42169   6.305  13.017  14.166 -0.1823 -0.1415  0.2044
25986W        W42170  17.810  15.982  10.445  0.0731 -0.1560  0.2743
25987W        W42171  16.819   2.864   0.385  0.1354 -0.3892  0.0216
25988W        W42172  16.722  18.639  12.035  0.1959 -0.2501  0.0169
25989W        W42173   0.269  17.997   3.151 -0.2524 -0.0551  0.0147
25990W        W42174  16.556   3.300  11.950 -0.1823 -0.3661 -0.2963
25991W        W42175  13.129  14.154   1.808 -0.3066 -0.2131 -0.0929
25992W        W42176   2.496   5.807  11.594 -0.1239  0.1406 -0.1434
25993W        W42177   9.450  18.236  11.732  0.1202 -0.0665 -0.0688
25994W        W42178  12.327   5.137  12.478 -0.1667  0.5994  0.0573
25995W        W42179  10.375   9.333   1.850  0.0209 -0.1965 -0.0924
25996W        W42180  18.194  13.119  13.125 -0.1849 -0.0935  0.2141
25997W        W42181   4.136   9.040  12.307 -0.3608 -0.0920  0.0072
25998W        W42182  16.089  16.654   1.512  0.3019  0.1316  0.2308
25999W        W42183   4.121  14.118  11.594  0.1739 -0.0464 -0.0149
26000W        W42184   7.106   1.586   5.232  0.0353  0.0563  0.0283
26001W        W42185  17.840  14.345  11.982 -0.1650  0.0269 -0.3240
26002W        W42186  15.740  14.031   5.934 -0.1057  0.0584  0.0433
26003W        W42187  14.704  13.219   0.870  0.0428 -0.1867  0.1263
26004W        W42188   5.369   6.088  10.310  0.0308  0.1130  0.3519
26005W        W42189   0.520   4.835   1.588  0.0674 -0.3230  0.0366
26006W        W42190  11.437  10.131  13.953  0.2801  0.0166  0.1071
26007W        W42191   5.851  18.242  11.674  0.0328 -0.0698  0.0940
26008W        W42192   7.332  13.529   1.935 -0.3208  0.0075 -0.2838
26009W        W42193  19.051  17.845   1.675 -0.0403 -0.2924  0.2442
26010W        W42194  15.278  18.336  10.971  0.1695 -0.0690  0.0957
26011W        W42195   4.824   1.901   2.626 -0.1297  0.0392 -0.1774
26012W        W42196  11.689   8.642   0.390  0.2492 -0.0832  0.1216
26013W        W42197  12.173  12.472   1.094  0.1677 -0.0768  0.0145
26014W        W42198  10.084   4.944  11.632 -0.0927 -0.2986  0.3387
26015W        W42199   7.703  14.478   4.283  0.1547  0.0607  0.0642
26016W        W42200   8.701  17.202   2.499  0.0403 -0.0018 -0.0969
26017W        W42201   8.430   0.783  10.522  0.1576  0.0601  0.1919
26018W        W42202  15.365   5.146   3.566 -0.2643 -0.1326 -0.2424
26019W        W42203  15.582   6.732  14.372 -0.3834  0.1592 -0.0482
26020W        W42204  18.085   8.683  14.711 -0.1947  0.0469  0.0799
26021W        W42205  10.376   0.272   0.104 -0.0788 -0.1227  0.0565
26022W        W42206  15.111   7.211   0.744 -0.0150  0.0257 -0.0085
26023W        W42207   4.456   8.003  12.955  0.0616 -0.0783  0.0831
26024W        W42208  15.221  18.019   3.773 -0.2671 -0.1787  0.1388
26025W        W42209   5.857  15.402  12.120  0.0423  0.2169 -0.0378
26026W        W42210   1.908  10.804  14.092  0.0363  0.1785  0.1982
26027W        W42211  13.882   6.216   2.086  0.1356 -0.1665  0.1407
26028W        W42212  15.747   6.927   1.962  0.3524 -0.0363  0.1685
26029W        W42213   4.512   6.349  10.935 -0.0468  0.1590  0.0030
26030W        W42214   3.763  13.701  11.343 -0.1939  0.1565  0.2458
26031W        W42215   6.601   3.875  10.577 -0.2403  0.0881  0.0790
26032W        W42216  15.741   3.382   1.088 -0.1791 -0.0873  0.0252
26033W        W42217   4.993  12.146   1.144  0.0283  0.2416  0.0859
26034W        W42218  13.536  13.075  10.929 -0.0344 -0.1848 -0.2174
26035W        W42219   4.960   1.762  14.693  0.1577 -0.0735  0.0669
26036W        W42220  17.651  12.051   3.165  0.2216  0.4073  0.1736
26037W        W42221  14.963  10.880   1.695  0.1686  0.0829 -0.1288
26038W        W42222  10.541   0.078   1.293 -0.2042  0.1685 -0.0897
26039W        W42223   9.855   5.605  12.699  0.5689  0.1604 -0.3749
26040W        W42224  12.205   3.349   3.975  0.0525 -0.3025 -0.0140
26041W        W42225  17.854  17.575   0.109  0.1620  0.0090  0.1772
26042W        W42226  11.709  17.241  10.590 -0.1152  0.0029  0.0547
26043W        W42227   3.513  14.315   5.049  0.0798  0.0924  0.2625
26044W        W42228  13.369   0.284   4.944  0.0622  0.0001  0.1246
26045W        W42229   0.772   3.488  11.872 -0.3112  0.2891 -0.0175
26046W        W42230   4.840  10.843  10.884 -0.2977 -0.1099  0.0077
26047W        W42231   2.309   9.891   4.439 -0.2235 -0.1995  0.3583
26048W        W42232  12.038   9.803  14.124 -0.0609  0.2879  0.2910
26049W        W42233  19.060   3.332   9.635  0.0164  0.0922  0.2659
26050W        W42234  14.467   0.751   4.808 -0.3652 -0.1242 -0.0846
26051W        W42235  15.450   8.071   2.470  0.2044  0.4004  0.2274
26052W        W42236   9.752   5.030   0.657  0.3172 -0.1915 -0.0011
26053W        W42237   7.866  13.043   2.417  0.0983 -0.2338  0.0646
26054W        W42238  13.221  17.195   0.591 -0.0201 -0.0329 -0.0022
26055W        W42239   9.343   8.234  11.466  0.0174 -0.2486  0.3232
26056W        W42240   2.186  10.887   3.230  0.2526  0.0317 -0.1590
26057W        W42241   2.411  11.445   1.411 -0.1272 -0.0887 -0.1709
26058W        W42242  13.021   9.254   5.112 -0.0878  0.2078 -0.2677
26059W        W42243  18.512   1.261  14.764 -0.2475 -0.0459 -0.3474
26060W        W42244   3.691   2.221  11.038  0.3783  0.0588  0.0386
26061W        W42245   2.107   3.159  11.403 -0.3442  0.4612 -0.1800
26062W        W42246   5.777   2.185   9.410 -0.1244  0.3962 -0.0336
26063W        W42247  16.986  14.729  14.169 -0.0499  0.4227  0.0380
26064W        W42248  10.894  16.610   5.281 -0.0110  0.1034 -0.3299
26065W        W42249  10.559  10.716  14.134  0.0393  0.2595  0.1331
26066W        W42250   4.323  12.352   0.537 -0.1831  0.1741 -0.1467
26067W        W42251   6.110   4.324   2.197  0.0078  0.0234 -0.2682
26068W        W42252   8.260   4.749  10.385 -0.1482  0.0628 -0.1227
26069W        W42253   3.011   8.188   3.831 -0.2168 -0.0464  0.3183
26070W        W42254  11.182   9.412  12.650  0.0604 -0.0719  0.4646
26071W        W42255  15.847   2.475  12.748  0.2977  0.0467  0.2027
26072W        W42256   3.012   0.684  13.307  0.0574 -0.3111 -0.2376
26073W        W42257   7.074   9.579   2.049  0.2033  0.0971 -0.1914
26074W        W42258   7.998  15.606   0.542  0.2283  0.2682 -0.1176
26075W        W42259   8.411  18.674   2.483  0.1546 -0.1244  0.3501
26076W        W42260   1.010  16.269  12.645  0.0645  0.0448 -0.1252
26077W        W42261  17.775  13.360  14.438  0.1655  0.2885  0.3249
26078W        W42262  18.127  16.133  11.716  0.0940  0.6310 -0.0250
26079W        W42263   7.095   7.783   2.339  0.0858 -0.0701  0.0162
26080W        W42264   9.531  15.032  11.140  0.0231 -0.0796  0.2775
26081W        W42265   5.819   5.646   0.300  0.0397 -0.1655 -0.0140
26082W        W42266  19.330   0.019  12.367 -0.0433  0.2971 -0.2131
26083W        W42267   0.241  13.579   1.661  0.2372 -0.0360  0.2964
26084W        W42268   5.792  16.342  13.491 -0.1834 -0.0312 -0.1840
26085W        W42269  12.418   9.512   4.366  0.1207 -0.1816  0.0314
26086W        W42270  18.147  10.808  11.878  0.2803  0.1143 -0.0716
26087W        W42271  15.420  13.854  11.528 -0.0029 -0.2671  0.0161
26088W        W42272  18.855   4.559   3.979  0.2275 -0.3874 -0.0376
26089W        W42273  16.297   5.420   2.544 -0.0281  0.1800 -0.3580
26090W        W42274   8.216   2.173   1.036 -0.2709  0.0159 -0.1073
26091W        W42275   5.095  15.457  12.801  0.0627  0.2238  0.2859
26092W        W42276  13.993  16.118  11.044 -0.1134 -0.2530  0.0273
26093W        W42277  11.349  15.877   1.958  0.2988 -0.4068  0.1852
26094W        W42278  17.552   2.239   4.029  0.1447 -0.0696  0.2522
26095W        W42279  16.465  11.086   1.847 -0.4369 -0.2469 -0.1387
26096W        W42280   0.262  12.504  12.793 -0.2602 -0.0100  0.0681
26097W        W42281  18.454  10.849   0.253  0.1939 -0.2287 -0.3596
26098W        W42282  11.126  12.864   0.825 -0.1353 -0.0058  0.0483
26099W        W42283   7.415   8.079  11.292 -0.0036 -0.0075 -0.0894
26100W        W42284   9.564  16.978   1.217  0.1886 -0.1552  0.3530
26101W        W42285   2.147   4.137  11.880  0.0696 -0.1760 -0.0108
26102W        W42286   7.758   3.105   1.260 -0.3588  0.1590  0.0417
26103W        W42287   1.085  11.523  13.236 -0.1635 -0.0442 -0.2027
26104W        W42288   2.522   0.164   1.487 -0.0721  0.3967 -0.2556
26105W        W42289  10.610  16.816   1.953  0.2109  0.1273  0.2760
26106W        W42290   2.881  13.786  10.557 -0.1390 -0.0445 -0.0349
26107W        W42291   2.624  15.586   0.101  0.1354 -0.0903 -0.2981
26108W        W42292  14.949   0.650  13.915 -0.0850  0.2048  0.0896
26109W        W42293  13.279  16.234  14.325 -0.0537  0.1851 -0.4929
26110W        W42294  10.740   5.686  13.653  0.0890 -0.2064  0.0975
26111W        W42295  18.448  12.504   4.639 -0.1465  0.1747 -0.1944
26112W        W42296   6.615   1.196   3.665  0.0341  0.2433  0.2408
26113W        W42297  19.061   3.724   2.669  0.1634 -0.5253  0.0840
26114W        W42298  12.594  15.627   0.872 -0.1443  0.1257  0.3558
26115W        W42299   2.509  18.881   0.949  0.2103 -0.0219  0.0692
26116W        W42300   0.804  11.521   2.553  0.0207 -0.0836  0.2014
26117W        W42301   9.291   3.505   3.216 -0.3479  0.0465 -0.0266
26118W        W42302   2.860  10.901  12.965  0.1468  0.0114 -0.1735
26119W        W42303  16.116  12.091   3.526  0.0996  0.0914  0.2255
26120W        W42304   1.287  12.432  11.295  0.0573  0.1829 -0.0768
26121W        W42305   2.097   9.701   0.881  0.0357  0.0129  0.3374
26122W        W42306   3.571  15.487   2.326 -0.2268  0.2382  0.2864
26123W        W42307   8.267  17.830  12.277  0.0887 -0.0606 -0.0593
26124W        W42308   4.529  11.029  13.512  0.1340  0.0501 -0.2947
26125W        W42309  14.598  17.155   2.418  0.1862 -0.1815 -0.0253
26126W        W42310  19.365  17.318   1.526 -0.0673 -0.1347 -0.0210
26127W        W42311  13.573  14.657   0.416  0.0396 -0.2249  0.1173
26128W        W42312   5.821   9.676   2.163  0.2508  0.0030  0.3216
26129W        W42313   1.952   2.063   3.119 -0.0109  0.0598  0.0715
26130W        W42314   1.359   0.100  12.696  0.2276  0.0952 -0.0505
26131W        W42315  12.211   7.086   0.918 -0.1374 -0.1372 -0.3556
26132W        W42316   9.920  19.183  13.174  0.2706  0.0434  0.1052
26133W        W42317  14.603   0.071  12.130  0.0908  0.0464  0.1391
26134W        W42318  12.892  12.221   3.388 -0.0410  0.3420 -0.2794
26135W        W42319  14.961  15.927   1.747 -0.0648  0.1306 -0.2880
26136W        W42320  14.194  13.024  13.455 -0.2662 -0.4000 -0.0229
26137W        W42321   3.295   3.758  14.836  0.1449  0.0716 -0.0634
26138W        W42322   6.606  17.083   4.152  0.2081  0.1046  0.1201
26139W        W42323  11.377   5.942  12.657 -0.0008  0.2554  0.2138
26140W        W42324   3.932  14.389   9.855 -0.0536 -0.0441  0.2569
26141W        W42325   1.116   1.338   4.741 -0.2419  0.1103 -0.1995
26142W        W42326   5.944  15.065  13.238  0.2477 -0.4151 -0.2682
26143W        W42327  16.503   7.672   3.131  0.0211 -0.1551 -0.0267
26144W        W42328  15.314   3.308  14.264  0.1922 -0.1440  0.1004
26145W        W42329   1.361   8.426  13.033  0.0229 -0.0247 -0.1957
26146W        W42330  18.923   8.439   2.793 -0.0489 -0.2095 -0.0039
26147W        W42331  14.154  14.570  14.580 -0.2407  0.0797 -0.1562
26148W        W42332  10.327   8.777   5.152 -0.0041 -0.3142 -0.1159
26149W        W42333  12.121   5.261  12.062  0.2132 -0.2888  0.0401
26150W        W42334   1.175  17.988   3.164 -0.0235 -0.2642 -0.0209
26151W        W42335  16.497   8.562  10.337  0.0367  0.2650  0.3369
26152W        W42336  16.521   5.355   0.980 -0.2243  0.1075 -0.0277
26153W        W42337  12.049  10.845   2.431  0.1057 -0.1514 -0.0635
26154W        W42338   0.262  13.719   4.752 -0.2132 -0.0247 -0.1753
26155W        W42339  15.150   5.156  14.902  0.0572  0.1156 -0.0120
26156W        W42340  18.997   9.430  11.816  0.1752 -0.2553 -0.1497
26157W        W42341  11.967  19.016   2.697  0.1538  0.0077  0.0755
26158W        W42342   5.424   4.245  12.100 -0.1202 -0.2751  0.0488
26159W        W42343   7.526  13.506  11.951  0.0874 -0.0133  0.1679
26160W        W42344   1.336  18.233  11.869 -0.2590  0.3476 -0.0872
26161W        W42345  11.720   3.778   2.597 -0.3635  0.0504  0.1432
26162W        W42346   1.677  13.713  13.455  0.2055  0.1855 -0.1981
26163W        W42347   1.841  14.097   1.799  0.1157 -0.2957  0.1292
26164W        W42348   6.159   7.290   0.397  0.0736  0.0752  0.4360
26165W        W42349   4.454   6.808   1.993 -0.0808  0.3434  0.1968
26166W        W42350   6.644  10.934   4.708  0.1117  0.1934  0.0890
26167W        W42351   8.481   0.340  14.763 -0.2628 -0.2771 -0.0154
26168W        W42352  15.773   2.548  10.701  0.0982 -0.0652  0.0662
26169W        W42353   6.009   6.967  13.237  0.2169  0.3226  0.0552
26170W        W42354  16.019  19.164  13.783  0.0051  0.2361  0.1216
26171W        W42355  17.176   9.008  13.022 -0.3009  0.1217 -0.1309
26172W        W42356  10.691   8.457   1.509  0.1461  0.0477 -0.1260
26173W        W42357  10.645   5.705  10.830  0.0396  0.1279 -0.3327
26174W        W42358  17.529   3.250  14.052 -0.5653  0.2680 -0.0505
26175W        W42359  12.072  11.491   4.456  0.2757  0.0258  0.4371
26176W        W42360  15.219  10.415  11.711 -0.0582  0.0226 -0.3387
26177W        W42361   6.422  11.487   2.196 -0.0454  0.1325  0.0423
26178W        W42362  19.322   0.934   2.914 -0.0715  0.1295 -0.0698
26179W        W42363  16.395  19.244  10.817  0.1385  0.2146 -0.2616
26180W        W42364  16.427  12.828  13.038 -0.0179  0.3393  0.0766
26181W        W42365   6.980   1.714  10.658 -0.1228 -0.0483  0.0074
26182W        W42366  16.828  15.013  11.295 -0.0587  0.1441  0.2092
26183W        W42367   9.611  10.546   1.206 -0.3995  0.1757 -0.0141
26184W        W42368  11.073   8.679  10.943  0.1017 -0.0245 -0.0760
26185W        W42369  19.118   0.031  10.944 -0.0015 -0.2881  0.0355
26186W        W42370  14.504   0.003   5.339  0.0800 -0.1949 -0.2218
26187W        W42371   9.887   0.358  10.842 -0.0147 -0.0412 -0.2660
26188W        W42372  16.047   0.477  12.125 -0.3598  0.2614 -0.5574
26189W        W42373  18.684  13.565  11.332 -0.0958 -0.1029 -0.3699
26190W        W42374  12.925  15.490   2.225 -0.1600  0.2820 -0.1182
26191W        W42375   3.891  13.201   1.725  0.2194 -0.1256  0.1254
26192W        W42376  13.325   2.483   2.919  0.0897  0.0495 -0.1489
26193W        W42377   5.287   2.525  10.932  0.0783  0.1575 -0.2669
26194W        W42378  15.162  15.811   2.190  0.0047 -0.1520  0.0169
26195W        W42379   3.598  13.076  14.492 -0.0258 -0.0172  0.1095
26196W        W42380  12.877  17.360  12.179  0.2109  0.1789 -0.1264
26197W        W42381  16.099  14.358  11.222 -0.1036 -0.0357 -0.0151
26198W        W42382  11.439  13.268   1.702  0.1216  0.2247  0.1092
26199W        W42383  16.070  14.589  12.070 -0.1708  0.0915 -0.4459
26200W        W42384  15.785   8.132   2.009  0.0691 -0.2260 -0.0856
26201W        W42385   6.565   6.671  14.262 -0.4069 -0.0709 -0.2159
26202W        W42386   7.831   4.680  11.083  0.0041 -0.2293  0.0661
26203W        W42387   1.365  15.560  14.202 -0.0187 -0.0326 -0.2483
26204W        W42388  18.894   7.511   5.229  0.0514  0.0962  0.1826
26205W        W42389  16.162   1.006   4.284  0.0665 -0.0678 -0.1788
26206W        W42390   3.800   1.206   0.838  0.2664 -0.0793 -0.2515
26207W        W42391   3.008   6.863   1.794 -0.1732 -0.0327  0.1303
26208W        W42392   9.383  17.157   2.980  0.1750  0.3402  0.0872
26209W        W42393   5.891   1.372  13.345  0.1036 -0.0469 -0.3343
26210W        W42394  19.018   2.519   2.230 -0.1291 -0.1182  0.0027
26211W        W42395   0.013  13.850   3.801  0.0330  0.0497  0.0684
26212W        W42396   8.272   3.770   0.446 -0.0053  0.2206 -0.4708
26213W        W42397   8.145  18.560  14.771  0.2371  0.2241  0.0055
26214W        W42398  14.954  11.808  12.005 -0.2080  0.0464  0.1083
26215W        W42399  13.240   3.429   4.803 -0.0363  0.2084 -0.0508
26216W        W42400  11.571   7.623  13.124  0.1954  0.3047  0.1756
26217W        W42401   1.280   8.117   1.396 -0.2491  0.1318  0.2914
26218W        W42402  15.883  14.765  10.728 -0.1320 -0.1578 -0.2159
26219W        W42403  11.110  17.735  14.177  0.1512  0.3530 -0.2020
26220W        W42404   8.475  16.706  11.543 -0.1298 -0.3511  0.2112
26221W        W42405   8.283  15.456  14.964  0.3088 -0.2247  0.0836
26222W        W42406  17.674   8.806   2.346  0.0115 -0.2708 -0.3503
26223W        W42407  13.744   9.687  12.710 -0.2373  0.1428  0.3378
26224W        W42408   2.416   4.397  10.510  0.0493 -0.1053 -0.0191
26225W        W42409  16.303  10.616   2.579  0.1020 -0.4475  0.2161
26226W        W42410   9.755  15.549   3.266  0.0562  0.3141  0.1884
26227W        W42411  13.529   4.261   4.225 -0.2675 -0.0275 -0.3192
26228W        W42412  11.378  15.258   0.201  0.0084  0.0163 -0.0427
26229W        W42413  10.882   5.659   4.587 -0.0738  0.0478  0.2715
26230W        W42414  13.826   8.565  12.467  0.0908 -0.0227  0.0176
26231W        W42415  19.265  18.674   2.308 -0.0825  0.2449  0.1090
26232W        W42416   7.561   8.012   2.443  0.0134 -0.3445 -0.2778
26233W        W42417  12.704   7.808   2.600 -0.0021 -0.3892  0.3144
26234W        W42418  16.268   5.985  13.397  0.3090 -0.2771  0.2068
26235W        W42419   5.942  10.343  10.415 -0.1575  0.1710 -0.2921
26236W        W42420   6.132   6.503  11.683  0.0966 -0.2607 -0.1278
26237W        W42421  18.093   8.184   3.005  0.2352 -0.0277  0.1411
26238W        W42422  11.868   2.037   1.756  0.2203 -0.1305  0.0021
26239W        W42423   5.548   0.318   2.713  0.1417  0.2435  0.0805
26240W        W42424   8.613   9.780  14.763 -0.0837 -0.0196  0.0629
26241W        W42425  14.988   3.550   4.026 -0.0844  0.1546  0.0173
26242W        W42426   7.360   9.045   1.347 -0.2896 -0.2250 -0.4250
26243W        W42427  10.199   2.435  14.883  0.1155  0.3715  0.1721
26244W        W42428   3.342   9.478  10.706 -0.0416 -0.0442 -0.1060
26245W        W42429  11.707   6.551   4.852 -0.0241  0.1326 -0.0839
26246W        W42430  10.195   8.131  14.320  0.2622 -0.4053 -0.1566
26247W        W42431  10.678  12.986   1.732  0.0321  0.2921  0.0692
26248W        W42432  15.652   3.220   9.929 -0.3232  0.4711  0.0124
26249W        W42433   3.183  14.349   2.162  0.1304 -0.3843 -0.2388
26250W        W42434   9.313  19.254   0.059  0.0133  0.0153  0.0559
26251W        W42435  11.523  14.097   1.246  0.0952  0.1106  0.1046
26252W        W42436  13.046  14.002  14.574  0.0540  0.1288 -0.0272
26253W        W42437   5.254   0.660  13.091  0.1767 -0.3110  0.0696
26254W        W42438   2.611  11.743  14.289  0.4656  0.0301 -0.1253
26255W        W42439  15.318   0.656  12.643 -0.3399 -0.0334  0.0214
26256W        W42440  13.638   7.541   0.846  0.2975 -0.1613  0.0024
26257W        W42441   3.196   0.881   0.018  0.6138  0.2178  0.3655
26258W        W42442   1.833  10.797   1.897  0.1607 -0.3893  0.0984
26259W        W42443   7.213   5.475  11.592  0.1461 -0.1094  0.1740
26260W        W42444  10.698   0.928  13.170  0.1867  0.0954  0.0756
26261W        W42445  10.535  17.296  11.897 -0.0512 -0.3806 -0.3632
26262W        W42446  12.722  13.045   3.353  0.1675 -0.1482  0.0861
26263W        W42447  19.126  11.007  14.532 -0.0814  0.4910 -0.2858
26264W        W42448  18.062  12.533  11.141  0.1455 -0.2196  0.2250
26265W        W42449  10.384  16.094  10.095 -0.1398  0.1909 -0.2204
26266W        W42450   6.181  18.029   2.145  0.0651  0.1268  0.0983
26267W        W42451   8.706   4.318   5.345 -0.2191  0.0381  0.1184
26268W        W42452  11.599   6.115  10.464  0.1478  0.2212  0.1754
26269W        W42453  17.076   9.874   2.986 -0.1837  0.0986  0.0121
26270W        W42454   3.344  16.470   1.807  0.1646 -0.0867  0.1396
26271W        W42455  11.482  16.110   2.651 -0.3245 -0.2071 -0.2540
26272W        W42456  16.750   2.896  11.643 -0.0697 -0.2875 -0.2778
26273W        W42457  15.014   1.502   3.873 -0.0869  0.2091  0.1828
26274W        W42458  13.404  17.220  10.962  0.1486 -0.1785  0.2314
26275W        W42459  14.936   0.152  13.907  0.2234 -0.2102 -0.1825
26276W        W42460   5.663  13.450   5.076 -0.2819  0.2748 -0.1746
26277W        W42461   2.762  15.926  13.720  0.3999  0.0675 -0.1762
26278W        W42462   4.629   1.428   4.595  0.0162  0.1197 -0.2106
26279W        W42463   1.601  17.984   2.026 -0.0070  0.1161  0.1304
26280W        W42464  11.031   4.449   1.830 -0.4583  0.2246  0.0769
26281W        W42465  14.258   1.847   0.991 -0.2271  0.1372  0.4138
26282W        W42466  12.276  15.562   2.912 -0.2391  0.0598  0.0280
26283W        W42467  17.724   4.445   3.004  0.1042 -0.0027  0.0817
26284W        W42468  11.732  13.842   3.745  0.2578 -0.0031 -0.0297
26285W        W42469   2.472   1.257  11.376  0.0530  0.2921 -0.0596
26286W        W42470   3.895  15.499   0.808 -0.1319  0.2351  0.0116
26287W        W42471   0.524   0.279   3.340  0.1994 -0.0144 -0.1255
26288W        W42472  16.066   8.175  14.266 -0.0148  0.1140 -0.0101
26289W        W42473  12.607   7.514   4.505 -0.3180 -0.0960  0.1020
26290W        W42474  12.850  10.427  12.975  0.1650 -0.0657  0.2159
26291W        W42475  12.735   6.539  11.305 -0.0039 -0.0507  0.1444
26292W        W42476  12.444  17.412  11.493 -0.0914 -0.2297  0.1838
26293W        W42477   0.820   8.921  14.755 -0.0450 -0.4323  0.0507
26294W        W42478   5.089  13.793  13.722 -0.1722 -0.1476  0.1810
26295W        W42479   2.518  17.831   0.354  0.2538  0.2452 -0.0467
26296W        W42480   3.861   9.152  10.779 -0.2066 -0.2070 -0.1118
26297W        W42481   6.749  12.708   0.017  0.1961 -0.1736  0.2924
26298W        W42482   8.797   8.779  13.494  0.0960  0.0574  0.0613
26299W        W42483  18.481  18.750   3.243 -0.0716  0.1254 -0.2668
26300W        W42484  14.376   0.859  12.831  0.1307  0.0444 -0.0867
26301W        W42485  11.367  12.287  14.677 -0.2367  0.0461  0.0505
26302W        W42486  11.270  15.235  13.031  0.1882 -0.0450  0.0540
26303W        W42487   2.881   3.393  14.543  0.1274  0.3319 -0.1276
26304W        W42488  17.064  10.316   2.714  0.0985  0.2048  0.1591
26305W        W42489   9.010   1.931  11.463 -0.0766  0.1299  0.1518
26306W        W42490   2.275   1.434  12.525 -0.3721  0.0399  0.1314
26307W        W42491  10.817  11.822  13.689  0.0648  0.4598 -0.1947
26308W        W42492  14.582  11.676  12.346  0.0633 -0.1563 -0.1037
26309W        W42493   7.256  10.432   0.778 -0.2311 -0.4411 -0.2740
26310W        W42494  18.615  19.054   4.121 -0.0371  0.1423 -0.1488
26311W        W42495  12.409   9.660   2.224 -0.0616  0.1705 -0.0945
26312W        W42496  16.667  16.863   4.597  0.0530 -0.2986  0.6347
26313W        W42497  16.434   7.101   1.292  0.2955  0.1931  0.0182
26314W        W42498  13.677  12.001  11.128  0.1179 -0.1431 -0.1106
26315W        W42499  18.229  17.693   1.264 -0.0811  0.0828 -0.0376
26316W        W42500  12.603  18.352  10.485 -0.0341  0.1869  0.0260
26317W        W42501  17.603  18.584   2.271 -0.0029  0.0441  0.1622
26318W        W42502  16.334  13.455  11.120 -0.0632  0.3581 -0.1150
26319W        W42503  18.266  10.120  12.678 -0.2370  0.1717  0.1914
26320W        W42504   6.631   9.226  13.540 -0.0081  0.2748  0.1757
26321W        W42505   2.818   3.147  14.121  0.0659  0.0301  0.4707
26322W        W42506   8.388  17.351   1.805 -0.0940 -0.0467 -0.0972
26323W        W42507  15.559  15.273   4.363  0.0269 -0.1638 -0.0588
26324W        W42508   8.216   2.362  14.962 -0.1229 -0.0529  0.0000
26325W        W42509   0.715  16.315   1.196 -0.0395 -0.2396  0.3105
26326W        W42510  17.361   2.363  13.917 -0.0062  0.0981  0.3539
26327W        W42511   4.408  13.324  12.190  0.2135  0.0454 -0.0484
26328W        W42512  10.921   3.884  11.803 -0.2082 -0.0129  0.0899
26329W        W42513   8.614   8.477   1.808  0.0529 -0.0705  0.4321
26330W        W42514   5.858  13.462  13.748 -0.0923 -0.6242 -0.0861
26331W        W42515   3.200  10.059   1.835 -0.0002  0.0405 -0.1719
26332W        W42516   8.528   0.712   1.527  0.1041 -0.2042  0.2342
26333W        W42517  18.260  13.334   3.219  0.1640 -0.2306 -0.4519
26334W        W42518   1.408  10.064   4.671 -0.1560  0.1698  0.3109
26335W        W42519   9.989  18.965   0.340 -0.0726  0.5184 -0.0991
26336W        W42520  18.473  14.524  11.968  0.0334 -0.0775 -0.1412
26337W        W42521   3.148  18.150   3.368 -0.1689  0.2966 -0.2222
26338W        W42522  17.989  11.545  13.906  0.1024  0.1156  0.1113
26339W        W42523   8.484   5.311  11.279 -0.0267  0.0322 -0.1711
26340W        W42524   8.038  18.162   1.407 -0.1640 -0.0813  0.2519
26341W        W42525  18.690  14.161  11.511  0.3821  0.2763 -0.0121
26342W        W42526  16.021  12.412  14.769  0.2759 -0.0031 -0.2963
26343W        W42527  10.798   3.296   1.760 -0.1341 -0.1274  0.1398
26344W        W42528   8.945   7.148   5.350  0.1213 -0.2306 -0.0318
26345W        W42529   0.013   3.580  11.441 -0.1934 -0.2914  0.1071
26346W        W42530   6.848   4.800   2.429 -0.0024 -0.0153  0.1180
26347W        W42531  17.509  14.166  13.488 -0.2094  0.3088 -0.2430
26348W        W42532  13.465  11.790  11.674 -0.0305 -0.1337 -0.0966
26349W        W42533  17.756  13.840  14.735 -0.0574 -0.1841  0.1237
26350W        W42534   0.594  18.772   3.715 -0.2464 -0.4294 -0.2043
26351W        W42535   3.933   1.573  14.835  0.2487 -0.0125  0.1164
26352W        W42536   1.405  13.163   5.069  0.0672 -0.1759 -0.2437
26353W        W42537   4.414  12.772  14.178  0.2432 -0.3193 -0.1463
26354W        W42538  18.645   4.181   0.710  0.2320 -0.0461  0.3365
26355W        W42539  13.019   8.936  10.470  0.1311  0.2145  0.0670
26356W        W42540   0.263  15.236  13.487 -0.2175  0.0366 -0.0384
26357W        W42541   6.833  10.573  14.851 -0.0222 -0.1089 -0.1766
26358W        W42542   3.523   7.724  10.941 -0.3117 -0.0828 -0.2430
26359W        W42543  15.101   7.245   0.180 -0.0561  0.0186  0.0088
26360W        W42544  15.635  16.748   3.188 -0.0812 -0.0514 -0.0289
26361W        W42545   6.543  11.440   4.232 -0.0391 -0.0497  0.1594
26362W        W42546  14.614   8.116   4.183 -0.0510  0.4307  0.0459
26363W        W42547   8.992   1.472  13.501  0.0409 -0.2466  0.1315
26364W        W42548   5.627   9.989   0.494 -0.2270 -0.1780 -0.2826
26365W        W42549  13.779   4.970   0.087  0.0686 -0.2004  0.2839
26366W        W42550   7.218   1.362   1.501  0.1887  0.0246 -0.1231
26367W        W42551  13.615   8.103   3.318  0.1648  0.0159  0.2767
26368W        W42552   8.402  17.556   3.359  0.0034  0.1187 -0.0010
26369W        W42553   5.418   0.329   3.576  0.0240 -0.3151  0.1762
26370W        W42554  11.476  17.353  10.056  0.2146 -0.2420 -0.1821
26371W        W42555   0.408   1.770   3.386 -0.0179  0.0048  0.2250
26372W        W42556   2.981   7.518  14.252 -0.1177 -0.0137  0.1483
26373W        W42557   8.771  17.476  10.823  0.2036 -0.1386 -0.1416
26374W        W42558  16.848   5.905   1.681  0.1871 -0.2046 -0.1634
26375W        W42559  10.667   0.433   5.897 -0.1739  0.0193 -0.1081
26376W        W42560   2.756   2.705   3.349  0.1143 -0.0259 -0.1422
26377W        W42561  11.015  15.138   0.569  0.2036  0.0554  0.2114
26378W        W42562   1.696   1.330   4.069  0.0136  0.2346  0.1169
26379W        W42563   7.237  12.630   4.346 -0.1213 -0.1725 -0.1287
26380W        W42564  13.529  16.462   1.858  0.0531 -0.0747  0.0303
26381W        W42565   7.556  16.928   3.070 -0.0913  0.2455 -0.0594
26382W        W42566   3.962  17.679  10.557 -0.0729  0.2306  0.0214
26383W        W42567  15.169   8.878   4.042  0.1449  0.2905  0.0760
26384W        W42568   1.078  13.052   1.121 -0.0189 -0.0434  0.0111
26385W        W42569   4.389  14.037  14.954 -0.0277 -0.3062  0.1380
26386W        W42570   1.310  18.098  10.312  0.0841  0.2829  0.2851
26387W        W42571  14.897  16.043   3.531  0.1204  0.1368  0.1094
26388W        W42572   5.425  10.515   0.447 -0.2333  0.2211 -0.1175
26389W        W42573  10.784   1.950  13.858 -0.1035 -0.1339  0.4110
26390W        W42574  11.588   7.172   9.241  0.2207  0.0358  0.0808
26391W        W42575   6.139  11.511   4.567  0.0430 -0.0472 -0.2369
26392W        W42576  17.337   0.250   4.404  0.1730 -0.1213 -0.2229
26393W        W42577   0.111   6.347   0.968  0.1530  0.0783 -0.2922
26394W        W42578   6.938  14.665   5.049  0.1885  0.1414  0.1178
26395W        W42579   1.000   8.204   0.532  0.0972  0.0411 -0.2147
26396W        W42580   2.598   4.931  14.828 -0.0337  0.0002 -0.4870
26397W        W42581  17.839  13.852   4.662 -0.0504 -0.3045 -0.0699
26398W        W42582  15.978  15.853   1.404  0.0522 -0.1490 -0.0647
26399W        W42583  13.953   5.223  13.863 -0.2898  0.1350  0.3497
26400W        W42584   4.242   1.961  13.661  0.1291 -0.0558 -0.1184
26401W        W42585  12.486   2.747   0.202  0.1523  0.1562  0.1616
26402W        W42586   3.685  10.953   0.828 -0.1112  0.4054  0.1057
26403W        W42587   3.460   0.842   3.910 -0.1951  0.1870  0.2259
26404W        W42588  18.388  12.025   5.393 -0.2563 -0.2176  0.2309
26405W        W42589  18.508   3.485   3.451 -0.0279  0.1168  0.0451
26406W        W42590   5.666  16.877  14.431 -0.2164 -0.0202  0.2980
26407W        W42591   6.136  15.438   0.860 -0.0094  0.4696  0.1875
26408W        W42592   0.052   2.862  14.718  0.3139 -0.1766 -0.0924
26409W        W42593  19.129  15.028  12.678 -0.0999  0.1510 -0.2021
26410W        W42594   6.253  12.833   0.830 -0.4174 -0.2668  0.2907
26411W        W42595   0.033  15.535   3.696 -0.1243 -0.1089 -0.0373
26412W        W42596  12.372   8.707   3.698 -0.2143 -0.2067  0.1058
26413W        W42597   8.609   1.243   4.031  0.0569 -0.0824 -0.0578
26414W        W42598   7.266  16.968  10.180  0.2390  0.0561  0.2950
26415W        W42599   6.016   6.691  10.375 -0.0374 -0.3675  0.2554
26416W        W42600   7.037  13.587   2.435 -0.0279  0.4508  0.1892
26417W        W42601  14.360  15.934   9.701 -0.2290  0.3717 -0.0843
26418W        W42602  16.149   6.928  12.161 -0.2017 -0.1346  0.1037
26419W        W42603  16.210   3.201  12.244 -0.2527  0.1646 -0.3033
26420W        W42604   6.041   8.504   0.749  0.1991 -0.0872  0.0706
26421W        W42605  12.930  15.158  11.408 -0.0779 -0.2188  0.2416
26422W        W42606   8.312   9.432   2.795 -0.0742  0.1755 -0.1895
26423W        W42607   4.108  10.003  10.636 -0.1112  0.2436  0.4651
26424W        W42608   1.242   9.899  13.110 -0.1953  0.5853 -0.0965
26425W        W42609   6.091  18.486  10.658  0.2104  0.2497 -0.0277
26426W        W42610   6.934  10.216  13.524  0.1427 -0.1328  0.2239
26427W        W42611  12.402  15.523   3.941 -0.0326 -0.2396  0.1661
26428W        W42612   3.768  18.043  13.785 -0.2092 -0.0609 -0.4218
26429W        W42613   8.234   5.240   2.283 -0.2582 -0.2662  0.2445
26430W        W42614  18.654  16.305  11.586 -0.0738 -0.2987  0.0135
26431W        W42615  14.317  18.984   1.275 -0.0738  0.0272 -0.0819
26432W        W42616  12.894   4.966   2.204  0.0053  0.0624  0.3461
26433W        W42617   8.658  12.037   3.263  0.0612  0.1058  0.0076
26434W        W42618  13.870  11.437   9.599 -0.2635  0.2992 -0.1133
26435W        W42619  17.881   7.242   3.964 -0.0733 -0.0422 -0.2664
26436W        W42620   5.320  13.130  12.494 -0.1529 -0.1722 -0.1099
26437W        W42621  12.820   9.719  12.173  0.0251  0.1111 -0.2179
26438W        W42622  13.741  14.212   4.135  0.5395  0.3034 -0.0013
26439W        W42623  17.633  18.769   3.671 -0.0274  0.0834  0.0904
26440W        W42624   3.621   4.795  11.129 -0.2154  0.1325  0.1549
26441W        W42625   7.666  18.645   2.713  0.0540  0.3270  0.1360
26442W        W42626  15.578  13.063  11.811 -0.1864  0.1690  0.1845
26443W        W42627  17.306  10.525  12.795 -0.1679 -0.0756  0.0137
26444W        W42628   6.317   9.392  10.589  0.2126  0.3667  0.2122
26445W        W42629  12.083   2.830   1.720 -0.2074 -0.0718 -0.1100
26446W        W42630   8.358   6.168  11.257  0.2594 -0.3489  0.0926
26447W        W42631   4.824   7.279   1.852 -0.1129  0.2954  0.2614
26448W        W42632   4.282   3.473   1.741 -0.2054 -0.0172 -0.0660
26449W        W42633  15.957   6.130  14.499 -0.0238 -0.1239 -0.3163
26450W        W42634   5.495  12.146   1.291  0.2949  0.2852 -0.2246
26451W        W42635   3.366   3.244  12.524 -0.1581 -0.0371  0.2365
26452W        W42636  16.030   7.978   0.829 -0.0313 -0.0768  0.0868
26453W        W42637  10.358  14.814   2.296 -0.0964  0.0760  0.0821
26454W        W42638  13.943  15.648  11.100  0.2317 -0.2182  0.1792
26455W        W42639  13.226   6.540   3.744  0.1164 -0.1140  0.1753
26456W        W42640   7.008  15.377   3.294 -0.3763  0.0608 -0.0846
26457W        W42641  17.665   3.548  10.356  0.1496  0.0161 -0.0500
26458W        W42642  12.735   6.583  14.082 -0.2843 -0.3218 -0.0806
26459W        W42643   7.604  13.516  10.004  0.0193 -0.4795 -0.3146
26460W        W42644  14.276  12.237  13.165 -0.0294 -0.3254  0.1465
26461W        W42645   8.150  17.737   5.343 -0.1849  0.0991 -0.5209
26462W        W42646   7.483  10.613   3.881  0.1516  0.0499 -0.1727
26463W        W42647   0.233  13.750  10.433  0.1377 -0.0836 -0.0780
26464W        W42648  15.195   9.730  13.664 -0.2227  0.2101 -0.1392
26465W        W42649   3.497   4.376  11.971 -0.2207  0.0671  0.1169
26466W        W42650  12.404  12.834   3.726 -0.0467  0.1543  0.2748
26467W        W42651  13.970  15.550   1.868  0.2161 -0.0847 -0.1154
26468W        W42652  13.846   3.224   1.796 -0.0854  0.1306 -0.1706
26469W        W42653   5.422   8.390   3.776 -0.1165 -0.0593 -0.2995
26470W        W42654   9.530  13.440   3.797  0.1735 -0.1168 -0.0610
26471W        W42655   7.240  11.791  13.080 -0.0090  0.0992  0.1315
26472W        W42656   5.791  18.190  14.088 -0.0072  0.0009  0.0798
26473W        W42657   8.299  17.705  14.257 -0.1510  0.1745 -0.3992
26474W        W42658   8.306   3.206  11.475  0.1456 -0.0072  0.0566
26475W        W42659  12.526  15.811  12.324  0.0229  0.2947 -0.1918
26476W        W42660  13.490   1.601   3.742  0.0442 -0.0520  0.4453
26477W        W42661   4.099   4.909  10.699 -0.0295 -0.3006 -0.0323
26478W        W42662  10.106   8.721   3.141 -0.0888 -0.1102  0.0926
26479W        W42663   6.752   3.578   1.243 -0.1163  0.1377 -0.3990
26480W        W42664  16.204  17.314   3.644  0.0451  0.1635 -0.0183
26481W        W42665  18.883  13.436   2.122 -0.1144  0.0048  0.2140
26482W        W42666  16.854   1.316   1.471  0.1773 -0.1487 -0.1925
26483W        W42667   7.737   1.306  14.800  0.2994 -0.1413 -0.2499
26484W        W42668  16.641   0.754  10.778 -0.1303 -0.0847 -0.1284
26485W        W42669  18.926  18.645   3.021  0.0582  0.0143  0.1912
26486W        W42670   4.643   5.011  10.057  0.0402 -0.2059  0.2041
26487W        W42671   3.511  15.172   0.499  0.0968  0.0651 -0.4340
26488W        W42672  10.042   4.492   3.171  0.1869  0.0377 -0.2637
26489W        W42673   6.409   4.645  13.134 -0.0206  0.1462  0.0500
26490W        W42674  18.825   9.634   3.521  0.3513  0.0383 -0.2801
26491W        W42675   0.285  11.604   3.519  0.0401  0.1330 -0.0053
26492W        W42676   3.871   7.889   5.465 -0.0259 -0.0951  0.0570
26493W        W42677  16.369   0.075  13.603 -0.0564  0.2808  0.1544
26494W        W42678  10.758   6.029  13.212 -0.3587 -0.0643  0.1695
26495W        W42679   7.522  16.128   3.838  0.1960 -0.0805 -0.0513
26496W        W42680  15.305   7.603  13.270  0.0347  0.0458 -0.0408
26497W        W42681  14.861  10.610  12.081 -0.1452  0.3674  0.0571
26498W        W42682  14.217  17.380   4.320 -0.2129 -0.2016 -0.1462
26499W        W42683  18.106   8.641   0.851  0.0729  0.2742 -0.0019
26500W        W42684  15.489   3.041   3.393 -0.1318  0.2771  0.1240
26501W        W42685  13.805   8.948   3.811 -0.3315 -0.0145  0.3015
26502W        W42686   0.104  11.457  14.108 -0.0586 -0.1377  0.2679
26503W        W42687  17.445   2.932   3.856 -0.0227  0.0693  0.2357
26504W        W42688  14.915  15.348   1.924 -0.0661 -0.0300 -0.0759
26505W        W42689   4.291   0.691  13.971  0.1167  0.0050 -0.0363
26506W        W42690  10.358  14.478  13.182  0.3744 -0.2242  0.1676
26507W        W42691   9.847   4.782  11.127 -0.0180  0.0995 -0.2199
26508W        W42692   4.425   1.862  12.873  0.0516 -0.2169 -0.1229
26509W        W42693  19.341  11.718  12.341 -0.1011  0.0070 -0.3237
26510W        W42694  13.367   3.338   1.593  0.3108 -0.0907  0.0535
26511W        W42695  13.628   6.873   0.216 -0.0632 -0.2352 -0.2315
26512W        W42696  18.489  17.784   0.760 -0.3499 -0.0303  0.1528
26513W        W42697  11.071  16.708   4.606 -0.0644  0.2730 -0.3021
26514W        W42698   3.497  17.925   4.733 -0.1025  0.3922  0.0154
26515W        W42699  12.795  11.742  11.616  0.0147 -0.1076  0.0860
26516W        W42700  14.910   9.116  12.295  0.0357 -0.0318 -0.2847
26517W        W42701   1.951  14.171   0.053  0.0004 -0.5148 -0.2202
26518W        W42702  15.179  18.721  10.600  0.0644  0.4162 -0.4824
26519W        W42703  17.367   3.769   4.339  0.0862  0.1085  0.2774
26520W        W42704   0.594   5.192   4.536 -0.1635  0.0888 -0.0267
26521W        W42705  10.820   0.047  10.869  0.1992 -0.0767 -0.1609
26522W        W42706   7.072   9.323  12.396 -0.0191  0.0506 -0.1135
26523W        W42707   3.352  14.933   1.473  0.1110 -0.0609 -0.1339
26524W        W42708   5.490   0.414   1.143 -0.1870 -0.3260  0.0285
26525W        W42709  14.512  19.106   0.675 -0.2461 -0.1143  0.0758
26526W        W42710  14.728  16.467  11.668 -0.0860 -0.1444 -0.3024
26527W        W42711  16.616   5.761  13.774 -0.2705  0.0510 -0.1449
26528W        W42712  18.227  15.758   2.275  0.2959  0.1009  0.1104
26529W        W42713   1.406  15.529  12.778 -0.3008 -0.2910 -0.0809
26530W        W42714  14.240  12.809  12.070 -0.1117  0.0447 -0.0761
26531W        W42715   7.188  16.811  11.592  0.4770 -0.2387  0.2372
26532W        W42716   8.363   9.638  11.931 -0.0597 -0.0289  0.1723
26533W        W42717   5.944  19.383   2.649  0.3116 -0.2256  0.3465
26534W        W42718  15.965  17.977   1.242  0.2155  0.1338 -0.5645
26535W        W42719   9.843  16.368  14.615  0.0668 -0.3146 -0.2322
26536W        W42720  10.226  17.945   1.289  0.3062 -0.0252 -0.3490
26537W        W42721   1.170  14.160  14.720 -0.5656 -0.2497  0.2683
26538W        W42722   2.887   1.439  10.812 -0.2211 -0.1067 -0.0023
26539W        W42723   2.977  11.377  13.385 -0.0499 -0.0756 -0.3149
26540W        W42724  12.357  15.905  13.629  0.3462  0.0386  0.0482
26541W        W42725  17.595  11.293  10.446  0.4040  0.3070 -0.1913
26542W        W42726  14.312   2.400  12.354  0.0379 -0.2554  0.1103
26543W        W42727   0.744   5.486   4.067 -0.0055 -0.0696  0.0432
26544W        W42728   1.465  15.638  10.440 -0.2827  0.3332  0.3739
26545W        W42729  17.333  16.558   1.085 -0.2081  0.3191  0.2082
26546W        W42730  12.529   2.597   3.521  0.1022  0.1812  0.1371
26547W        W42731   1.939  16.236   4.798  0.2763 -0.2557 -0.1883
26548W        W42732   0.994   7.907  12.609 -0.0692  0.2294  0.1669
26549W        W42733  16.012   2.778  11.216  0.2411 -0.2793  0.0263
26550W        W42734  17.830   6.803  12.759  0.0117 -0.2841 -0.1549
26551W        W42735  13.041   1.670   1.762 -0.2808 -0.2748  0.2843
26552W        W42736   0.449   5.811   1.609  0.2017 -0.0275  0.0834
26553W        W42737  18.160  15.579   3.299 -0.0191  0.1215 -0.0625
26554W        W42738   1.958  10.886  11.434  0.1129 -0.2035  0.0045
26555W        W42739   5.305   7.022   2.708 -0.0311  0.0106 -0.2067
26556W        W42740  14.544   7.251   0.742  0.1234  0.1450 -0.0035
26557W        W42741   8.220  18.167   3.179 -0.0041 -0.1839 -0.0529
26558W        W42742   7.833  12.474   9.335 -0.0578 -0.0580 -0.1752
26559W        W42743  16.412   9.934   4.991 -0.1248  0.4496 -0.2449
26560W        W42744  13.128  14.667  12.663  0.0685 -0.1942 -0.0630
26561W        W42745  10.781  16.971   7.852  0.0678 -0.0327  0.1985
26562W        W42746  16.051   9.294   5.876  0.3165  0.0995 -0.1014
26563W        W42747  12.924  17.048  10.959 -0.1285 -0.1736 -0.0074
26564W        W42748  15.217   7.967  11.737  0.3801 -0.3034  0.0383
26565W        W42749  14.049   3.259   3.698  0.0031 -0.0028  0.2154
26566W        W42750   2.501  16.424   3.202  0.1370 -0.1867  0.1306
26567W        W42751  10.162   7.525   0.181  0.2558  0.2917  0.1115
26568W        W42752  18.052  10.321   4.175 -0.0768 -0.2355 -0.0606
26569W        W42753   0.298   6.857   1.216  0.0405  0.2565  0.0048
26570W        W42754   1.499  18.050  11.421  0.2183  0.4211 -0.0887
26571W        W42755  10.547   6.461  10.505  0.1827  0.2325  0.1441
26572W        W42756  17.833  12.592  12.645  0.1589 -0.0154 -0.0251
26573W        W42757  12.076   7.570  11.940 -0.0655 -0.1927 -0.1599
26574W        W42758  15.897   1.625  14.089 -0.2487  0.1271  0.0182
26575W        W42759  11.974   5.569   1.348  0.0271  0.0358 -0.0212
26576W        W42760   2.570   8.387   2.129  0.1189  0.0748 -0.0262
26577W        W42761   0.074  14.250  11.955  0.1065 -0.0725 -0.2136
26578W        W42762  12.619  13.955  12.966  0.1863  0.0404 -0.0963
26579W        W42763   0.863  12.030   5.190  0.1312 -0.1206 -0.3456
26580W        W42764  14.016  17.314  14.551 -0.0793 -0.0999  0.1268
26581W        W42765  13.831  17.692   3.216  0.2397  0.3303  0.0237
26582W        W42766   8.489   4.107   2.992 -0.2229  0.0540  0.2125
26583W        W42767   9.662   5.300  12.996 -0.0407  0.2102 -0.0615
26584W        W42768  17.258   3.134  11.606  0.1456 -0.3711 -0.0598
26585W        W42769  10.533   2.323  12.032 -0.1671 -0.0942 -0.0360
26586W        W42770  18.709  10.935   4.347 -0.2458  0.0390  0.1508
26587W        W42771  16.492   1.757   9.809  0.0338  0.0766 -0.2335
26588W        W42772  18.914   8.574   2.261 -0.1859  0.2611 -0.0236
26589W        W42773  10.537   2.255   0.995 -0.1727  0.1444 -0.1290
26590W        W42774   4.468  16.829   2.007 -0.3107  0.2226 -0.0580
26591W        W42775   0.393  13.846   5.264  0.3576 -0.0155 -0.0830
26592W        W42776  11.097   5.228   1.155  0.1885 -0.0797 -0.0424
26593W        W42777   2.649  11.295  12.935  0.1176 -0.1645  0.1883
26594W        W42778   8.878  15.576   1.231 -0.1835  0.0576  0.3581
26595W        W42779   7.862   4.798   2.254 -0.0702  0.0238 -0.2812
26596W        W42780   4.641  15.631  11.593  0.3702  0.1079  0.1984
26597W        W42781  15.409   8.874   9.097  0.0729  0.0082 -0.2403
26598W        W42782  16.575   8.050  11.684 -0.0433 -0.1987 -0.0214
26599W        W42783  12.112   6.944   2.539  0.1600  0.1603 -0.0131
26600W        W42784  14.892  11.226   4.624 -0.0501  0.2639  0.1614
26601W        W42785  10.711   4.162  12.139  0.0079  0.1880  0.2399
26602W        W42786   3.010   9.176   1.322 -0.1489 -0.0663  0.1299
26603W        W42787  11.358  10.689  14.505 -0.1016 -0.2654  0.0728
26604W        W42788   8.051  15.116  14.646  0.0704  0.2835 -0.1954
26605W        W42789  11.712   1.134   4.558  0.1305  0.0147 -0.4166
26606W        W42790   5.252   2.524   0.897  0.2258 -0.1143  0.1593
26607W        W42791  11.697  13.483   2.181  0.3290  0.0853 -0.0649
26608W        W42792   9.572  16.005  10.241  0.4789  0.0741 -0.1435
26609W        W42793   3.508   3.804   1.208 -0.0550 -0.1550  0.2875
26610W        W42794   2.660   1.268   4.505 -0.2349 -0.2361  0.1905
26611W        W42795  18.413  13.440   2.251  0.1102  0.0286  0.1187
26612W        W42796   2.512  13.171   2.075  0.0394 -0.0383  0.0213
26613W        W42797  14.870  19.194   2.223  0.0578  0.1959  0.1323
26614W        W42798   1.818   2.600   5.009 -0.0972 -0.0889 -0.0790
26615W        W42799  16.463   9.686  11.390  0.2241  0.1083  0.1229
26616W        W42800   7.339  11.171   1.180  0.2589  0.1445  0.1676
26617W        W42801  14.999   7.460   4.554 -0.0594  0.1283  0.1349
26618W        W42802  11.405   3.803  14.745 -0.1940  0.0508  0.0666
26619W        W42803  14.927  17.994   0.134  0.0749 -0.0906 -0.1744
26620W        W42804  13.448  17.360   3.437  0.0462 -0.0432 -0.3107
26621W        W42805   5.631  13.289  14.776 -0.2523  0.0498  0.1045
26622W        W42806   3.380   1.436   0.738  0.1239 -0.1189  0.0863
26623W        W42807  17.620  10.043  11.371 -0.3442 -0.0808  0.1542
26624W        W42808   7.608   9.302  12.485  0.5285 -0.1345 -0.0143
26625W        W42809   3.624   2.352  13.492  0.2166  0.1965  0.1200
26626W        W42810   1.473   8.101  12.451 -0.0195 -0.0013  0.2633
26627W        W42811  17.254   6.072   0.996 -0.3226  0.3926  0.1158
26628W        W42812   9.447  13.990   3.026  0.2961  0.1027 -0.3045
26629W        W42813  14.972   8.232   2.688 -0.2228 -0.0850 -0.0022
26630W        W42814   4.569  16.850  11.450  0.0617  0.1049 -0.1236
26631W        W42815  19.222   5.015  12.203  0.1709 -0.2438 -0.3014
26632W        W42816   5.975   1.148   1.248 -0.7474 -0.1861  0.0120
26633W        W42817  14.065   5.810   5.045 -0.0269 -0.2886  0.1259
26634W        W42818  15.763   8.504   1.670 -0.1260 -0.3020 -0.2417
26635W        W42819   1.053   6.707   0.711  0.1381  0.1816  0.0246
26636W        W42820   7.286   9.394  10.493  0.1092  0.0328 -0.1970
26637W        W42821   2.947   1.874  10.156  0.2601  0.0168 -0.1098
26638W        W42822   8.521   2.703  12.363 -0.0700  0.0886  0.1297
26639W        W42823  15.508  16.733  14.053  0.0238 -0.1715 -0.1890
26640W        W42824  18.676   9.113   1.414  0.0469  0.2538  0.1140
26641W        W42825  19.212   7.237  13.203  0.0529  0.3618  0.3041
26642W        W42826   6.022   7.129  11.638  0.0990  0.2914 -0.1403
26643W        W42827   5.830   0.485   4.907 -0.2174  0.0200 -0.1828
26644W        W42828   7.449  13.183  11.557 -0.0750  0.3268  0.0147
26645W        W42829   7.009  18.435  12.974 -0.0951  0.0702  0.1342
26646W        W42830   6.855   8.459   1.600 -0.1593  0.1455  0.3529
26647W        W42831  10.198  11.580  14.298 -0.1845  0.1385 -0.0822
26648W        W42832  15.963   4.480  12.686 -0.1815 -0.4627  0.4268
26649W        W42833   5.279   8.402  12.360 -0.0143 -0.2375  0.0807
26650W        W42834   0.178  11.108  12.378  0.0691 -0.0770  0.1163
26651W        W42835  13.398   9.684   3.987  0.3398 -0.3814 -0.0171
26652W        W42836  18.727   1.047   0.933 -0.0377 -0.3719 -0.2791
26653W        W42837   1.675  11.841  11.730 -0.4024 -0.4159 -0.1270
26654W        W42838   4.969   0.033  14.100  0.3402  0.3624  0.1531
26655W        W42839  19.302   8.330   2.032 -0.0879 -0.1832 -0.1895
26656W        W42840  18.622  16.466   2.829 -0.2368 -0.3762  0.1705
26657W        W42841   5.671   2.825  12.011  0.1353 -0.2224  0.0811
26658W        W42842   1.628   2.482   3.331  0.1235  0.0627  0.2232
26659W        W42843  11.492  16.400   1.162 -0.1051 -0.0003  0.1711
26660W        W42844   6.168   0.893   4.454  0.1763 -0.0709 -0.0580
26661W        W42845   7.166   0.524  14.925 -0.2570  0.1023  0.0674
26662W        W42846   0.865  17.829   2.229 -0.0545 -0.0846 -0.0815
26663W        W42847   4.344  17.443   4.456 -0.1384 -0.2434 -0.1918
26664W        W42848   4.209   3.558  12.659 -0.0619 -0.1324  0.1137
26665W        W42849   7.776   2.606   1.443 -0.1500  0.2132 -0.0437
26666W        W42850  19.040   7.758  13.701 -0.1742 -0.3145 -0.0061
26667W        W42851   9.299  13.409   3.197  0.1817 -0.0353 -0.0758
26668W        W42852   8.544   7.138  13.004  0.0187 -0.0958  0.0256
26669W        W42853   1.903  17.568  14.856 -0.1455  0.0076 -0.1145
26670W        W42854   4.096  15.505   4.723  0.2818 -0.0334 -0.1674
26671W        W42855  13.209  17.098  10.477  0.0555  0.1817  0.1677
26672W        W42856   5.627  18.673  12.901 -0.0417  0.2343  0.1015
26673W        W42857   3.279   0.356   3.921 -0.0368  0.0425 -0.3118
26674W        W42858   4.346  17.312  10.523 -0.2054 -0.2105 -0.0738
26675W        W42859   7.396   5.190  13.934 -0.1011 -0.0203  0.0687
26676W        W42860   7.028  19.029  11.140 -0.2146  0.1102 -0.0165
26677W        W42861   1.279  15.169  14.632 -0.1163  0.2171 -0.1266
26678W        W42862  14.921  18.689  14.531  0.0586 -0.1024 -0.0055
26679W        W42863   2.524   4.543   0.147 -0.3118  0.2782  0.3855
26680W        W42864   3.515   4.829  12.846 -0.1923 -0.3465 -0.0730
26681W        W42865   5.160  17.055  14.065 -0.3143  0.0866  0.0000
26682W        W42866  19.285   2.670  13.342  0.0369 -0.0009  0.0113
26683W        W42867   4.372   8.116   1.609  0.1029 -0.1159  0.1045
26684W        W42868   8.412  11.336   1.229  0.1288  0.2962 -0.1307
26685W        W42869  14.207   0.403   5.897  0.0725 -0.0897  0.1786
26686W        W42870  18.005   8.330   3.458  0.0884 -0.0762 -0.2855
26687W        W42871   9.091  18.382   3.584  0.1259  0.1414  0.0832
26688W        W42872   1.609  15.662  13.743  0.3201  0.0350 -0.0363
26689W        W42873  13.384  17.915   9.746  0.1440 -0.1583 -0.2944
26690W        W42874  10.672   3.492  11.562  0.3354 -0.1595  0.1920
26691W        W42875  16.344  18.246   9.335  0.0336  0.1751 -0.2354
26692W        W42876  13.918  15.480   2.946 -0.1393 -0.3439  0.1374
26693W        W42877   4.425   1.151  13.545 -0.2772  0.1137  0.3630
26694W        W42878  13.665  11.481   2.952 -0.0949  0.4252 -0.1799
26695W        W42879   0.785  12.689   1.380  0.3644  0.1329  0.2105
26696W        W42880  16.840   0.346  12.482  0.3610  0.3105 -0.0574
26697W        W42881  16.298  10.526   4.612  0.0549 -0.0922 -0.0544
26698W        W42882   5.464  18.544   5.284  0.0895  0.1989 -0.3140
26699W        W42883   6.411   2.552   1.033  0.3114  0.1253  0.3865
26700W        W42884  13.926   5.886   1.667 -0.2000 -0.1790 -0.0183
26701W        W42885   2.323   9.696   0.117 -0.0532  0.0129  0.3856
26702W        W42886   6.740  12.445  14.562 -0.0960  0.0278  0.2214
26703W        W42887   4.974   4.334   1.122 -0.1397  0.0347  0.0308
26704W        W42888  11.443  13.947   0.400 -0.3174  0.1171 -0.0431
26705W        W42889   1.624  18.096   2.940 -0.4072 -0.0770  0.0108
26706W        W42890   2.527   2.747   2.455  0.0426 -0.1974  0.2128
26707W        W42891   9.077  18.774  13.909 -0.2601 -0.2661 -0.3620
26708W        W42892   3.208  16.070   1.445  0.0430 -0.3036 -0.0794
26709W        W42893   4.613   3.725  12.989 -0.1465 -0.2273 -0.0214
26710W        W42894  16.264  19.155  12.701  0.2216  0.1345 -0.0753
26711W        W42895   4.553   9.384  10.010  0.3349 -0.0047 -0.2277
26712W        W42896   1.300   5.903  11.224  0.1622 -0.0698 -0.0691
26713W        W42897   0.997   3.373  12.305 -0.2976 -0.1827 -0.0321
26714W        W42898  10.577  12.331  13.758 -0.0991 -0.0602 -0.2068
26715W        W42899   1.744   7.991  11.577  0.0414  0.1878 -0.0008
26716W        W42900  11.068   4.717   0.543 -0.0095 -0.0345 -0.0854
26717W        W42901  18.268  15.661   5.006 -0.0777  0.3160  0.1859
26718W        W42902   5.689  10.906  10.305  0.4684  0.1013  0.1363
26719W        W42903   4.072  12.044   4.112 -0.2056 -0.1131 -0.0400
26720W        W42904   1.379   0.243  11.777 -0.0591  0.0868 -0.2314
26721W        W42905   0.577   1.260   3.623  0.0970 -0.1837  0.2947
26722W        W42906  19.279  16.004  11.244 -0.2023  0.1949  0.2280
26723W        W42907   4.336   8.892  14.713  0.2394 -0.0374 -0.1287
26724W        W42908  12.137  16.014  12.029  0.1264 -0.0559  0.0381
26725W        W42909  10.666  15.492  14.117  0.2495  0.3182 -0.0789
26726W        W42910  18.580  17.551   4.666 -0.0961  0.0014 -0.2828
26727W        W42911   1.509   0.543  10.442  0.1713 -0.1648 -0.1595
26728W        W42912   8.545  10.409  13.586 -0.1141 -0.2672 -0.1582
26729W        W42913  15.616  16.807   1.295 -0.0564  0.3559  0.3047
26730W        W42914  10.792   8.118   0.519  0.1690  0.2390 -0.1247
26731W        W42915  17.873   4.370   3.943  0.3369 -0.3691  0.3049
26732W        W42916  17.726  18.397   0.968  0.0705 -0.0291  0.1436
26733W        W42917  18.664   0.401   4.980  0.1666  0.0803 -0.1172
26734W        W42918  13.995  16.945  14.180  0.1623  0.0988  0.2060
26735W        W42919  14.635  17.662   2.572  0.0870 -0.0125 -0.1081
26736W        W42920  11.348  11.303   3.932  0.0970  0.0748  0.0851
26737W        W42921  16.875   5.951  10.675 -0.0700  0.4766  0.0416
26738W        W42922  11.721  14.564   5.334  0.1830 -0.1590  0.2010
26739W        W42923   8.250   2.370  11.472 -0.1555 -0.1619  0.0242
26740W        W42924  16.169  18.167  13.719 -0.1552 -0.1597  0.2390
26741W        W42925   0.823  13.065   4.359 -0.2416  0.1425  0.4452
26742W        W42926   4.641   3.234  12.920  0.0831  0.0265  0.0685
26743W        W42927   5.188  13.336  14.505 -0.2513  0.2873  0.1189
26744W        W42928  17.135   0.595  10.570 -0.1510 -0.2642  0.1139
26745W        W42929   8.494  12.059   3.702 -0.1763 -0.2761  0.0432
26746W        W42930   1.334  12.983   2.447  0.1333  0.1724 -0.3739
26747W        W42931   1.640   1.766   1.583 -0.1893 -0.0753  0.0292
26748W        W42932   0.128  19.158   0.943  0.2075 -0.0105 -0.2283
26749W        W42933  18.498  11.883  13.087  0.1871  0.1755  0.2761
26750W        W42934   0.149  12.430  12.272 -0.2237 -0.0870 -0.0194
26751W        W42935   8.096   4.373   1.090  0.5053 -0.2905  0.1029
26752W        W42936  15.239  10.124  12.620 -0.1759 -0.2595 -0.0253
26753W        W42937  15.826   4.593   4.206  0.0268  0.1008 -0.3882
26754W        W42938  18.677   6.045  11.452  0.3003  0.0372 -0.2045
26755W        W42939  18.819  18.878   4.563  0.0565  0.0373  0.2699
26756W        W42940   3.025  13.888  14.752 -0.0063 -0.0317  0.1548
26757W        W42941   3.058  10.017   3.899  0.0045 -0.0840 -0.2894
26758W        W42942   1.171  14.408  10.554 -0.0808 -0.0491 -0.0586
26759W        W42943   6.835   9.764   5.392  0.0821  0.0174  0.1000
26760W        W42944   1.892   7.309  10.374 -0.1395 -0.3488 -0.1142
26761W        W42945   2.743  17.350   0.142  0.2984  0.1026 -0.2450
26762W        W42946   3.102  15.545  13.875 -0.1159 -0.2646 -0.1072
26763W        W42947  12.421   4.757  14.475 -0.5914 -0.1119  0.4121
26764W        W42948  17.448  15.872  13.624 -0.3834  0.0075  0.0175
26765W        W42949  12.447   5.360   0.743  0.0675 -0.5157  0.0218
26766W        W42950   8.098   3.440   4.067 -0.1016  0.5648 -0.3047
26767W        W42951  15.012  10.025   1.157 -0.1069 -0.2751  0.0124
26768W        W42952  17.414  16.025   3.432  0.0363 -0.0346  0.0254
26769W        W42953   6.883  16.214   0.539  0.0002  0.0024  0.0515
26770W        W42954  18.363  12.471   2.240 -0.0955  0.0501 -0.1180
26771W        W42955  17.369   8.531  12.095  0.3258  0.0437 -0.1861
26772W        W42956  16.937  11.818  13.250  0.3449  0.0027 -0.1281
26773W        W42957   2.246  11.770  10.807 -0.0412 -0.2743 -0.0958
26774W        W42958  10.722  18.389  12.281 -0.0501  0.2376 -0.0745
26775W        W42959  13.179  16.390  14.850  0.0909  0.3300  0.2059
26776W        W42960   6.132   6.468   0.576  0.1510 -0.6032 -0.0883
26777W        W42961  15.760  13.012   3.143  0.1508  0.0286  0.1806
26778W        W42962   8.058  10.813  12.206 -0.0476 -0.0610  0.0098
26779W        W42963  16.042   2.488   3.381 -0.2386 -0.0426 -0.0417
26780W        W42964   9.479   3.042   1.192 -0.1004 -0.3101 -0.1430
26781W        W42965   8.859  12.165  11.201 -0.0577 -0.4077  0.0076
26782W        W42966   8.436  11.216   4.922 -0.2244 -0.1293 -0.2979
26783W        W42967   5.335   5.660   2.299 -0.4886  0.0110 -0.1287
26784W        W42968  17.847   3.405   3.278 -0.0934  0.1550 -0.3105
26785W        W42969  15.865   3.385  14.096 -0.1387 -0.1017 -0.3352
26786W        W42970   2.310   2.236  13.938  0.1126  0.3562 -0.2595
26787W        W42971  13.776   1.385   0.277  0.0135  0.1879 -0.1128
26788W        W42972   9.430   3.874  13.841 -0.0709  0.1038 -0.0804
26789W        W42973   7.654   7.207   3.465 -0.3353  0.1665  0.3024
26790W        W42974  15.839   4.957   3.675 -0.4060  0.1398  0.0970
26791W        W42975  17.306   4.600  14.638  0.1818 -0.1584  0.2014
26792W        W42976   2.892  12.436   2.278  0.2019 -0.3037 -0.0165
26793W        W42977  14.545   1.325   4.719  0.0940  0.0409 -0.0601
26794W        W42978   9.261   6.119   2.161 -0.4085  0.0154 -0.2719
26795W        W42979   3.503  16.163   0.964 -0.1599 -0.0816 -0.0024
26796W        W42980  15.566   8.399  13.532  0.2635 -0.2340  0.1090
26797W        W42981  16.549   2.674   0.874  0.0705 -0.1435 -0.0280
26798W        W42982   3.761   5.353   2.192  0.1466  0.0203  0.1638
26799W        W42983  15.925   6.797   0.612 -0.1749 -0.1540  0.3628
26800W        W42984   8.323   8.625   5.487 -0.1117  0.3423  0.2007
26801W        W42985  15.044   5.838   4.439 -0.1501  0.1996  0.1692
26802W        W42986   4.569   2.921   1.270 -0.1045 -0.1150 -0.1546
26803W        W42987  19.217  13.366   0.236  0.1096 -0.0286 -0.0849
26804W        W42988   9.104   7.943  12.249  0.0780 -0.1304 -0.1571
26805W        W42989  14.459   5.067  13.015 -0.2600  0.1786  0.0567
26806W        W42990  15.912  14.159   1.909  0.0781 -0.2231 -0.1003
26807W        W42991   5.259  15.298   2.643  0.1630  0.0452  0.0378
26808W        W42992   8.639   4.390  14.033 -0.3282  0.0685  0.1596
26809W        W42993  13.192  19.114   0.740 -0.3212 -0.2685 -0.0092
26810W        W42994   1.167  10.169   2.806 -0.0357 -0.2841  0.1962
26811W        W42995  13.281  10.152   0.352 -0.0376  0.3164  0.1144
26812W        W42996  10.686  15.651   2.994  0.1992 -0.1009 -0.1079
26813W        W42997  13.547  13.722   2.015 -0.2932 -0.3772 -0.2027
26814W        W42998   1.328   4.288  11.712 -0.3291  0.1015 -0.1853
26815W        W42999   3.494  10.993   3.664  0.2069  0.1001  0.1520
26816W        W43000   7.212  17.949   3.336  0.1856  0.0187  0.0342
26817W        W43001  17.406  11.770   3.524 -0.1936 -0.1607 -0.0372
26818W        W43002   9.047   7.774  14.149 -0.1615 -0.1217 -0.0372
26819W        W43003  12.615   7.030  13.848  0.4012  0.3700 -0.0153
26820W        W43004  15.601  18.163  12.927  0.2211 -0.3553  0.0728
26821W        W43005  17.250   2.471   1.176 -0.2542  0.0163  0.1551
26822W        W43006   5.514  18.083   2.109  0.1584  0.0910 -0.0651
26823W        W43007   4.325  12.090   1.134  0.0144  0.1041  0.1657
26824W        W43008  15.298   8.363  11.113  0.4232 -0.0644 -0.1544
26825W        W43009  10.962   3.744  11.225  0.0292  0.0899  0.2118
26826W        W43010  13.351   4.832  13.106 -0.0472 -0.1426 -0.4326
26827W        W43011   7.515   5.908   2.018  0.0925  0.2209  0.2022
26828W        W43012   4.724  17.070   0.426  0.0513  0.1441 -0.0258
26829W        W43013   3.483   6.743  11.376  0.0004 -0.1817  0.0365
26830W        W43014   7.215  10.827   2.067  0.0690 -0.0097  0.1683
26831W        W43015  13.401   8.698  11.566 -0.2053  0.0532  0.1736
26832W        W43016   1.259  18.313   3.561 -0.0021  0.2818 -0.0303
26833W        W43017  17.831  18.160  14.103  0.2712  0.0419 -0.0372
26834W        W43018   0.178   2.812   2.149 -0.2515 -0.2091  0.1341
26835W        W43019   6.354   7.829   9.671 -0.0364 -0.2689  0.0836
26836W        W43020  14.171   9.324   2.409  0.1813  0.3609  0.0719
26837W        W43021   2.965   3.298  12.323  0.0561  0.0652  0.0991
26838W        W43022   4.694  15.108   3.554  0.2820 -0.1699 -0.0332
26839W        W43023   1.986   2.758   2.396 -0.0010 -0.4368 -0.0400
26840W        W43024  17.423  17.330   1.864 -0.0565  0.2234 -0.1228
26841W        W43025   4.982  14.598  12.710  0.1590  0.0830  0.4981
26842W        W43026   2.064  17.959  12.775  0.3665 -0.0339 -0.1357
26843W        W43027  16.531  10.530  12.180 -0.1876  0.0049  0.1409
26844W        W43028   3.686  12.691  10.464  0.2955 -0.0052  0.2599
26845W        W43029  17.887  15.949   0.861 -0.2377  0.1016  0.3133
26846W        W43030  15.642   9.142  14.619  0.1914 -0.3862 -0.1009
26847W        W43031   4.144  16.699  11.269 -0.1529  0.2904 -0.0176
26848W        W43032   0.883  19.277   4.876  0.1002  0.1496  0.1532
26849W        W43033  16.452   6.323   2.989 -0.0735 -0.1743  0.1062
26850W        W43034   3.655   4.148  11.477 -0.2435 -0.2676  0.4216
26851W        W43035   8.574  14.333   4.227  0.0586 -0.3702 -0.7306
26852W        W43036   2.560  16.988  14.673  0.2807  0.0137  0.0330
26853W        W43037  14.572   5.009  12.366  0.1021 -0.0115  0.0381
26854W        W43038   8.820  14.353  13.095 -0.0348 -0.3879 -0.0372
26855W        W43039   1.989   8.342   0.181 -0.0375  0.3032  0.1432
26856W        W43040  18.835   9.828   1.240 -0.3695  0.1814 -0.0402
26857W        W43041   7.574  11.241  12.120  0.3330  0.1020 -0.2608
26858W        W43042  13.576  15.928   0.702  0.0462 -0.0027  0.2179
26859W        W43043  17.555  10.914   1.307  0.3776 -0.2225 -0.1185
26860W        W43044  14.553  17.958  11.800  0.0384  0.0124  0.1710
26861W        W43045   9.314  11.878   5.289  0.1797 -0.0278  0.1764
26862W        W43046  19.332   7.472   4.795  0.1506  0.1736 -0.2614
26863W        W43047   0.710   0.685  13.369  0.1143  0.0870  0.0191
26864W        W43048  12.069  15.682  11.104 -0.2781  0.1652  0.3403
26865W        W43049  14.845  16.316   4.133 -0.5530  0.2664 -0.0875
26866W        W43050   7.227   6.805   1.633  0.3481 -0.0341  0.4871
26867W        W43051  10.223   8.485   4.354  0.1015  0.1794 -0.1069
26868W        W43052  11.650  11.978  10.135 -0.0044  0.0619  0.1506
26869W        W43053   5.075  17.717   0.989 -0.0642  0.1100 -0.0778
26870W        W43054   7.433  15.673   0.472 -0.1966 -0.0538 -0.1662
26871W        W43055   2.093   2.781  14.771  0.2794 -0.3782 -0.0554
26872W        W43056  10.641  11.704  12.659 -0.1522  0.2498 -0.3064
26873W        W43057  11.898  16.877   0.237 -0.3601  0.0007 -0.1960
26874W        W43058  14.781  16.507   0.672 -0.0954  0.1036  0.1844
26875W        W43059  13.489   4.041   3.713 -0.0116  0.1021  0.2698
26876W        W43060  10.743   2.749   5.263  0.0715 -0.2810 -0.0436
26877W        W43061  17.915   8.134   0.330  0.0724  0.3688 -0.1164
26878W        W43062  11.328   9.384  10.543 -0.1322  0.1569 -0.2682
26879W        W43063   8.832  11.971   0.340 -0.0276 -0.0993 -0.0438
26880W        W43064  18.639  15.416   1.133  0.0334 -0.3573 -0.0407
26881W        W43065  13.028   3.594   2.237  0.2931  0.2500 -0.1772
26882W        W43066   0.836   1.079  12.598 -0.0980 -0.0874  0.0496
26883W        W43067   7.009  16.930  12.079  0.1467  0.0029  0.0453
26884W        W43068  10.616  15.646  11.905  0.0250 -0.1822 -0.1417
26885W        W43069  10.535   0.826  12.201  0.0625 -0.0947 -0.0390
26886W        W43070  18.645  17.771   0.313 -0.1282 -0.1859 -0.0683
26887W        W43071  13.726  12.605   0.734 -0.0198 -0.2115  0.0246
26888W        W43072  17.882  13.808   2.889 -0.4520 -0.2276  0.0700
26889W        W43073  16.768   4.925   3.422  0.1982 -0.0445  0.1890
26890W        W43074  10.155  15.896  12.005 -0.0550 -0.0670  0.2655
26891W        W43075  18.968   1.200  14.664 -0.7039 -0.0857 -0.0671
26892W        W43076  12.357  12.728  13.686 -0.3869  0.3151  0.0317
26893W        W43077  15.798  13.533  14.090 -0.1403 -0.0875 -0.0428
26894W        W43078   4.168  12.152  14.946  0.3660  0.1526  0.3936
26895W        W43079  17.697  13.663   2.157  0.0786 -0.1689 -0.2275
26896W        W43080   5.266  19.206  12.157  0.4423  0.1422  0.0326
26897W        W43081   0.396  18.806   0.693  0.1659 -0.1670  0.1011
26898W        W43082  12.662  16.761   9.489  0.1198  0.0726 -0.0674
26899W        W43083   9.639   5.410   1.442 -0.0108 -0.1885  0.0221
26900W        W43084   2.819  13.529  10.941  0.1595 -0.2191  0.0664
26901W        W43085  17.109   2.177  13.489  0.1671  0.0935  0.0710
26902W        W43086   1.143  13.381   0.332 -0.2425  0.1496 -0.3107
26903W        W43087  17.734  14.588  11.558  0.0840 -0.1096 -0.3661
26904W        W43088  17.027  13.505  11.485  0.5438 -0.1875 -0.0764
26905W        W43089  17.653   8.428   0.684 -0.0508 -0.1057 -0.1133
26906W        W43090   0.132   4.610   2.559  0.1875 -0.0379  0.0487
26907W        W43091   9.904  14.067  10.725  0.2679 -0.0227  0.0256
26908W        W43092   0.277  13.531  13.630 -0.1009 -0.0677 -0.0882
26909W        W43093  13.431  15.826  12.808 -0.2237 -0.1706 -0.3864
26910W        W43094   6.592   9.165  12.745  0.2591 -0.1807  0.1387
26911W        W43095   2.314  10.383   1.997 -0.0219 -0.0579  0.0072
26912W        W43096  14.571   5.462   1.162 -0.0807  0.1558 -0.3012
26913W        W43097  18.727  14.963  11.910  0.0517 -0.1594  0.1192
26914W        W43098   9.888   1.726   3.923 -0.1556 -0.1303 -0.0337
26915W        W43099   1.660  17.663  10.592 -0.1544  0.1671 -0.0015
26916W        W43100  11.068  14.656   1.309  0.1104  0.2056 -0.1873
26917W        W43101  16.081  19.020   4.805 -0.0828 -0.0387 -0.2762
26918W        W43102  15.893   3.868  11.280 -0.2120 -0.0842  0.1525
26919W        W43103   0.760   3.712   2.439  0.4284  0.1069 -0.0479
26920W        W43104  15.044   9.681  10.573 -0.1360 -0.2027  0.0454
26921W        W43105   6.662   6.397   0.626 -0.1063  0.1184 -0.0432
26922W        W43106  16.735   1.858  11.575 -0.2272  0.3163  0.1929
26923W        W43107  13.475  12.132  10.661  0.1427 -0.2028  0.2187
26924W        W43108   4.915  13.065  11.394  0.2882  0.1973  0.0172
26925W        W43109   3.101  13.738   1.110 -0.0984  0.0614 -0.2938
26926W        W43110  17.502   6.840  10.584 -0.0622 -0.0528 -0.2321
26927W        W43111   9.878  18.075  14.329 -0.1054 -0.0240  0.1208
26928W        W43112  11.995  10.481   3.275 -0.0911  0.0330  0.2356
26929W        W43113  17.617   0.281   3.938 -0.2442 -0.1559 -0.0120
26930W        W43114   7.660  15.222  13.825  0.2268 -0.2488  0.2082
26931W        W43115  17.171   0.680  14.613  0.2867  0.1604  0.0641
26932W        W43116  16.099  17.465  12.308  0.2142  0.0110 -0.1492
26933W        W43117   7.986  10.509   2.319  0.2306  0.1911 -0.0631
26934W        W43118  14.887  15.498   2.453  0.3518 -0.1761  0.0381
26935W        W43119   1.993  19.303  13.140 -0.0511  0.1330 -0.0562
26936W        W43120   7.109  14.100  10.737 -0.3654 -0.1003 -0.2690
26937W        W43121   5.674  10.055  14.110 -0.4061  0.1044  0.1627
26938W        W43122   6.469  14.533  13.939 -0.1029  0.3471 -0.3721
26939W        W43123   0.237  18.976   1.381  0.0250  0.2701 -0.0200
26940W        W43124   9.196  14.403  10.322  0.0494 -0.0913 -0.0566
26941W        W43125  15.670  17.990   3.433 -0.0450 -0.2126 -0.1067
26942W        W43126   5.784  12.869   4.233  0.2547  0.2048 -0.1553
26943W        W43127  11.830  12.522   2.866  0.1848  0.0149  0.2634
26944W        W43128   1.939  11.849  11.220  0.4244 -0.1425 -0.0838
26945W        W43129  19.262  17.173   2.280  0.0195  0.0642  0.1401
26946W        W43130   4.864   0.380   3.899  0.1991 -0.0373  0.2111
26947W        W43131   9.629  13.814   0.082 -0.0204  0.3173  0.1372
26948W        W43132   6.399   8.409  11.515 -0.1827 -0.0395  0.1726
26949W        W43133  14.733  10.914   5.170  0.0991  0.1400  0.1916
26950W        W43134   7.517  11.282  13.446 -0.3455  0.0308 -0.0215
26951W        W43135  11.740   3.511  12.713  0.1297 -0.4643  0.0661
26952W        W43136   3.903   3.665   3.964 -0.0587  0.0040  0.0578
26953W        W43137   2.470   9.895   0.529  0.0632 -0.0611 -0.0905
26954W        W43138   6.417   9.733   3.528 -0.3642  0.2614  0.1173
26955W        W43139   7.131   5.191  13.074  0.1128 -0.3407  0.0942
26956W        W43140  12.837  12.037  13.578  0.1329 -0.2031 -0.0443
26957W        W43141   5.436  14.591   3.401  0.1218  0.0278 -0.1269
26958W        W43142   4.650  13.938   4.379  0.1002  0.1873 -0.0769
26959W        W43143   0.070   1.580  14.918 -0.2684  0.3507 -0.1148
26960W        W43144   3.224  13.699   3.673 -0.2323  0.0731 -0.3651
26961W        W43145  14.022   8.596   3.574  0.0253 -0.2551  0.0514
26962W        W43146   5.610   7.204  12.952  0.2314 -0.0684 -0.0901
26963W        W43147  12.144   0.804  14.792  0.1089 -0.2890 -0.0477
26964W        W43148  11.928  17.741  14.111 -0.0386 -0.0018 -0.1500
26965W        W43149  14.379   0.922  11.358  0.1407 -0.1833  0.0949
26966W        W43150  15.088  14.438   0.722 -0.0099  0.0453  0.1129
26967W        W43151   4.195  16.053   3.362  0.0167  0.0430  0.1663
26968W        W43152  13.134   9.217   3.869  0.0851 -0.1675 -0.4874
26969W        W43153   9.680  15.431  13.301  0.2465  0.0616  0.3485
26970W        W43154   6.005  17.191   0.745  0.2287 -0.2334 -0.2767
26971W        W43155  10.193   1.378   3.716 -0.1904 -0.1656 -0.0681
26972W        W43156   0.098   3.652   0.389 -0.2955 -0.1570 -0.0408
26973W        W43157  11.810   6.275   9.951 -0.3620  0.1229 -0.0476
26974W        W43158  14.732   2.225   1.896 -0.1655 -0.2244 -0.2021
26975W        W43159  10.774   6.327   5.149 -0.1956 -0.0386 -0.0353
26976W        W43160   2.169   7.163  12.631  0.3324 -0.0396  0.0141
26977W        W43161   8.659   1.486  14.764  0.1271 -0.1546 -0.0443
26978W        W43162   8.327  16.170   2.855  0.0530  0.2617  0.3533
26979W        W43163  19.260   1.576   0.986 -0.1529  0.2184  0.4339
26980W        W43164  10.211   7.123   1.297  0.2731  0.2669 -0.0303
26981W        W43165  16.719   8.871   1.532  0.0071  0.0535  0.2721
26982W        W43166   9.055  14.302   0.609  0.2115 -0.1364  0.1905
26983W        W43167  14.986  17.387  10.559  0.5107 -0.2177  0.0801
26984W        W43168   1.530   0.551  13.922 -0.2380 -0.2857 -0.1752
26985W        W43169  10.451   7.209   4.383  0.0184 -0.6102 -0.2165
26986W        W43170  17.500  17.202  12.217 -0.3770 -0.2314 -0.0677
26987W        W43171   7.278   5.286   3.757 -0.1180 -0.1118 -0.1419
26988W        W43172   4.025  12.575  10.027 -0.4948 -0.0698 -0.1485
26989W        W43173  12.509  13.737   9.838  0.0364 -0.0645 -0.1660
26990W        W43174   0.695   8.541   0.152  0.0484 -0.0479 -0.0859
26991W        W43175   0.681   5.187   9.771  0.0829 -0.1919  0.3736
26992W        W43176   0.252   3.294  10.594  0.3754 -0.0833 -0.4089
26993W        W43177   6.573   4.874  14.064  0.0258  0.0635 -0.0406
26994W        W43178  13.442  13.758   4.237  0.0125  0.2375 -0.2690
26995W        W43179   1.807  13.994  10.985  0.3004  0.1074 -0.0515
26996W        W43180   4.923  13.008  14.206 -0.1010  0.0531  0.0937
26997W        W43181  12.740   3.011   2.995  0.0529  0.3417  0.2988
26998W        W43182   8.985   5.183   1.832  0.0676 -0.0308  0.0777
26999W        W43183   4.459  18.993  13.578  0.1014  0.2831 -0.0292
27000W        W43184   1.488   7.852  12.887 -0.0133 -0.2212 -0.0746
27001W        W43185   8.432   2.866   2.806  0.1074 -0.3213  0.0273
27002W        W43186  17.394  11.573   0.556  0.1154  0.2934  0.1099
27003W        W43187   7.256  16.070  12.042  0.3536  0.0189  0.0049
27004W        W43188   3.062  12.250   2.873 -0.0945 -0.0312 -0.2269
27005W        W43189   2.242   6.378   4.698 -0.3103  0.1657  0.1963
27006W        W43190   9.011  10.817   2.435 -0.2066  0.1408 -0.1561
27007W        W43191  17.770  17.205  12.896 -0.2093  0.0762  0.1847
27008W        W43192  12.506   8.003   0.748 -0.2669 -0.0870 -0.2487
27009W        W43193  13.984  11.864   3.162  0.0194 -0.2551 -0.1840
27010W        W43194  16.522   9.351  11.739 -0.1210  0.3726 -0.0039
27011W        W43195   5.649  14.820  11.124 -0.3783 -0.1625  0.4244
27012W        W43196  11.752   0.982  14.605 -0.1042 -0.2887  0.1350
27013W        W43197   6.453   7.011  13.919  0.1997 -0.1371  0.1337
27014W        W43198  14.148  10.392   0.205 -0.1873 -0.0723 -0.1996
27015W        W43199  15.127   9.977   0.658  0.0643  0.2251  0.1275
27016W        W43200  11.868   2.584   9.745 -0.0493 -0.1011 -0.0707
27017W        W43201   2.203   1.859   3.573  0.1790  0.1311  0.0582
27018W        W43202   2.262   4.986   4.290  0.0465 -0.0520 -0.2798
27019W        W43203   1.255   0.060  13.741  0.1633 -0.4779  0.0993
27020W        W43204   1.955  12.791   4.166 -0.1544 -0.0599  0.2142
27021W        W43205   0.804   0.700   5.004 -0.0676 -0.0240 -0.0385
27022W        W43206   5.706   0.843  13.868  0.1401 -0.1528 -0.1847
27023W        W43207  12.958  19.012  12.143  0.1294  0.0472 -0.0777
27024W        W43208   4.177  19.027  14.482 -0.0741 -0.1273  0.1124
27025W        W43209  14.599   4.567   2.399 -0.4409  0.4376  0.0505
27026W        W43210   8.812  16.168   4.448 -0.0523  0.2206 -0.1144
27027W        W43211   0.238   8.393  11.048  0.1302 -0.1253 -0.1584
27028W        W43212   9.299   1.281   4.509  0.5222 -0.4121 -0.3799
27029W        W43213  10.386   2.756   4.819  0.1575 -0.0519 -0.1037
27030W        W43214  12.345   3.431  14.477 -0.0715 -0.0458 -0.1677
27031W        W43215  17.101   5.567   3.687 -0.1289  0.2662 -0.1917
27032W        W43216  12.984  18.632   5.728 -0.2732 -0.2536 -0.2671
27033W        W43217   1.576  13.609  11.197 -0.0372 -0.0050  0.2721
27034W        W43218   3.705   5.760  11.140 -0.2212 -0.1495  0.2709
27035W        W43219  18.047   4.035  11.258 -0.0456 -0.2696 -0.2073
27036W        W43220   7.078   7.674   3.260  0.2964 -0.2756 -0.2100
27037W        W43221  12.270  19.359   4.576 -0.1926 -0.2559 -0.2420
27038W        W43222   1.847   6.347   2.907 -0.1504  0.0248 -0.2685
27039W        W43223   4.463  15.785   4.966  0.1522 -0.2100  0.3322
27040W        W43224   7.518   9.446  14.696  0.1142 -0.1005  0.1838
27041W        W43225  16.995  16.525   4.694  0.0790  0.0764  0.0608
27042W        W43226   1.095   9.350   1.614 -0.1709 -0.1783  0.0486
27043W        W43227   7.644  16.972  13.356 -0.0369 -0.2196  0.0319
27044W        W43228  14.016   3.034  12.610 -0.2843  0.1963 -0.4263
27045W        W43229   2.881   9.670  14.919  0.0967  0.1781  0.0147
27046W        W43230  19.156   6.713   5.231  0.2261 -0.2196  0.0467
27047W        W43231  15.270   5.553  11.959 -0.0560 -0.1104 -0.0755
27048W        W43232  19.345   3.460  12.022 -0.0026 -0.1542  0.1274
27049W        W43233  11.357  11.901   1.186 -0.1010  0.0208 -0.4437
27050W        W43234  11.644   2.349  13.618 -0.3062 -0.1895  0.1402
27051W        W43235  19.357  11.818  12.832  0.2106  0.0879 -0.4486
27052W        W43236  10.448  17.069  12.754 -0.1977  0.3126  0.0563
27053W        W43237  14.296   7.118   5.017 -0.0626 -0.0180 -0.0732
27054W        W43238   4.710   4.897   2.413  0.0133  0.1119 -0.2373
27055W        W43239  17.184  15.175  11.010 -0.2079 -0.0787  0.2694
27056W        W43240  10.828   1.082   1.903  0.1304  0.1622  0.0730
27057W        W43241  16.969   6.315  12.196 -0.0144  0.2827 -0.0049
27058W        W43242  16.767   0.049   0.743 -0.2787  0.3015 -0.0559
27059W        W43243   7.792   0.267   0.392  0.4588 -0.2022  0.1813
27060W        W43244   1.644  12.128   0.783  0.0967  0.1511 -0.0126
27061W        W43245  17.995  14.665  11.108  0.0949 -0.2471 -0.1897
27062W        W43246   4.496  18.536   1.707 -0.3977  0.2173 -0.1669
27063W        W43247   7.833  16.447   2.876  0.2625  0.0358 -0.0163
27064W        W43248   1.673  14.332  12.979  0.1901 -0.0950  0.4074
27065W        W43249   8.017   2.056  10.512 -0.1279  0.2880  0.1892
27066W        W43250  17.285  14.766   3.519  0.2089  0.0731 -0.1997
27067W        W43251  15.364  11.855  14.738  0.1311 -0.0225  0.0269
27068W        W43252   1.990  14.070  14.048  0.1820  0.1622 -0.0653
27069W        W43253  10.946  19.245   0.579  0.0584 -0.4431  0.1433
27070W        W43254  19.274  10.546   2.611  0.1038  0.0951  0.1618
27071W        W43255   6.409  18.334   0.645  0.0819 -0.0727  0.1496
27072W        W43256  17.418  11.049   4.157 -0.0233 -0.3472 -0.0603
27073W        W43257  11.549  17.572   0.964 -0.3290 -0.2726  0.0862
27074W        W43258  13.548  17.812   4.245  0.0287  0.5276  0.1548
27075W        W43259   6.751  16.323   1.459  0.4456 -0.0195  0.0172
27076W        W43260   4.846  17.259   3.739 -0.3901  0.0620 -0.0668
27077W        W43261  12.247   6.635  12.219  0.0049 -0.0896  0.2694
27078W        W43262   4.443   6.655  14.755  0.0277 -0.0423  0.2083
27079W        W43263   0.698  11.433   3.303 -0.0273 -0.2135  0.0237
27080W        W43264  17.691   9.879  14.440 -0.1641  0.1944 -0.1108
27081W        W43265  16.015  12.692  13.368 -0.1879 -0.1953 -0.1681
27082W        W43266  17.813  12.120  14.045  0.2506  0.2065 -0.0286
27083W        W43267   3.671  16.263   4.370  0.0732  0.1322 -0.0016
27084W        W43268   0.599  17.675   3.967  0.1023  0.0042  0.1882
27085W        W43269   5.911  14.364   2.099 -0.1143  0.0874 -0.2526
27086W        W43270   6.669   8.209   3.165  0.1331  0.0332  0.3921
27087W        W43271   1.673  12.669  13.391 -0.0386 -0.3280  0.1742
27088W        W43272  14.265  10.997  10.992 -0.1410 -0.0286 -0.0846
27089W        W43273   5.441   1.186   3.694 -0.1871 -0.0629  0.0332
27090W        W43274  16.274   7.383   3.649 -0.1552  0.0197  0.1200
27091W        W43275  11.546  11.295   1.708  0.0761  0.0397  0.1783
27092W        W43276  19.262   5.948   2.965  0.0291  0.1264 -0.1672
27093W        W43277   2.886   3.919  11.107 -0.0022  0.1442  0.1027
27094W        W43278   5.256   8.587   3.314 -0.2599 -0.1561  0.0317
27095W        W43279  16.210  18.348  10.509 -0.0219 -0.0169 -0.0369
27096W        W43280   1.762   0.096  10.626  0.1668 -0.1809 -0.3136
27097W        W43281   6.147  13.020   5.385 -0.1595  0.1098 -0.0384
27098W        W43282   0.036  13.981  13.867 -0.1390  0.1217 -0.2671
27099W        W43283  10.206  17.555   0.692 -0.2905 -0.2362  0.0471
27100W        W43284   1.253   4.842   5.181  0.0927 -0.0680  0.1953
27101W        W43285   4.033   5.225   4.697  0.0314  0.0958 -0.0024
27102W        W43286   5.067   3.628  10.704 -0.0665  0.0529 -0.3037
27103W        W43287   8.532   1.769  13.637  0.0614  0.3770 -0.0370
27104W        W43288   5.939   0.674  10.896 -0.0009 -0.0770  0.0537
27105W        W43289  15.346  16.889  11.135  0.1204 -0.2327 -0.1885
27106W        W43290   2.656   7.115   3.007 -0.1234  0.2804 -0.1864
27107W        W43291   4.537   9.315   2.731 -0.4370  0.0037  0.0993
27108W        W43292  17.421  11.774   5.600 -0.0548 -0.0923 -0.0332
27109W        W43293   1.544   7.009  11.829 -0.0216  0.0234  0.0093
27110W        W43294   4.604  15.925  13.927 -0.1418  0.1325 -0.1509
27111W        W43295  11.119  14.648  14.289  0.3585  0.0368 -0.0464
27112W        W43296   8.694  12.460  12.903  0.0180 -0.2046 -0.2229
27113W        W43297  11.277   3.122   9.164  0.2560 -0.1018 -0.1696
27114W        W43298   9.041  18.801  14.804  0.1081 -0.1959 -0.3710
27115W        W43299   3.477   5.814  12.627  0.0747  0.1150 -0.2060
27116W        W43300  11.140  14.041  11.359  0.0109  0.0834  0.0556
27117W        W43301  11.916   2.800   2.778 -0.1358  0.3727  0.2626
27118W        W43302  13.494   8.940  12.431  0.2284  0.1163  0.2017
27119W        W43303  15.480  10.211   4.759  0.2628 -0.0236 -0.0571
27120W        W43304   7.046   9.755  14.572  0.1844  0.0062 -0.2190
27121W        W43305  16.710   7.829   4.123 -0.3549 -0.2301 -0.0151
27122W        W43306   3.280  19.184   3.145  0.3756 -0.0192 -0.0737
27123W        W43307   4.482   5.415   2.400  0.4143  0.0524  0.0225
27124W        W43308  12.363  17.723  14.927 -0.1570 -0.2281 -0.0596
27125W        W43309  15.078   0.839  12.143 -0.0786  0.0177 -0.3730
27126W        W43310  13.445  18.738  11.613  0.1076 -0.1076  0.2339
27127W        W43311   9.376   4.690   0.548  0.4189 -0.2628  0.2573
27128W        W43312   5.402  16.750   2.614 -0.0482  0.1611 -0.0199
27129W        W43313  10.687   9.909  13.772  0.2261 -0.4998 -0.0015
27130W        W43314   6.461   9.949  10.490 -0.3031 -0.1065  0.2295
27131W        W43315  14.895  18.738   1.348  0.1444 -0.2634  0.0040
27132W        W43316  10.292   6.956  12.299  0.1415  0.0162 -0.1055
27133W        W43317   9.109   1.800  13.909 -0.1584  0.0914  0.0466
27134W        W43318   8.699  17.126   4.754  0.3646 -0.0863 -0.1949
27135W        W43319   8.548  18.718  12.177 -0.0204  0.3138  0.3909
27136W        W43320   0.038  16.012   2.813  0.0995  0.1124  0.2267
27137W        W43321   8.133  10.399   1.046  0.1381 -0.5319  0.0698
27138W        W43322   0.643   1.816   1.692  0.0427  0.4077 -0.0929
27139W        W43323   4.781   0.334   1.558 -0.0559 -0.5188  0.1666
27140W        W43324   8.626  13.819  14.609 -0.1662  0.2194 -0.1827
27141W        W43325   4.810  10.498   3.652 -0.0483  0.0889  0.1720
27142W        W43326  18.718   2.434  11.822  0.4226  0.2317  0.1725
27143W        W43327   0.236   1.848   9.594 -0.0967 -0.1089 -0.2644
27144W        W43328  10.462  10.110   2.259  0.1940 -0.2409 -0.2393
27145W        W43329   4.585   5.148   8.788  0.1672  0.3921  0.1446
27146W        W43330  10.883   7.913   4.962  0.0481  0.0700  0.2993
27147W        W43331   4.900   6.871   3.336 -0.1377 -0.1252 -0.1034
27148W        W43332  13.566   5.526  14.051  0.2653 -0.1759  0.3891
27149W        W43333  16.756   1.462   2.356  0.0863  0.0704  0.0722
27150W        W43334   5.653   2.853   3.112  0.0582  0.3306  0.1778
27151W        W43335  15.156  10.533   1.117  0.0561  0.1276  0.1084
27152W        W43336  14.880  13.780  13.427 -0.3222  0.2437 -0.2181
27153W        W43337  13.601   2.346  14.737  0.0525  0.2440 -0.1345
27154W        W43338  11.587  10.077   3.386  0.1166 -0.0616 -0.2464
27155W        W43339   2.306  16.766  13.375 -0.1216  0.2155 -0.0899
27156W        W43340   4.285   5.957  10.344  0.0275  0.3323 -0.0060
27157W        W43341   1.658   0.319  11.068 -0.3318  0.2455  0.1661
27158W        W43342   2.108  12.547  13.318 -0.0163  0.0147 -0.2964
27159W        W43343  15.617   3.000  13.424 -0.0731  0.1400 -0.0556
27160W        W43344  17.321  16.756   3.715  0.3436  0.1734 -0.2254
27161W        W43345  10.267  11.761   2.835 -0.2154 -0.0045 -0.2310
27162W        W43346  10.683   3.727   2.206  0.2510  0.2546 -0.1988
27163W        W43347  10.374  18.946  13.221 -0.2198 -0.1352  0.2130
27164W        W43348  14.478  11.955  14.028 -0.2592 -0.2599  0.1573
27165W        W43349  11.605  18.733  11.891 -0.0736 -0.1277 -0.1783
27166W        W43350  10.832  18.547  10.190 -0.1314  0.2367  0.1800
27167W        W43351  14.913   1.174   2.911  0.0213  0.1235 -0.2227
27168W        W43352   6.125  14.306   1.642  0.0524  0.3257 -0.0507
27169W        W43353   3.891   3.366   3.547  0.1776 -0.1833  0.2394
27170W        W43354  17.846  16.386   2.936  0.1382 -0.3621  0.1308
27171W        W43355  16.348  10.691  14.129  0.1148  0.0580  0.1417
27172W        W43356  13.345   5.003  10.582 -0.0490 -0.0120 -0.0638
27173W        W43357  17.087   4.100  14.226 -0.2210 -0.3235  0.0029
27174W        W43358   8.676   3.072   4.081 -0.1417 -0.1116  0.0712
27175W        W43359   3.555   9.003   0.586  0.1411  0.0072  0.2781
27176W        W43360   6.859   7.487  10.742  0.0036 -0.2189  0.1723
27177W        W43361  10.731  18.117  13.428 -0.3333 -0.3722  0.0609
27178W        W43362   6.895  12.351  10.457  0.2928 -0.0148  0.1478
27179W        W43363   8.602  16.378   0.932  0.1153  0.0698 -0.2025
27180W        W43364  11.069   8.308  11.286  0.1211  0.2097  0.0783
27181W        W43365   1.929  18.071   0.098  0.2173 -0.3716  0.0097
27182W        W43366   3.764   4.438  14.190 -0.0281 -0.0575 -0.2300
27183W        W43367   5.180  11.564  12.058 -0.2928  0.1083 -0.0522
27184W        W43368   4.915  10.406   0.505  0.2102 -0.1522  0.0420
27185W        W43369   8.369   6.273   0.674 -0.2130 -0.0033 -0.1331
27186W        W43370   5.832  16.260  10.827  0.2750 -0.3696 -0.0208
27187W        W43371   1.987  16.164   4.311 -0.0196 -0.0164  0.3140
27188W        W43372   0.102  17.860  14.354  0.1947 -0.1904  0.0065
27189W        W43373   6.354  16.762  13.262 -0.0936 -0.2283  0.2241
27190W        W43374  12.736  15.075  10.813  0.1156  0.0586 -0.0610
27191W        W43375   4.853   4.671  11.415  0.0518 -0.0482 -0.0389
27192W        W43376   6.841   6.329  13.127 -0.1859  0.1864 -0.1662
27193W        W43377  12.125   6.441  12.924  0.2629 -0.2583 -0.0377
27194W        W43378   3.141   8.114  13.198  0.1436 -0.0893 -0.2595
27195W        W43379  17.911   5.933   4.667 -0.0479  0.3872 -0.3977
27196W        W43380   5.534   8.622   0.888  0.0397  0.0321 -0.2564
27197W        W43381  18.227   5.957  14.628 -0.1299 -0.1659 -0.1782
27198W        W43382   2.897   8.198   1.180  0.1155  0.3595  0.1768
27199W        W43383   7.968   4.516  12.814  0.2886  0.1183 -0.0353
27200W        W43384   6.654  14.972   3.923  0.0986 -0.1377 -0.3918
27201W        W43385  16.926  12.821   0.969 -0.2543 -0.1703 -0.4639
27202W        W43386   6.516   8.987  14.119 -0.1585 -0.1614 -0.1580
27203W        W43387  12.231  13.297  13.501  0.4039 -0.0917  0.0694
27204W        W43388  16.710   7.695   1.859 -0.3311 -0.0144  0.0142
27205W        W43389  15.237  10.463   3.754 -0.0885 -0.0078  0.1357
27206W        W43390  17.088  11.092  10.520 -0.2299 -0.0440 -0.0325
27207W        W43391   8.786   0.071  14.300 -0.1804 -0.1235 -0.4410
27208W        W43392  10.698  17.137   2.303  0.1736  0.0426  0.1636
27209W        W43393   9.120   4.821  11.758  0.1012 -0.0058 -0.0219
27210W        W43394   6.530   8.086   4.169 -0.1396  0.2411 -0.0538
27211W        W43395  13.748  17.461  13.965 -0.2090  0.0450  0.0307
27212W        W43396   4.181  16.001  13.545 -0.2334  0.1486 -0.2257
27213W        W43397  16.518  19.016  14.456  0.1785  0.1427  0.0398
27214W        W43398  14.401  18.578   3.987  0.1730  0.0912 -0.0079
27215W        W43399  13.044   5.382   1.494  0.2582  0.4134  0.2008
27216W        W43400   3.754   0.512   0.210  0.2158 -0.0063  0.1852
27217W        W43401   7.065   7.453   1.371 -0.1012  0.0293  0.1318
27218W        W43402   1.560   7.819   1.904  0.0592 -0.3535  0.4464
27219W        W43403   8.874   0.279   3.699  0.1879  0.1889  0.2163
27220W        W43404   8.598   8.998  11.476 -0.1024  0.0652 -0.1326
27221W        W43405   4.082   0.581  14.836 -0.0478  0.1187 -0.1081
27222W        W43406  15.375  14.466  14.243  0.0813 -0.0696 -0.1612
27223W        W43407  13.456  15.746   4.735  0.1927  0.0310 -0.4102
27224W        W43408   0.576   3.266   0.770  0.0354  0.1036 -0.1831
27225W        W43409   4.737  14.149  13.485  0.1495  0.1443 -0.0585
27226W        W43410  12.007   3.710   1.508 -0.1724 -0.2788 -0.0338
27227W        W43411   5.940   0.539  12.017  0.1592  0.2500 -0.0354
27228W        W43412   4.244  15.461  14.609 -0.3332  0.1832 -0.3146
27229W        W43413   9.138   9.917  10.945  0.0406 -0.2450 -0.1866
27230W        W43414   3.440   7.671  14.763  0.0348  0.1586 -0.0778
27231W        W43415  18.161   8.712  14.096 -0.2070 -0.0030 -0.0561
27232W        W43416   6.585  15.356   9.944 -0.2018 -0.2362 -0.2876
27233W        W43417  14.431   9.988   1.157  0.2558 -0.0769 -0.1372
27234W        W43418  14.170   7.263   4.125  0.1157  0.1020  0.1859
27235W        W43419  18.067   9.982  13.162 -0.0306 -0.0434  0.3285
27236W        W43420  19.324   3.444  14.448 -0.2095  0.0302  0.0436
27237W        W43421   0.485   2.318   3.426 -0.2822 -0.2593  0.2065
27238W        W43422   9.484  16.754   3.728 -0.0443  0.1308 -0.0141
27239W        W43423   8.313   8.991  14.251 -0.1796  0.2098 -0.1171
27240W        W43424   3.538  13.517   1.677 -0.0380  0.4631 -0.0756
27241W        W43425  19.279   7.984  13.236 -0.1790  0.0131  0.4250
27242W        W43426   6.995   7.681  12.479  0.1939  0.1431  0.1202
27243W        W43427  12.234   5.844   4.477 -0.0143  0.2939 -0.2246
27244W        W43428   5.098   2.279  11.301  0.0573  0.0638  0.1341
27245W        W43429   5.491  11.347  14.526  0.6366  0.1455 -0.0623
27246W        W43430  12.917   9.956  11.711  0.1624  0.2837 -0.2715
27247W        W43431   7.171  12.391  14.932 -0.2932  0.0408 -0.2645
27248W        W43432   2.472  18.554   5.072 -0.0161 -0.2125 -0.1161
27249W        W43433   6.369  12.174  13.262  0.0861 -0.0664 -0.3411
27250W        W43434   4.927  15.918   4.778  0.0989  0.1014  0.1410
27251W        W43435   7.679  14.425   1.904  0.4049  0.2447 -0.0297
27252W        W43436  19.351  13.297   2.508  0.3938 -0.1293 -0.2352
27253W        W43437  15.921   3.949  12.639  0.4113 -0.0955  0.1003
27254W        W43438   5.510  18.042   5.454  0.2540 -0.1355  0.0184
27255W        W43439   5.307   7.252   1.705 -0.3525  0.1072 -0.2252
27256W        W43440  12.320  13.964   2.257 -0.3696 -0.3055  0.2400
27257W        W43441  15.036   9.022  14.156  0.1713 -0.1712 -0.2354
27258W        W43442   3.860   5.601   3.615  0.0395  0.5780  0.1141
27259W        W43443   3.235  16.292  10.762 -0.0315  0.1729 -0.2458
27260W        W43444   3.964  11.941  11.282 -0.4749 -0.3790 -0.1653
27261W        W43445  14.856   4.603   1.033 -0.2756 -0.1234  0.0264
27262W        W43446  12.615   1.426   3.627 -0.2327 -0.1676  0.1786
27263W        W43447   6.378   2.754   5.174 -0.0974 -0.0208  0.2641
27264W        W43448  15.382   4.803  12.760  0.4221 -0.1487  0.0158
27265W        W43449  16.107  13.459   5.667  0.1431 -0.2894 -0.0336
27266W        W43450  15.545  18.190   4.637 -0.1193 -0.1909  0.0908
27267W        W43451   4.738   8.457  13.432  0.0526  0.3502  0.2921
27268W        W43452  12.660   7.417   9.568  0.1903 -0.0825  0.4224
27269W        W43453   3.995   6.537   2.745 -0.1048  0.1976 -0.3766
27270W        W43454   5.490   3.761  12.910 -0.2638 -0.1201  0.0147
27271W        W43455   5.145  12.294  10.818  0.0236  0.3195 -0.1103
27272W        W43456  16.387  15.948   3.040  0.1630 -0.0234  0.2547
27273W        W43457   7.077   2.842  10.741  0.0287  0.1428 -0.0272
27274W        W43458   5.322   5.924   9.274 -0.0965  0.0790  0.1706
27275W        W43459  15.439   0.622   1.281  0.1426  0.0096  0.2091
27276W        W43460  16.702  10.634   4.291 -0.0840  0.1232  0.0906
27277W        W43461   9.820   2.811  13.077 -0.0997 -0.2774 -0.2230
27278W        W43462   1.939  12.911   1.213 -0.1013 -0.1404 -0.2554
27279W        W43463  16.346  16.295  14.413  0.0425  0.2476  0.1341
27280W        W43464  18.329   5.940  13.398  0.0980  0.0054 -0.1368
27281W        W43465  12.442   7.320  14.582  0.1681 -0.0038 -0.0406
27282W        W43466  11.488  17.891  11.422  0.1117 -0.5107  0.0141
27283W        W43467   8.454  12.461  11.083  0.0724 -0.0920 -0.4398
27284W        W43468   5.282   3.583   3.721  0.0287 -0.0633 -0.3055
27285W        W43469   9.913  18.028   9.640 -0.0215  0.1753  0.0867
27286W        W43470   4.558   2.372  11.709  0.0639  0.1290  0.1798
27287W        W43471   9.522   6.550   0.576  0.4169 -0.3314 -0.0562
27288W        W43472  10.458  15.076   3.235  0.3528 -0.1714 -0.0156
27289W        W43473   9.127   8.729  10.678 -0.0922  0.1108 -0.2005
27290W        W43474  14.526   3.559  10.273  0.1849  0.0322  0.1073
27291W        W43475   2.369   7.586  10.914  0.0061 -0.0859 -0.4150
27292W        W43476  15.929  18.069   4.356 -0.0642 -0.2701 -0.3711
27293W        W43477  19.331  17.607   5.290  0.0997 -0.0168 -0.0711
27294W        W43478  18.102   5.555  12.554 -0.1442 -0.0484 -0.2043
27295W        W43479  15.495   7.280  11.353 -0.0651 -0.2711  0.2222
27296W        W43480  10.773   8.702  14.146  0.1116  0.0420  0.2819
27297W        W43481   9.926   9.128   1.682 -0.0117  0.2347 -0.1613
27298W        W43482   6.365   0.452  14.479  0.1168  0.1199  0.0187
27299W        W43483   0.698   6.796  13.376 -0.4551 -0.0131 -0.2124
27300W        W43484  14.649   5.033   5.374 -0.0433  0.2793  0.2343
27301W        W43485  17.705   6.358  11.837 -0.1097 -0.1413  0.0805
27302W        W43486   0.862  11.187  11.286 -0.1760  0.0026  0.1566
27303W        W43487   3.209   4.308  11.286 -0.0881 -0.1789  0.1461
27304W        W43488   9.304  12.785  13.773  0.1931  0.0981 -0.0266
27305W        W43489   0.009   6.404   3.531  0.2148  0.0083 -0.1839
27306W        W43490  11.477   9.650   0.576 -0.1079 -0.0196 -0.1710
27307W        W43491  14.245   2.054   1.960 -0.3273 -0.3405 -0.0837
27308W        W43492  19.181   1.982  12.213 -0.0472 -0.3164 -0.1285
27309W        W43493  18.368  18.966   0.793 -0.3373 -0.4316  0.2036
27310W        W43494  11.727  19.157  10.491  0.0164 -0.0160  0.2466
27311W        W43495  17.565   7.655  10.964 -0.2780  0.1748  0.0506
27312W        W43496  18.857  12.972   2.798 -0.1846  0.1580 -0.0820
27313W        W43497   5.897   9.821   3.728  0.0261  0.0445  0.2892
27314W        W43498   0.093   1.053   4.107 -0.1092 -0.1466 -0.1153
27315W        W43499   7.079   1.715  10.132 -0.2094 -0.1264  0.1836
27316W        W43500  10.675  16.918  14.348 -0.0242 -0.0286  0.1222
27317W        W43501  16.129   6.388  12.902  0.0173  0.0923 -0.1053
27318W        W43502   9.592   2.178   4.001 -0.2654  0.0456  0.0385
27319W        W43503   5.551  13.797   2.806  0.1824  0.4875  0.2901
27320W        W43504   4.943  15.910   1.706  0.1554  0.1515  0.2337
27321W        W43505   7.291  15.803  11.500  0.1743 -0.0682  0.1920
27322W        W43506  17.511   6.012   5.332  0.2482  0.1143  0.2462
27323W        W43507   4.793  11.396  11.284  0.3591  0.2882  0.0815
27324W        W43508   8.971  18.525   4.627  0.2581 -0.0482  0.0675
27325W        W43509   0.174  11.980  14.030  0.2181  0.0400 -0.2859
27326W        W43510   0.804   0.828   1.127 -0.1011  0.0651 -0.0393
27327W        W43511   0.909  19.240   3.928  0.1687  0.0255 -0.0696
27328W        W43512  16.789  13.206  11.066 -0.0068 -0.2147 -0.0252
27329W        W43513  14.301   1.951  12.180  0.0919 -0.2277 -0.3277
27330W        W43514  14.498   2.606  10.041  0.2807 -0.4377  0.3505
27331W        W43515  13.704   8.978  14.831 -0.1834 -0.1757 -0.1833
27332W        W43516   7.150  10.558  13.915 -0.1181  0.0085  0.0039
27333W        W43517   2.362  16.658   4.160  0.0397 -0.0302 -0.1572
27334W        W43518   1.291  14.989  12.555 -0.1796  0.1638  0.1091
27335W        W43519   3.363   1.909   0.719  0.1945  0.1294  0.1720
27336W        W43520   6.706  14.135   3.971  0.3764 -0.4029 -0.2831
27337W        W43521  12.259   5.138   2.979  0.2393 -0.3501  0.5297
27338W        W43522   9.874   8.014   1.875  0.0109  0.0036  0.3935
27339W        W43523   2.564  15.549   3.298 -0.0819 -0.0861  0.1236
27340W        W43524  11.388   0.005  10.941 -0.3602  0.2578 -0.0772
27341W        W43525   7.103  11.755  14.109  0.0345 -0.1645 -0.1735
27342W        W43526   1.588   6.032   4.252  0.1792  0.0096 -0.1008
27343W        W43527  18.805  12.189   1.917  0.1103  0.2109  0.0979
27344W        W43528   9.901   8.144  10.168 -0.1912  0.0178 -0.1273
27345W        W43529   2.030   2.222  11.913  0.0038 -0.0613  0.0411
27346W        W43530   0.332  17.033  13.402  0.0038 -0.3753  0.1172
27347W        W43531   7.017   8.539  11.220 -0.0102  0.3031 -0.1174
27348W        W43532  18.552   4.906   2.157 -0.0146 -0.2676 -0.4302
27349W        W43533  17.821   4.431   1.127  0.1552 -0.2995 -0.1753
27350W        W43534   7.468  18.744  13.040  0.0584  0.0758 -0.1955
27351W        W43535   5.772   8.843   0.398 -0.0885  0.4034 -0.3550
27352W        W43536   5.105  12.226   4.766  0.3251  0.0107 -0.3843
27353W        W43537   2.159  16.390   0.207 -0.0013  0.0404  0.1687
27354W        W43538   1.777  12.530  12.955  0.2426 -0.1065  0.0478
27355W        W43539  14.792  10.427  11.497 -0.0957  0.2523 -0.1453
27356W        W43540  14.377  15.139  13.869 -0.3271 -0.0037  0.0420
27357W        W43541   8.893  12.012  13.447  0.2060 -0.0146 -0.1516
27358W        W43542   1.189   7.037  13.355  0.0514  0.3840 -0.1691
27359W        W43543   6.244   8.816   2.126  0.2660 -0.0785 -0.2292
27360W        W43544  19.310  18.888   1.713 -0.1347 -0.1045 -0.0237
27361W        W43545   4.595  10.158  10.265  0.0010 -0.3897  0.1381
27362W        W43546  18.359   8.373   4.726  0.1713 -0.1514 -0.0825
27363W        W43547  18.757   8.327   1.490 -0.0686  0.2965  0.1743
27364W        W43548   0.043   5.099   4.539  0.0566  0.0349  0.0051
27365W        W43549   5.379   2.231   4.228 -0.2695  0.3080  0.3227
27366W        W43550   6.996   5.695  12.053 -0.4391 -0.4048 -0.1780
27367W        W43551  15.734  13.554  13.468  0.4086  0.0205 -0.0686
27368W        W43552   2.260   2.784   1.126 -0.0595  0.0106  0.1645
27369W        W43553   6.184  18.657  13.714  0.0756 -0.1524 -0.2704
27370W        W43554   6.054  13.683  14.564  0.1120 -0.0305  0.0087
27371W        W43555   4.496  12.888   4.126 -0.3856 -0.1468  0.0688
27372W        W43556  17.561   0.049  13.510 -0.1768 -0.2156 -0.1791
27373W        W43557  11.948  12.906  14.798  0.1584  0.1496 -0.0491
27374W        W43558  17.633   7.522   1.053  0.1047  0.0169 -0.1401
27375W        W43559  16.649  14.358   0.077 -0.1164 -0.4433 -0.3067
27376W        W43560  11.102  13.496   2.068 -0.0369 -0.1062  0.1415
27377W        W43561   1.964  16.119   3.806  0.0151  0.3530  0.1900
27378W        W43562  15.570  16.964  13.602 -0.2677 -0.0765 -0.3905
27379W        W43563  16.390   1.579  13.847 -0.1501 -0.0014  0.0815
27380W        W43564   1.385   4.888   1.154 -0.4242 -0.0792 -0.0416
27381W        W43565  10.406  10.897   3.745 -0.0605  0.1412  0.0258
27382W        W43566   8.532  10.993   3.808  0.1457  0.1582 -0.1401
27383W        W43567  17.133   3.831  12.159  0.4808  0.1809  0.1080
27384W        W43568  18.414  11.359   4.044  0.3900  0.1001  0.1191
27385W        W43569  11.886  10.550  11.586  0.3548  0.1164 -0.0089
27386W        W43570  17.676   5.637   4.332 -0.0244 -0.2898  0.1578
27387W        W43571  17.166   8.764  11.662  0.0276  0.1344  0.0914
27388W        W43572  16.192   7.859  13.524  0.4981  0.1621  0.1097
27389W        W43573   5.340  16.227  13.902  0.1035 -0.0127  0.0693
27390W        W43574   6.603   6.371   4.993  0.0059  0.1054 -0.4865
27391W        W43575   6.116   1.849   5.295 -0.0518 -0.1053  0.2489
27392W        W43576  17.747   6.398   2.486 -0.1433  0.2513  0.0093
27393W        W43577  15.126   6.828   5.242  0.3026  0.1932  0.0271
27394W        W43578   5.562  13.520  10.830  0.1643 -0.1216 -0.0805
27395W        W43579  16.121  18.794  10.882 -0.0798 -0.0095 -0.2735
27396W        W43580   2.977   4.380   4.653  0.2091 -0.1716 -0.1307
27397W        W43581  11.045   6.276   3.705  0.0122 -0.0817 -0.2038
27398W        W43582  11.013  18.011  10.876  0.0159  0.2450  0.3177
27399W        W43583   6.635  15.941   3.230  0.0190 -0.3552 -0.4125
27400W        W43584   4.539   1.905   4.818  0.0319  0.1582 -0.5610
27401W        W43585  14.609   1.619  13.574  0.2537  0.1223  0.2462
27402W        W43586   7.170   7.274  13.383 -0.1813  0.1274 -0.0685
27403W        W43587   4.402  13.272   2.927  0.2616 -0.0943 -0.1164
27404W        W43588   3.181  16.697  13.596  0.1291  0.0868 -0.2176
27405W        W43589  17.966  14.697   0.236  0.1225  0.0091 -0.0129
27406W        W43590   3.857   4.095   4.330 -0.0245  0.3277 -0.0039
27407W        W43591   7.690   4.225  14.206  0.4794  0.0793 -0.1289
27408W        W43592  19.036   9.992  13.286 -0.0954 -0.0568 -0.0897
27409W        W43593   6.253   7.201  12.300  0.4345  0.1215  0.0409
27410W        W43594   4.666  11.986   0.752  0.3143 -0.0846 -0.0496
27411W        W43595  15.958   6.766   2.347  0.0477  0.0883  0.1285
27412W        W43596   5.405   7.214  11.457  0.0501 -0.0262 -0.0168
27413W        W43597  14.354   4.014   3.165 -0.1061 -0.0541  0.1669
27414W        W43598   6.522   9.944   5.692 -0.0659 -0.1190  0.2946
27415W        W43599   0.263  12.282   4.953  0.0826  0.0733  0.4954
27416W        W43600   9.862  16.004   0.989 -0.4002  0.0265  0.0002
27417W        W43601  15.187  11.064  11.239  0.2769 -0.0320 -0.2936
27418W        W43602   5.514   6.426   4.080  0.0849 -0.0572  0.0201
27419W        W43603   4.731   3.508   3.654  0.1013  0.2628 -0.2533
27420W        W43604  11.843   6.295  11.887  0.2763 -0.0908 -0.1088
27421W        W43605  13.204  18.094  13.611 -0.2458 -0.2974  0.0114
27422W        W43606  13.982  11.870  12.938 -0.2794  0.0356  0.1166
27423W        W43607  12.675  15.933   3.139 -0.0371  0.0697  0.0551
27424W        W43608   9.411   4.526  10.633 -0.5409  0.2052 -0.1191
27425W        W43609   1.240  11.411   4.084  0.1366 -0.0613 -0.3096
27426W        W43610   7.108   3.742   1.696  0.4411  0.1952 -0.4433
27427W        W43611  15.684  18.636  10.711 -0.3024 -0.1708  0.1768
27428W        W43612   1.330  12.097   5.125 -0.1794 -0.1411  0.2629
27429W        W43613   5.773  15.902   1.005  0.1689  0.2374 -0.0057
27430W        W43614   4.221   2.108  10.965 -0.0241 -0.2253  0.2498
27431W        W43615   0.848  11.145  14.910 -0.0250  0.0377  0.0151
27432W        W43616  17.164   5.475  10.515 -0.1048 -0.3040  0.1381
27433W        W43617   3.731   3.407   1.798  0.2618  0.1602 -0.0029
27434W        W43618   5.048   0.316  13.677 -0.0206  0.4321  0.4783
27435W        W43619   1.653  15.587   3.499 -0.1549  0.0814 -0.3837
27436W        W43620   7.876   1.232   2.503  0.2352 -0.1616 -0.4232
27437W        W43621   8.644  13.473   2.549 -0.0494  0.0008 -0.0442
27438W        W43622   9.277   4.533   3.046  0.3479  0.0415  0.0633
27439W        W43623  16.103  10.276  10.074  0.2000 -0.0455 -0.2810
27440W        W43624   4.346   1.983   9.916  0.0055  0.2061  0.2279
27441W        W43625  12.085  17.184  11.761  0.2537  0.0282 -0.0732
27442W        W43626   1.518   7.222  11.263  0.2953 -0.3140 -0.2385
27443W        W43627   7.382   2.207   0.871  0.0465 -0.0862 -0.0250
27444W        W43628   7.580  16.553   3.465 -0.1334 -0.0424 -0.1543
27445W        W43629  19.065  18.616  13.779  0.0684  0.2996  0.0692
27446W        W43630   0.723  12.919   2.403  0.1311 -0.1489  0.0959
27447W        W43631   4.659   7.969   9.713 -0.0050  0.0271 -0.3065
27448W        W43632  16.244   3.360   3.284 -0.1480 -0.0603 -0.1316
27449W        W43633   1.361   6.964   1.094  0.0762 -0.3588  0.2207
27450W        W43634   0.564  11.891  11.856  0.1757 -0.1487 -0.0028
27451W        W43635  10.993   0.627   3.465 -0.3514  0.1519  0.3289
27452W        W43636  14.524  17.782   5.238 -0.0961  0.2382  0.2201
27453W        W43637   5.770  19.181  13.019  0.3029  0.2634  0.1390
27454W        W43638  12.195   7.495   9.710  0.0310 -0.1547  0.0928
27455W        W43639   2.021  10.357   4.499 -0.2165 -0.0513  0.1495
27456W        W43640  14.957   4.608   2.785 -0.2540 -0.1550 -0.1282
27457W        W43641   8.860   2.438  12.619  0.1892 -0.0739  0.0219
27458W        W43642   9.046  16.902   3.406 -0.0619  0.0824  0.2224
27459W        W43643   9.854   8.458   2.100 -0.1974  0.3080  0.0659
27460W        W43644   1.687  15.492   1.624 -0.0553  0.2895 -0.1242
27461W        W43645   0.475   7.352  11.331  0.1333  0.0744  0.2668
27462W        W43646  13.852  12.898   3.390 -0.4113 -0.3212  0.0593
27463W        W43647   1.206   4.625   3.627  0.1623  0.1175  0.0599
27464W        W43648   6.254   6.832   0.252 -0.1755  0.2096 -0.2906
27465W        W43649  13.637   7.258  12.326  0.3553  0.0793  0.0424
27466W        W43650   3.330  17.517  12.570  0.1939 -0.4471 -0.2856
27467W        W43651  18.591  19.162   2.906 -0.1551  0.0635  0.1605
27468W        W43652   6.171   4.402  12.695  0.0189  0.2767  0.1187
27469W        W43653   9.683   8.813  11.429 -0.2340 -0.1097  0.0252
27470W        W43654   3.619  15.031  10.259  0.2190 -0.1860 -0.1995
27471W        W43655   1.166  15.085   1.874  0.1778  0.0639 -0.2924
27472W        W43656   1.379  13.867  12.186 -0.2117  0.3534  0.0239
27473W        W43657   9.086   8.611   3.568  0.0707  0.0870  0.0241
27474W        W43658   9.618  16.770   4.631 -0.1903  0.0640 -0.1537
27475W        W43659  15.798  10.554  11.823  0.0860 -0.3900  0.0863
27476W        W43660   0.256   7.038  11.660 -0.0717  0.2067  0.0423
27477W        W43661  17.928   1.436  14.120 -0.0413 -0.1929 -0.0159
27478W        W43662  12.565   6.977  12.023  0.1282  0.1855 -0.2585
27479W        W43663  11.367   5.610   0.049 -0.2222 -0.2833 -0.0788
27480W        W43664   7.557   0.339  10.313  0.0868 -0.0837 -0.1751
27481W        W43665   1.137   6.649  11.901  0.1383 -0.0983  0.1491
27482W        W43666   6.540   6.607  11.981 -0.2536 -0.0915 -0.2023
27483W        W43667  18.597   7.070   2.106 -0.2098  0.1533 -0.1076
27484W        W43668  12.441   8.646   1.893  0.1677 -0.0553 -0.0105
27485W        W43669   9.603  11.297   1.054  0.1911  0.2274  0.2407
27486W        W43670   7.079  15.381   2.748  0.0107 -0.1440  0.2000
27487W        W43671  14.623   0.312   2.364 -0.4266 -0.3333  0.0695
27488W        W43672   4.569  16.151   2.777 -0.0182 -0.2537 -0.0330
27489W        W43673   8.442   6.812  12.571 -0.2346  0.1352  0.0687
27490W        W43674   8.649  13.881  13.085  0.2357 -0.1984  0.1595
27491W        W43675  14.744  10.012  13.086  0.0024  0.0993 -0.0720
27492W        W43676   6.834   6.626  10.268  0.3048 -0.2754  0.0332
27493W        W43677   6.354   8.595   4.477  0.2355 -0.0806 -0.0767
27494W        W43678   1.277   4.646   1.559 -0.1998 -0.0493  0.0860
27495W        W43679  14.698   0.760  14.361 -0.3033  0.2837  0.0075
27496W        W43680   5.363   4.246   0.148 -0.1258  0.0273 -0.1604
27497W        W43681   0.782   1.426   0.477 -0.2063 -0.1292  0.1796
27498W        W43682   8.081  18.543   4.130  0.1164 -0.2991  0.1340
27499W        W43683   2.106  17.142  14.726 -0.3436  0.1192  0.1922
27500W        W43684  12.213  18.290  11.370 -0.0396 -0.2059  0.2091
27501W        W43685  12.466   3.243  14.977 -0.2162  0.2977 -0.2517
27502W        W43686   7.804  10.990  11.133  0.0778 -0.0373 -0.0319
27503W        W43687   2.362  16.437   2.672  0.1271  0.0848 -0.2295
27504W        W43688   9.171  18.516   1.805 -0.0969 -0.2923  0.3344
27505W        W43689   1.000  19.377  11.588  0.1144  0.2427 -0.1206
27506W        W43690  15.612   7.680   4.204  0.1734 -0.2344  0.1282
27507W        W43691  12.313   7.587  13.772  0.1651  0.0714  0.1287
27508W        W43692   8.444   7.622  10.876 -0.1041 -0.0193 -0.1334
27509W        W43693   9.999  19.231   4.150  0.2146  0.1233  0.0879
27510W        W43694   9.433   0.700  12.402 -0.1905  0.1764 -0.0997
27511W        W43695   8.379   4.455  14.697  0.2974 -0.0328  0.1296
27512W        W43696   8.281   7.215  14.223 -0.3848  0.4539  0.0454
27513W        W43697   3.971   8.132  11.714 -0.0793 -0.4602  0.0262
27514W        W43698  18.729   0.548  13.961  0.1114  0.2337 -0.0389
27515W        W43699  11.888   8.150   3.041 -0.2738  0.0616  0.4433
27516W        W43700   4.556   3.057  10.117 -0.2263 -0.3508 -0.0254
27517W        W43701  16.372  13.630   5.228  0.1066  0.1043 -0.2200
27518W        W43702  12.491  19.186   5.023  0.0299 -0.2327 -0.1252
27519W        W43703  13.967   1.479  12.964 -0.7774  0.3066 -0.2041
27520W        W43704  14.368  17.160   1.281 -0.1751 -0.2677 -0.1132
27521W        W43705  13.388  17.002  11.917  0.2297 -0.1023  0.0210
27522W        W43706   6.451   2.039   1.139 -0.2541  0.0970 -0.2265
27523W        W43707  10.073   4.230  10.596  0.2872 -0.1300 -0.2455
27524W        W43708  16.556  13.214  12.463 -0.4672  0.0107 -0.1316
27525W        W43709   6.130   4.209   2.879  0.1928  0.4857 -0.0405
27526W        W43710  11.991   3.296   3.105 -0.0286 -0.1530 -0.2118
27527W        W43711   6.280   7.640   4.047  0.1678  0.2239 -0.1073
27528W        W43712   4.680   6.141   1.170 -0.1599  0.1818 -0.2336
27529W        W43713   4.437  12.179  13.831  0.3099  0.1344 -0.1105
27530W        W43714   4.995  13.298   0.313  0.1441 -0.1689 -0.1677
27531W        W43715   0.197  18.320  12.365 -0.0148 -0.0248 -0.3797
27532W        W43716  16.103   1.978   3.316  0.1188  0.0658 -0.2260
27533W        W43717   6.836  16.005  11.759 -0.0924  0.1195  0.0108
27534W        W43718  16.920  16.572  14.510  0.0425  0.0976  0.0070
27535W        W43719   2.351   0.650  10.575  0.1220  0.0763 -0.1065
27536W        W43720   0.216   6.559   3.965  0.2114 -0.0123  0.0825
27537W        W43721  13.425  15.169   4.027  0.0436 -0.1416  0.2328
27538W        W43722   6.829   6.267   1.067  0.4576 -0.0288 -0.0677
27539W        W43723   5.845  10.401  14.498 -0.2528 -0.0875  0.2974
27540W        W43724   6.257  13.280   2.867  0.0851  0.1044  0.1775
27541W        W43725  17.226   8.539  12.682 -0.1595  0.1265  0.1069
27542W        W43726  17.602   9.170   1.279 -0.2164  0.0651  0.4242
27543W        W43727  15.050   8.382   3.897 -0.0371  0.1051 -0.1638
27544W        W43728  12.301   6.633   1.162 -0.2587 -0.5183  0.2847
27545W        W43729   5.795  12.822   1.946  0.0568  0.0370  0.1336
27546W        W43730   6.553  19.315   4.821 -0.3362  0.0062  0.1167
27547W        W43731  11.666   1.878   9.447 -0.1166  0.0710 -0.5079
27548W        W43732  11.817  13.717  10.816 -0.0756 -0.2159 -0.0248
27549W        W43733  18.812  10.012  12.805  0.0830  0.3423  0.1039
27550W        W43734  17.721   7.398   3.362 -0.0308  0.2096 -0.0768
27551W        W43735  14.413  11.529  14.742  0.2829  0.2563 -0.0166
27552W        W43736   7.888  11.078  13.926  0.0532 -0.3385 -0.1071
27553W        W43737  15.706  14.566   1.209 -0.0410  0.2586 -0.0258
27554W        W43738  11.703   9.254   4.177 -0.0244 -0.0478  0.1610
27555W        W43739  15.897   8.694   4.645  0.1196 -0.0378  0.1050
27556W        W43740  13.736  18.656   3.121 -0.0980  0.0895 -0.2582
27557W        W43741  13.352   5.072  12.150  0.1585 -0.2233 -0.1427
27558W        W43742   8.359  11.675  12.927  0.0719 -0.1848  0.1165
27559W        W43743  14.385  17.949  14.060  0.0729  0.0828 -0.0127
27560W        W43744  17.830  17.899   1.670 -0.1400  0.1698 -0.3397
27561W        W43745  10.417  12.706   3.000 -0.3657 -0.4992  0.0399
27562W        W43746   7.219  15.028  14.697  0.2716 -0.2514  0.4755
27563W        W43747   9.350   9.212  12.735  0.1844  0.1391  0.1949
27564W        W43748   8.693  16.664   2.176 -0.2165 -0.0960  0.1465
27565W        W43749  10.272   1.839   0.752 -0.2474 -0.0706 -0.1617
27566W        W43750   4.689   4.916  14.817 -0.1855  0.2253 -0.1197
27567W        W43751  14.383   4.593   9.575 -0.0232 -0.0757  0.1363
27568W        W43752   2.856   9.902   1.318 -0.1550  0.1794  0.0549
27569W        W43753  13.837   5.242   2.521  0.2423  0.2184  0.3883
27570W        W43754   8.641   4.108   0.401  0.1129  0.0657 -0.0043
27571W        W43755   1.259   0.763   1.337 -0.1217 -0.0053  0.3735
27572W        W43756  19.131   1.315   3.755 -0.1854 -0.0656 -0.1468
27573W        W43757  17.849  13.798   1.209 -0.0578  0.0126  0.2924
27574W        W43758  11.149   3.157  13.470  0.0373 -0.2855 -0.4743
27575W        W43759   7.765   4.011   0.260 -0.2693  0.1173 -0.2170
27576W        W43760   9.267  17.256  13.541  0.0661 -0.1602 -0.0537
27577W        W43761  12.834   0.289  12.169 -0.2039  0.1120  0.1672
27578W        W43762  17.983  14.730   0.736 -0.0404 -0.5290  0.0153
27579W        W43763  18.434   0.398   4.047  0.3182  0.2023 -0.3682
27580W        W43764  11.590   4.956  14.126 -0.0446 -0.2793  0.1078
27581W        W43765  18.305   4.999  14.943  0.1901  0.1647 -0.2422
27582W        W43766  19.065   6.527   1.924  0.2556 -0.0773 -0.0322
27583W        W43767   6.320   3.512  10.803 -0.0771 -0.2530 -0.1485
27584W        W43768   7.848   9.923   1.215  0.0195 -0.2078  0.2678
27585W        W43769  18.219   8.540  12.785  0.1606  0.1564 -0.0190
27586W        W43770   2.835  15.923  11.025  0.1017  0.0167  0.1918
27587W        W43771   0.230   8.704   3.115 -0.0793  0.1007 -0.0699
27588W        W43772  10.611   7.325  13.857  0.0605 -0.1787 -0.2029
27589W        W43773  16.227  14.229   3.301 -0.1207 -0.2824  0.2780
27590W        W43774  13.741   8.158  12.732  0.0057  0.2813 -0.0834
27591W        W43775   4.325   4.980   1.158  0.1526  0.1195  0.0267
27592W        W43776  15.180  13.182  12.321 -0.1012  0.0070  0.1157
27593W        W43777   3.766   3.311  11.735  0.1058 -0.0331 -0.0235
27594W        W43778   5.164  16.250   0.874  0.1095 -0.4849 -0.1779
27595W        W43779   6.013  12.244  10.512  0.0819 -0.3780  0.2707
27596W        W43780   1.304   5.853   2.302  0.6458 -0.2979  0.0766
27597W        W43781  14.461  10.232   1.764 -0.2169  0.0106  0.3453
27598W        W43782  18.271   9.787  13.590  0.1209  0.1167 -0.1163
27599W        W43783   8.400  17.663   2.809  0.4124  0.0100  0.2515
27600W        W43784  14.714  15.449   0.079 -0.2264 -0.2599  0.1204
27601W        W43785  17.564   9.534   5.352 -0.4662  0.1085 -0.0782
27602W        W43786  11.026  15.594   0.826 -0.0764 -0.1412  0.1690
27603W        W43787  10.550   2.087  14.967  0.3101  0.3279  0.0140
27604W        W43788  15.092   9.903  14.273 -0.0228 -0.4134 -0.0218
27605W        W43789   4.869   0.690   4.400 -0.0349 -0.0458  0.0003
27606W        W43790   6.779  16.851  14.815  0.2493  0.1441  0.2734
27607W        W43791   9.656  17.043  14.419 -0.2806 -0.2635 -0.1888
27608W        W43792  10.792  13.223   4.885  0.0512 -0.0236 -0.0601
27609W        W43793   5.913  12.650  13.470 -0.0962 -0.1083 -0.3529
27610W        W43794   7.531   7.084   4.085  0.1350  0.0726 -0.0070
27611W        W43795   8.812  16.221  11.538  0.0503 -0.0936 -0.0306
27612W        W43796  13.315   8.396   1.012  0.0675  0.0849 -0.1619
27613W        W43797   5.887  16.679   2.730 -0.3279 -0.1248  0.3392
27614W        W43798  19.333   4.579  11.351  0.0990  0.0789  0.3999
27615W        W43799   2.104  12.954  13.620  0.0418 -0.1671 -0.0085
27616W        W43800  19.022  10.016   3.930 -0.2098  0.0569  0.1305
27617W        W43801   1.911   9.892   1.743  0.1500  0.0531 -0.1695
27618W        W43802   3.760  12.011   0.314  0.0959 -0.1457  0.2638
27619W        W43803  11.586  17.149  11.758 -0.0636 -0.1756  0.0730
27620W        W43804  13.057  14.239  13.122  0.1390 -0.1916 -0.3565
27621W        W43805  18.109  10.045   5.156 -0.1181 -0.2461  0.2819
27622W        W43806   8.682  11.100  10.680  0.0163 -0.0231 -0.2997
27623W        W43807  13.404   1.499  11.749 -0.1082  0.0309 -0.2465
27624W        W43808  15.161   9.104  11.858  0.2034  0.1173 -0.0064
27625W        W43809  12.636  15.460   0.359 -0.0759  0.0466  0.0161
27626W        W43810  17.683  10.971  11.981 -0.2321 -0.0258  0.2022
27627W        W43811  18.541   5.089   3.357  0.2779 -0.2617  0.0556
27628W        W43812  12.503   2.081  11.813  0.1588  0.0793 -0.0630
27629W        W43813   8.794   1.940   1.967 -0.4671 -0.1740 -0.2965
27630W        W43814   5.879  15.348   1.761 -0.1159 -0.0142 -0.0675
27631W        W43815   4.338   6.341   2.177  0.1174 -0.0331 -0.0452
27632W        W43816  16.993   8.304  14.064  0.0295 -0.0748  0.0863
27633W        W43817  12.905  11.293   3.515 -0.0018 -0.0352  0.0422
27634W        W43818  14.154   1.130  13.567 -0.0298 -0.1082 -0.1341
27635W        W43819  12.305   1.996   0.603 -0.2628 -0.0564  0.2563
27636W        W43820  16.440  17.287  13.121  0.1812 -0.0187  0.0956
27637W        W43821   9.090  19.284  11.486 -0.1197  0.1974 -0.3223
27638W        W43822  16.720  18.697   5.169 -0.1955 -0.0263 -0.0684
27639W        W43823   8.368  15.259   3.257  0.0756 -0.1255 -0.2402
27640W        W43824   4.397   0.590   3.636 -0.0036  0.4457  0.1319
27641W        W43825   8.506  15.115   4.202 -0.0695 -0.1175  0.0819
27642W        W43826  16.898   8.408  10.108 -0.5039  0.4918  0.0206
27643W        W43827  11.739   0.200   0.403 -0.1633 -0.1068  0.2378
27644W        W43828  18.162  16.733   3.097 -0.2920  0.1285 -0.1081
27645W        W43829  16.259  17.678  14.848  0.0176 -0.1501  0.1533
27646W        W43830   1.061   6.372   3.099 -0.0585  0.2405  0.0473
27647W        W43831   2.143   4.791   3.502 -0.2736 -0.0473 -0.3581
27648W        W43832  10.294  10.857  11.205 -0.2519  0.1688 -0.3932
27649W        W43833   6.082  18.924   3.003 -0.3301 -0.3037 -0.2292
27650W        W43834   2.682   1.693  11.636 -0.0340  0.1180  0.0640
27651W        W43835  15.515  12.951   0.521 -0.1889  0.1279 -0.0966
27652W        W43836   1.914   2.235   5.362  0.1315 -0.2538  0.2688
27653W        W43837  16.674  14.275  14.403  0.1633 -0.0649 -0.2260
27654W        W43838  17.676  16.079  10.925  0.1500  0.1046 -0.0513
27655W        W43839   6.476  10.786   0.165 -0.2584 -0.0107  0.0471
27656W        W43840   1.866   6.267  13.904  0.0191 -0.2370  0.2979
27657W        W43841   2.753  12.392  11.390  0.0653  0.0643  0.2455
27658W        W43842   7.543   6.575  14.034  0.0431  0.1563  0.1360
27659W        W43843   6.259   1.763  13.255  0.0663 -0.2303  0.2046
27660W        W43844  18.550  13.887   3.183 -0.4758 -0.2560 -0.0418
27661W        W43845   8.845  18.634   2.793  0.0131 -0.0430  0.1782
27662W        W43846  12.885  12.423   2.131  0.2366 -0.0375  0.0949
27663W        W43847   2.002   2.129  13.508  0.2000  0.0960  0.0676
27664W        W43848  17.905   6.242  13.533 -0.2090 -0.0928 -0.2480
27665W        W43849   2.966  16.867   0.084 -0.1178 -0.0366 -0.0305
27666W        W43850   4.484   2.141   3.933  0.1493 -0.1741  0.1169
27667W        W43851  13.867   3.395   0.483  0.3251 -0.2328  0.2123
27668W        W43852   1.602  17.555  11.286  0.0789  0.1711  0.2319
27669W        W43853   4.843  13.325   2.541 -0.1720 -0.1313 -0.0713
27670W        W43854  19.245   8.179  14.518 -0.1416  0.0104  0.0369
27671W        W43855   4.556  13.411  12.956  0.0385  0.0397  0.0514
27672W        W43856  15.534   9.376   2.685  0.0292  0.2744 -0.1392
27673W        W43857  18.790   9.772  14.279 -0.2790  0.0421 -0.0384
27674W        W43858   4.128  12.955  10.327  0.0606  0.3352  0.1533
27675W        W43859   9.672   1.244   1.278 -0.0438 -0.1504  0.2104
27676W        W43860   2.118   3.606  12.127 -0.0302  0.1327  0.1038
27677W        W43861   7.536   8.253  12.719 -0.2437 -0.1008 -0.2187
27678W        W43862   0.172  16.654  14.236  0.1704  0.0335  0.0983
27679W        W43863   1.377  16.629  14.930  0.2096  0.1657 -0.2962
27680W        W43864   5.399  16.900  11.242  0.1049  0.0822 -0.0246
27681W        W43865  12.682   4.875   0.490 -0.2046 -0.1841  0.0003
27682W        W43866  12.442   4.138   0.153 -0.1486  0.0703  0.2063
27683W        W43867  17.066   7.793  12.751  0.2543  0.0088  0.0517
27684W        W43868  17.164   9.346   1.453  0.2084 -0.3989  0.0816
27685W        W43869   5.512   8.919   3.965 -0.2673 -0.1997  0.0365
27686W        W43870   6.856   5.405   3.047  0.0731  0.0330  0.0090
27687W        W43871   3.676   7.151   3.923  0.1046 -0.0880  0.1176
27688W        W43872  14.190  17.580   2.863  0.1981  0.5237 -0.3289
27689W        W43873   3.443  14.353   2.773  0.1627 -0.0923  0.4047
27690W        W43874  13.373   8.597  14.927  0.3493 -0.0797  0.1054
27691W        W43875  16.343  18.125   0.521 -0.2041  0.1619 -0.0943
27692W        W43876   8.693   3.203   1.584  0.1035 -0.2556  0.0816
27693W        W43877   4.005  14.493   0.872  0.2181 -0.0263  0.0503
27694W        W43878   8.392   3.899   4.136  0.3769  0.3899 -0.1659
27695W        W43879  14.677  15.879   5.886  0.0058 -0.1710  0.0808
27696W        W43880   9.520  16.355  13.255  0.0687  0.1108 -0.0279
27697W        W43881   4.660   4.320  10.560  0.1965  0.3165 -0.1887
27698W        W43882   5.520   0.385  13.455  0.3224 -0.1918  0.1574
27699W        W43883   8.646  16.051  14.276  0.1286  0.0056 -0.1189
27700W        W43884  13.069   3.362  11.363  0.0870  0.2636  0.0531
27701W        W43885  15.066  14.337   4.496  0.0725  0.1245  0.1263
27702W        W43886  15.328   5.715  13.326 -0.2697 -0.0541 -0.4836
27703W        W43887   0.935   9.025  13.640 -0.2140 -0.0065  0.3169
27704W        W43888   5.641   5.095   1.038  0.0926 -0.1168  0.1134
27705W        W43889  17.804  15.028  13.172 -0.2521 -0.0140  0.0043
27706W        W43890  15.023  11.339  12.668 -0.1020 -0.1579  0.1353
27707W        W43891   5.057  16.088  11.010 -0.2050  0.0694 -0.2154
27708W        W43892   8.177   3.714   2.250  0.1028 -0.1738 -0.2515
27709W        W43893  10.731   9.498   9.563  0.0634 -0.0976  0.1822
27710W        W43894  11.519  18.675   4.601 -0.0562  0.1694 -0.1307
27711W        W43895  10.458   8.339   5.675 -0.4585 -0.1011 -0.4964
27712W        W43896  13.455   1.240  13.817 -0.1491 -0.3328  0.0162
27713W        W43897  12.710  13.718   2.559  0.3568 -0.4313  0.3077
27714W        W43898  16.502  16.196   2.227 -0.1985  0.2019 -0.0964
27715W        W43899   5.496  16.187  11.292  0.2138  0.0459  0.1092
27716W        W43900  16.386   2.423   3.920 -0.1782 -0.0092  0.0881
27717W        W43901   5.672   9.774   4.163  0.3811 -0.2513 -0.3096
27718W        W43902   5.830   4.653   1.374  0.1759 -0.0313  0.0240
27719W        W43903  11.354  10.335   4.117 -0.2306 -0.0409 -0.2244
27720W        W43904  11.271   0.290  14.960 -0.0601 -0.0269 -0.0902
27721W        W43905  19.302  18.663   1.089 -0.2521  0.0592  0.5473
27722W        W43906  11.250   9.693  10.111  0.2530  0.2638 -0.0826
27723W        W43907  15.461  15.419  11.655 -0.2470 -0.1861 -0.2745
27724W        W43908  18.434   9.587   3.010  0.1071  0.1334 -0.0355
27725W        W43909  13.389  19.204   4.653  0.4605  0.2662  0.0854
27726W        W43910   7.733  10.187   1.926 -0.3248  0.2810 -0.0546
27727W        W43911   5.165  17.404   4.134 -0.0131 -0.0376 -0.2257
27728W        W43912   6.491   4.551  12.345 -0.1552  0.1997 -0.3196
27729W        W43913   9.535  10.274   4.201  0.0128 -0.4578 -0.4506
27730W        W43914   2.810   2.678   0.981 -0.3710  0.3050  0.0740
27731W        W43915   7.562   1.867  14.720 -0.1598  0.3189  0.3494
27732W        W43916   2.328   8.859   4.182 -0.0124 -0.0345 -0.0650
27733W        W43917   1.946  16.390  12.789  0.2495 -0.0336 -0.1227
27734W        W43918   9.715  15.060  12.425 -0.1299 -0.3156  0.0469
27735W        W43919  14.785   8.213  10.960 -0.4354 -0.2143  0.0909
27736W        W43920  19.197   7.593   1.851 -0.1682  0.1050 -0.2033
27737W        W43921  11.386   5.442   4.546  0.2282 -0.3866 -0.0079
27738W        W43922  10.587   5.972   0.314 -0.0265 -0.1892  0.0170
27739W        W43923  11.040  13.949  11.935  0.2499  0.3934 -0.2115
27740W        W43924   5.115  12.891   5.437  0.2221  0.0317  0.1498
27741W        W43925  13.567   0.626   4.630 -0.0534  0.0164  0.1269
27742W        W43926   5.047   6.860  13.581 -0.0018  0.1903  0.0003
27743W        W43927  10.358   5.246  11.235  0.2631  0.1699 -0.0905
27744W        W43928  18.427  11.720   1.718  0.3476 -0.0482 -0.2665
27745W        W43929  13.316   7.942  12.632  0.1473  0.3333  0.1796
27746W        W43930   2.042  13.194   2.190  0.3056 -0.0326  0.0263
27747W        W43931  14.921   4.485   3.687 -0.4068  0.1626  0.0759
27748W        W43932  11.707  10.303   3.804 -0.0314 -0.1864  0.1528
27749W        W43933  11.430   1.624   2.677 -0.2469  0.0357  0.4286
27750W        W43934  13.217  10.637   3.898  0.1721 -0.1601 -0.3222
27751W        W43935  18.944   3.815  11.670  0.1199  0.1304 -0.1203
27752W        W43936  17.599  15.021   4.793  0.0300 -0.0563  0.0220
27753W        W43937  10.923   1.381   4.334  0.3882  0.0110  0.2768
27754W        W43938   6.319  15.120  10.295  0.0370 -0.2655  0.2999
27755W        W43939  15.855  11.796  12.253  0.1536 -0.0460  0.0820
27756W        W43940   2.100   5.689  10.704 -0.0017 -0.2463  0.0602
27757W        W43941   7.263   0.894  14.517 -0.2292  0.0922 -0.2624
27758W        W43942  10.914   2.027   9.553 -0.0543  0.6197  0.0661
27759W        W43943  14.695  11.247   1.445 -0.0011  0.0505 -0.1818
27760W        W43944   1.412  10.347   0.541  0.0888  0.2357  0.2322
27761W        W43945   9.140  14.682  14.127  0.4024 -0.2722 -0.0210
27762W        W43946  17.861   7.621   0.263  0.3971  0.0585 -0.2354
27763W        W43947  15.561   9.595  14.763  0.0799  0.2144  0.2116
27764W        W43948  11.313  10.167   2.896 -0.1927  0.1151 -0.0846
27765W        W43949   8.874   0.595  10.601  0.1543  0.0997  0.1031
27766W        W43950  12.101   5.674  13.363  0.0890  0.0357  0.1752
27767W        W43951   1.589   4.108   0.004  0.3328  0.0213  0.2128
27768W        W43952  11.141  10.224   3.654 -0.3291 -0.0365 -0.1253
27769W        W43953  14.555  14.072  13.985  0.3169  0.2940 -0.0110
27770W        W43954   8.447  12.988  14.844 -0.3116  0.3570 -0.0070
27771W        W43955  18.224   9.083   0.931 -0.1168  0.0999 -0.1285
27772W        W43956  17.353   8.417   1.535  0.0220 -0.1093 -0.0141
27773W        W43957  18.866   8.035  11.034 -0.1146 -0.1476 -0.2772
27774W        W43958   2.171   9.524  14.652 -0.4557 -0.1471 -0.0063
27775W        W43959  18.693   1.126   3.437  0.0204 -0.1767  0.2848
27776W        W43960  13.738  15.184  10.976 -0.0544 -0.2107 -0.1040
27777W        W43961   3.045   2.150   2.365  0.1436  0.0212  0.0187
27778W        W43962   5.702  13.698   0.830  0.1255  0.0776  0.0795
27779W        W43963  12.192   9.186  11.209  0.0510 -0.1126  0.2828
27780W        W43964  13.307   9.806  14.083 -0.3086  0.1750 -0.1680
27781W        W43965  13.584   5.893   1.003 -0.1368  0.2716 -0.2373
27782W        W43966   8.085  11.470   5.388  0.2612  0.3860 -0.2187
27783W        W43967   3.465  12.144  12.086  0.0477 -0.2827 -0.0926
27784W        W43968   7.449   1.600  14.212 -0.0658  0.1199  0.3837
27785W        W43969   5.205   8.178   0.212 -0.0513  0.0247 -0.1679
27786W        W43970  10.116   0.833  10.751  0.1446 -0.0526 -0.0377
27787W        W43971   0.471   3.893   0.694  0.1058  0.0353 -0.1460
27788W        W43972  14.066   4.125   0.887 -0.1109 -0.2120 -0.2697
27789W        W43973  13.751   7.528  11.466 -0.1002 -0.0623 -0.2641
27790W        W43974   5.961  15.850  12.603  0.1257  0.2851 -0.0751
27791W        W43975   3.567   3.796  11.896 -0.0809 -0.0439 -0.1341
27792W        W43976  10.309   5.695  11.402 -0.1287 -0.0203 -0.1354
27793W        W43977   4.850  16.071   0.004 -0.0075 -0.0755 -0.0192
27794W        W43978   3.550  17.753   9.557  0.4256 -0.1652 -0.0732
27795W        W43979  10.512   2.466  10.742 -0.0563  0.1561 -0.0561
27796W        W43980  14.909   8.362   0.259  0.0502  0.4348  0.2650
27797W        W43981   8.981   9.139   3.810  0.1794  0.0237  0.0385
27798W        W43982  17.612  18.668  14.289 -0.1104  0.2617  0.1158
27799W        W43983   4.715   1.906  11.364  0.0139 -0.3188  0.1272
27800W        W43984  14.498  18.629   0.883 -0.0932 -0.0296 -0.0726
27801W        W43985   9.340   2.537   3.502 -0.2682 -0.2791 -0.5068
27802W        W43986  14.340   9.505  11.370 -0.2280  0.3090  0.1132
27803W        W43987  15.233   6.144   0.833 -0.0849  0.0611 -0.1557
27804W        W43988  14.506  19.160   3.372  0.3441  0.0069  0.0301
27805W        W43989  12.034  11.513   3.959  0.0511 -0.2119 -0.0226
27806W        W43990   6.781   7.033   1.645 -0.1695 -0.1124  0.4445
27807W        W43991  16.458  12.558  14.283 -0.0737  0.1754 -0.2196
27808W        W43992  10.329   6.028  12.484 -0.2045  0.0615  0.0617
27809W        W43993   4.235  15.769   0.401  0.1482 -0.0770  0.2936
27810W        W43994  13.508   1.282   2.170  0.2116  0.0558 -0.1433
27811W        W43995   6.979  18.921  13.082  0.0249 -0.1221 -0.1041
27812W        W43996  15.303  17.410  11.547 -0.1195  0.5432 -0.2348
27813W        W43997   9.948  15.833  13.016  0.0823  0.0414  0.0085
27814W        W43998  11.111  11.793  14.571 -0.1122  0.0802  0.3213
27815W        W43999   1.487   3.797   4.441 -0.2517  0.1426  0.4295
27816W        W44000   2.408  13.954   0.444 -0.1003 -0.1699  0.2310
27817W        W44001   6.986  13.025   1.200 -0.0882  0.1888  0.0266
27818W        W44002   8.846  13.212   4.539 -0.0664  0.2343  0.1416
27819W        W44003   4.363   0.798  14.438  0.1325  0.1414  0.1577
27820W        W44004   7.724  17.797   1.277  0.1930  0.0958 -0.1063
27821W        W44005   9.919  12.347  13.689 -0.0795 -0.5051 -0.3153
27822W        W44006   3.907   1.036  10.738  0.0459  0.1329 -0.1865
27823W        W44007  15.389  17.943  11.631 -0.1768  0.1086  0.1694
27824W        W44008  12.298   7.270   4.938  0.1694 -0.1446  0.0460
27825W        W44009   1.649   7.239   3.943 -0.2965 -0.0504 -0.0641
27826W        W44010  13.834   9.303   0.286 -0.0551 -0.0195  0.1233
27827W        W44011  16.302  14.464   4.608 -0.0320  0.0464 -0.1597
27828W        W44012  12.378  12.010  12.281 -0.1011  0.0515  0.3126
27829W        W44013  11.278   1.020   0.660  0.0985 -0.0282  0.0568
27830W        W44014  11.401  12.113   5.427  0.0617  0.2146 -0.1769
27831W        W44015  13.973  16.138  12.873 -0.0001  0.1023 -0.0627
27832W        W44016  13.127  15.367  14.942  0.0382  0.1731  0.0028
27833W        W44017   7.480  10.250  14.221 -0.3967  0.2867  0.0283
27834W        W44018  10.663  12.744  14.798 -0.0850 -0.1257 -0.3154
27835W        W44019   0.723   3.489   1.931  0.3989  0.2925  0.1535
27836W        W44020  12.243   5.784   5.281 -0.0810 -0.1702  0.2484
27837W        W44021  10.309   9.136   1.221  0.3962 -0.2097 -0.0787
27838W        W44022   1.936  15.468   2.173 -0.0057 -0.1459 -0.0121
27839W        W44023   6.742   1.843   2.637 -0.1257  0.3709  0.0200
27840W        W44024   4.801   8.620  10.854 -0.0217  0.0607 -0.2259
27841W        W44025   4.987   4.154  11.838 -0.0917 -0.0068  0.1269
27842W        W44026   4.263   0.936   1.012 -0.1721 -0.2073  0.2142
27843W        W44027  16.822  10.439  11.032 -0.3467  0.0643 -0.3632
27844W        W44028  16.373  14.866   1.762  0.0190  0.2812 -0.0064
27845W        W44029   9.910  11.460  12.509 -0.3466 -0.1663  0.1502
27846W        W44030  16.656   5.394  11.862  0.1329 -0.0087  0.0729
27847W        W44031  14.584   9.362   0.883  0.1299 -0.0089  0.1035
27848W        W44032  16.093  18.971   3.767  0.0950  0.0195  0.2413
27849W        W44033   3.894  14.028   0.629  0.0002 -0.1922  0.2559
27850W        W44034  19.203  17.235   4.221 -0.0181 -0.0497  0.5200
27851W        W44035  11.312   1.020  13.887 -0.0409 -0.2385 -0.2865
27852W        W44036   3.228  12.303  11.572  0.1492 -0.2443 -0.2471
27853W        W44037  14.559  12.845  11.605  0.0650 -0.1787  0.1404
27854W        W44038  14.481  18.294   3.345 -0.0352  0.1048 -0.0779
27855W        W44039   7.467   6.571  11.169 -0.2358  0.1399 -0.0433
27856W        W44040  18.600  13.018  10.984  0.0716 -0.6138 -0.1711
27857W        W44041  10.499   8.582  13.459 -0.1628  0.2080  0.3515
27858W        W44042   0.374   2.607  12.299  0.0424  0.0246  0.1416
27859W        W44043   8.634   3.834  10.617  0.1531  0.0330 -0.0905
27860W        W44044  18.562  18.171   3.039  0.0300 -0.1262 -0.3990
27861W        W44045   5.899  14.397  13.385 -0.3257 -0.0327  0.2887
27862W        W44046   4.571  14.934  11.388  0.0068 -0.1378  0.0970
27863W        W44047   4.367  10.341   4.545 -0.0585  0.3902 -0.0808
27864W        W44048  12.206   1.155  12.753 -0.1008 -0.0205 -0.0504
27865W        W44049  13.853  11.138   0.928 -0.0393  0.0044 -0.1403
27866W        W44050   7.523  11.604  12.514  0.0620 -0.2216  0.0269
27867W        W44051  12.003   0.990  13.391  0.0481 -0.1700 -0.3262
27868W        W44052   7.512   1.032   3.906  0.1319 -0.0751  0.5067
27869W        W44053   2.704  10.029   1.921  0.0164  0.2327 -0.0932
27870W        W44054  11.105   4.187  14.729 -0.2334  0.0477 -0.0828
27871W        W44055   6.663  13.132  13.789 -0.1149  0.1677  0.1463
27872W        W44056  14.846  12.249  13.886 -0.0225 -0.0779  0.0384
27873W        W44057  12.067  16.493  12.025  0.1241  0.0204 -0.1203
27874W        W44058   0.472  10.718  14.211  0.0550  0.1147 -0.2183
27875W        W44059   2.276   1.872  12.846 -0.1838 -0.0346  0.0606
27876W        W44060   8.869  15.969  10.681 -0.1537 -0.2000 -0.0479
27877W        W44061  14.606  14.500  14.925  0.0225 -0.1908 -0.5121
27878W        W44062  18.009   8.797   1.937  0.1652 -0.0949  0.0361
27879W        W44063  19.104   3.361   0.348  0.2079  0.0392 -0.0930
27880W        W44064  16.788   3.506  12.340 -0.0659 -0.0618  0.0151
27881W        W44065   5.849  11.440  14.808  0.1280  0.3445 -0.2505
27882W        W44066  14.897   5.582   3.041  0.2295  0.0380 -0.1151
27883W        W44067  13.997   1.831   1.414 -0.2314 -0.1525 -0.0795
27884W        W44068  13.198  16.162   3.939 -0.1006  0.6252 -0.3657
27885W        W44069   7.748   3.481   4.402  0.1366 -0.3396 -0.0301
27886W        W44070   5.479   6.145  14.634  0.4801  0.1274  0.2441
27887W        W44071  16.796  10.622   3.003 -0.0540 -0.4810 -0.0040
27888W        W44072   9.369   0.972   5.383  0.0509  0.0822  0.1772
27889W        W44073   9.218  12.611   3.899  0.2594  0.1547 -0.2090
27890W        W44074   6.634  10.596  13.644  0.4700 -0.0144  0.0883
27891W        W44075  16.408  17.827   1.446 -0.1227  0.0137  0.0193
27892W        W44076  18.201   1.777  14.406  0.1170 -0.1958 -0.0741
27893W        W44077  15.809   0.577  11.672  0.0067 -0.4369  0.0499
27894W        W44078   8.126   2.441  13.928  0.1534  0.0676  0.1312
27895W        W44079   4.811   2.558   2.011  0.0762  0.0624 -0.4127
27896W        W44080   7.478  19.170   4.487  0.2551 -0.1861  0.1469
27897W        W44081  16.056   3.661   1.868 -0.3220 -0.0289 -0.1450
27898W        W44082  12.034   9.349  11.750  0.1215  0.1035  0.2367
27899W        W44083  15.873   6.089  10.045  0.1254  0.0947 -0.0647
27900W        W44084  17.628  16.314   0.795 -0.3864 -0.4380  0.3375
27901W        W44085   5.205   0.087  13.245 -0.0279  0.0056  0.1058
27902W        W44086   3.272  14.870  12.687  0.2951  0.1769  0.2117
27903W        W44087  16.424   8.849  14.229 -0.2285 -0.3430 -0.1705
27904W        W44088   4.484  18.369   2.676 -0.4544 -0.1244 -0.0005
27905W        W44089  17.024   6.090  11.733  0.0215  0.1368 -0.0348
27906W        W44090   5.767   3.900   0.195  0.0682 -0.2484  0.2647
27907W        W44091   0.460  14.006  11.743 -0.2073  0.0266  0.0172
27908W        W44092   5.346   3.770   0.008  0.3196 -0.2946 -0.2661
27909W        W44093  15.952   4.181   2.659 -0.1483  0.0419 -0.3500
27910W        W44094   3.597   2.874   4.357  0.2408  0.2518 -0.1448
27911W        W44095   1.698  11.500  13.167  0.1042  0.2264  0.0752
27912W        W44096   5.556   1.439   1.319 -0.0666  0.3254 -0.0808
27913W        W44097  18.318  15.119   5.047  0.1804 -0.0013  0.1122
27914W        W44098   1.621  19.032   0.309 -0.0362  0.1068 -0.3803
27915W        W44099   8.797   7.849  10.612 -0.3327 -0.1010 -0.1577
27916W        W44100  12.722  14.008  12.142  0.4308 -0.2769  0.4717
27917W        W44101  12.753   4.009   4.667  0.1239 -0.0884  0.4062
27918W        W44102   7.653  16.079  11.212 -0.0289 -0.2391  0.1524
27919W        W44103  13.965  16.961  11.814  0.1250 -0.0148 -0.0861
27920W        W44104  17.535   7.874  11.480 -0.0250 -0.1967  0.0617
27921W        W44105  13.543   1.874  13.832 -0.0648 -0.4777  0.0859
27922W        W44106   5.023   8.221   0.714  0.0001 -0.0001  0.1496
27923W        W44107   1.578  16.374  12.453 -0.0109  0.1397 -0.2606
27924W        W44108   6.836   3.629   0.722  0.2809 -0.1937 -0.0259
27925W        W44109   0.163  13.211  10.738  0.1540  0.4270  0.0589
27926W        W44110   8.029  12.139  13.307  0.0583 -0.1176  0.3013
27927W        W44111  16.601  18.436   2.313  0.3244 -0.1516  0.0259
27928W        W44112  13.356   8.777  13.308  0.2656 -0.1912 -0.2560
27929W        W44113   7.569   2.819   0.070  0.2114 -0.0101 -0.2533
27930W        W44114  13.454   5.821   3.285 -0.2960 -0.1975  0.3894
27931W        W44115   3.776  10.150  12.344  0.2875 -0.3407  0.2278
27932W        W44116   8.370  10.859  11.707 -0.2806  0.0680 -0.2043
27933W        W44117   0.673   2.561  13.320  0.1517 -0.1505 -0.0088
27934W        W44118  10.345  17.972  11.581 -0.3200  0.0504  0.3232
27935W        W44119  17.804  17.222  13.515 -0.1112  0.2242  0.0799
27936W        W44120   7.421  18.451  11.630 -0.2058 -0.2528 -0.2975
27937W        W44121   7.132   5.680   0.580  0.0455 -0.0845 -0.1153
27938W        W44122   6.630  13.863   5.562 -0.0344  0.1218 -0.0403
27939W        W44123   7.842  17.197   4.124  0.0231 -0.0407 -0.3587
27940W        W44124   1.452  14.333   4.224  0.1636  0.2195 -0.1602
27941W        W44125   8.745   5.248   2.428 -0.1027 -0.1333 -0.2815
27942W        W44126  13.764  11.543  13.350  0.0375 -0.1372 -0.2497
27943W        W44127   3.413   2.536   2.228 -0.1624 -0.2271  0.0186
27944W        W44128  15.823  13.802  12.599  0.2066  0.0379 -0.1373
27945W        W44129  14.103   1.032   2.117  0.2198  0.2897  0.1136
27946W        W44130  12.631  14.790  13.518  0.1472  0.1339 -0.0946
27947W        W44131   9.317   9.538   3.048 -0.0700 -0.0084 -0.1374
27948W        W44132  16.514   3.027  14.969  0.0007 -0.1765 -0.0049
27949W        W44133   7.842   9.182  14.267 -0.1045 -0.1764 -0.1253
27950W        W44134  12.542   0.628  10.249  0.0462 -0.3476  0.0365
27951W        W44135  12.470   1.889   4.920 -0.3865  0.3031  0.0881
27952W        W44136   6.315   7.799  11.423  0.2671 -0.4522 -0.0887
27953W        W44137   2.521  16.794   3.624  0.0682  0.0049 -0.3581
27954W        W44138  14.482   3.597  14.201 -0.1150  0.1929  0.0142
27955W        W44139  16.221   0.543  10.517  0.4347 -0.0007  0.1573
27956W        W44140  18.690   6.584  13.863  0.3113  0.0335  0.1252
27957W        W44141  14.768   5.207   1.594 -0.0436  0.0085 -0.0480
27958W        W44142  12.358  10.651  12.358  0.0128  0.1317 -0.2223
27959W        W44143   2.993  13.903  12.436 -0.2465  0.3612 -0.0841
27960W        W44144  14.045  18.398  10.631  0.0087 -0.1455 -0.1473
27961W        W44145   9.346   4.316   4.607 -0.0792 -0.0282 -0.0824
27962W        W44146  17.065   6.612   1.211  0.2747  0.4342  0.0035
27963W        W44147  15.781   2.914  12.515 -0.3528  0.2690 -0.0059
27964W        W44148  17.975   3.203   2.842 -0.1526 -0.2801 -0.1475
27965W        W44149   9.513  14.029   3.974 -0.2492 -0.0489  0.0453
27966W        W44150   2.061   4.768  10.630  0.0149  0.0920 -0.1363
27967W        W44151  12.996   2.875  11.206  0.1180 -0.1217  0.3043
27968W        W44152   3.222  10.238   0.407  0.2920  0.0813 -0.3648
27969W        W44153   0.819   7.726  14.810  0.1612  0.0078  0.1346
27970W        W44154  11.007  16.852   3.015 -0.0106 -0.2465  0.1170
27971W        W44155  17.084   0.464   5.263 -0.1446  0.1036  0.1194
27972W        W44156  17.454  16.764   4.499 -0.2319 -0.0814  0.5659
27973W        W44157   9.178   6.384  14.031  0.1200 -0.1955 -0.0116
27974W        W44158  15.455   6.863  10.264 -0.1693 -0.0525 -0.1187
27975W        W44159  18.296   9.482   3.950 -0.0253 -0.4246  0.0869
27976W        W44160   4.644  11.316   3.067 -0.0591 -0.0139 -0.0148
27977W        W44161  15.703   5.938   4.707 -0.3665 -0.0028  0.1997
27978W        W44162   9.509  13.761  10.745  0.1083 -0.2795 -0.2923
27979W        W44163   3.546  16.836   4.063 -0.1747  0.0781 -0.0078
27980W        W44164  16.009   2.055   1.510 -0.1816 -0.0541  0.1969
27981W        W44165  13.977  16.220  14.597 -0.2346 -0.0509 -0.0277
27982W        W44166   1.108  15.623   3.425  0.1062 -0.1555  0.2104
27983W        W44167   5.031   5.454  11.313 -0.0523  0.2032 -0.0982
27984W        W44168   6.019   5.052  13.267  0.0335 -0.0717 -0.0876
27985W        W44169  17.927   9.521   2.777 -0.1753  0.0564 -0.5727
27986W        W44170   0.680   9.337  11.348  0.2532  0.3316  0.0215
27987W        W44171  11.537  14.633   1.165 -0.0220 -0.1968 -0.2045
27988W        W44172   8.426  12.902  13.549  0.0105  0.0990  0.0963
27989W        W44173  11.112  17.521  11.083  0.0101  0.2708 -0.0982
27990W        W44174   5.613  18.350  12.508  0.0845 -0.0257  0.1429
27991W        W44175  10.205   9.438  12.896 -0.5378  0.1768  0.0247
27992W        W44176   6.151   8.830   2.819 -0.4619  0.0071 -0.3727
27993W        W44177  15.049  18.863   1.919  0.1185  0.2626  0.3792
27994W        W44178   0.671   3.345   3.529  0.0035  0.0371  0.2793
27995W        W44179   6.975   4.996  10.634  0.0852  0.2694  0.3664
27996W        W44180  18.564   6.381  13.428  0.0145 -0.2906  0.1954
27997W        W44181   1.527   8.500   1.216 -0.1139 -0.0688  0.1650
27998W        W44182   0.769   0.852   3.328  0.2885 -0.1532 -0.0609
27999W        W44183   9.452   3.985  11.564 -0.1203 -0.2836  0.1305
28000W        W44184   2.876  15.110  13.018  0.0307  0.1236 -0.3208
28001W        W44185   4.276  12.171  13.063 -0.0138  0.2254 -0.4662
28002W        W44186  12.346   0.458   3.349  0.3107  0.0315 -0.0875
28003W        W44187   7.677   8.181  10.633 -0.3580  0.1082  0.1010
28004W        W44188   3.415  13.023   1.646 -0.0986 -0.1402 -0.1933
28005W        W44189   7.732   7.523   4.353  0.0604  0.0304 -0.2825
28006W        W44190   6.596  17.283   4.756 -0.1131 -0.1132  0.0168
28007W        W44191  15.577  12.183   0.067 -0.2449  0.3994 -0.2215
28008W        W44192  14.620  12.571  13.548 -0.0986  0.0600 -0.1148
28009W        W44193   1.437   3.387  14.966 -0.1875  0.1085  0.2090
28010W        W44194   3.621  18.008   3.707 -0.0001  0.0265  0.0670
28011W        W44195   1.942   0.051   5.212  0.0538 -0.1195  0.2864
28012W        W44196  13.703   0.517  13.142 -0.0057  0.1455 -0.2888
28013W        W44197  16.422   5.516   0.140 -0.1245 -0.0766  0.1602
28014W        W44198  15.135  11.989   0.257 -0.0114 -0.0101  0.1816
28015W        W44199  14.291  12.427  14.258 -0.0342 -0.1647  0.0774
28016W        W44200   4.075   0.681   3.944  0.0408  0.0147  0.0105
28017W        W44201  12.456   0.906  11.251  0.2278  0.2187  0.0378
28018W        W44202  10.183   2.660  14.115  0.2171  0.0614 -0.0709
28019W        W44203   1.359  15.262   4.233 -0.4606 -0.2783 -0.4204
28020W        W44204  15.526  10.651   2.105 -0.0406  0.0386  0.4266
28021W        W44205  18.855  14.369  14.818  0.0439  0.1568  0.0071
28022W        W44206   4.889  12.497  13.290 -0.0282 -0.5107  0.0576
28023W        W44207  11.138   6.036  14.502 -0.3034  0.2016 -0.0615
28024W        W44208  18.032  17.088  11.487  0.0702  0.0242 -0.0526
28025W        W44209   4.141  14.371   0.339  0.0669 -0.1267  0.1212
28026W        W44210  13.083  10.819   0.460 -0.0215  0.1279  0.2805
28027W        W44211   7.414  12.654   3.499 -0.3161  0.0052  0.1838
28028W        W44212  13.016   2.614   2.124 -0.3007 -0.1809 -0.2327
28029W        W44213  19.019  16.444  11.291 -0.2717  0.1900  0.1453
28030W        W44214   6.545   1.935  12.813  0.0583  0.1408  0.1711
28031W        W44215  18.774  17.833   2.079  0.1410 -0.3420  0.0518
28032W        W44216   4.952   4.762  10.888 -0.0483 -0.1504  0.4597
28033W        W44217  16.380   0.050  11.350 -0.1084  0.1986 -0.2846
28034W        W44218   3.008  16.007   0.168  0.0899 -0.0057 -0.1949
28035W        W44219  14.079   7.537   3.289 -0.1058  0.0377  0.2014
28036W        W44220   1.567  10.966  13.408 -0.1084  0.1683  0.1385
28037W        W44221  13.829   7.277  13.912 -0.0406 -0.1580 -0.0601
28038W        W44222   2.499  15.927   9.776 -0.1062 -0.1724  0.1392
28039W        W44223  11.277  11.345  12.863 -0.2701 -0.0129 -0.2964
28040W        W44224  12.126  18.537   3.305 -0.2613  0.1163  0.0733
28041W        W44225   4.797   6.373   5.302  0.0539  0.1685 -0.1402
28042W        W44226  15.847  10.432   0.305 -0.0562  0.3592  0.0250
28043W        W44227  16.571   0.987  11.701  0.2225 -0.0382  0.2098
28044W        W44228   8.625   6.878   4.956  0.1263 -0.0473  0.3443
28045W        W44229   7.359  12.584   2.303 -0.2623 -0.1138  0.2256
28046W        W44230   2.191  17.622  11.903  0.2037  0.1195 -0.2336
28047W        W44231   7.996  14.684  11.437  0.0227 -0.0074 -0.0079
28048W        W44232  14.230   6.217   0.968 -0.1570  0.0276  0.0287
28049W        W44233  19.348   9.017  11.780 -0.0451 -0.0157  0.0353
28050W        W44234  13.248   0.501   5.707  0.2069 -0.0847  0.1029
28051W        W44235  18.926   9.788  11.436 -0.0364  0.1068  0.1819
28052W        W44236   2.952  18.539  14.845 -0.1353  0.2483  0.1648
28053W        W44237   5.712  18.711   1.929  0.0342  0.1340  0.2932
28054W        W44238  13.959  18.763  11.339 -0.0083 -0.0201  0.2691
28055W        W44239  19.197   0.776  14.670  0.3152 -0.0923  0.0100
28056W        W44240   5.650   6.935  10.573  0.2326 -0.0669 -0.3016
28057W        W44241  15.360  16.391  12.963 -0.0345 -0.2028  0.2189
28058W        W44242  17.788   0.214  11.645 -0.0748  0.0816  0.1588
28059W        W44243  13.753   4.848  10.282  0.3954 -0.0026 -0.1799
28060W        W44244  15.265   9.439  14.352  0.0985  0.0434  0.1141
28061W        W44245  16.526  17.095   3.996  0.1285  0.0632 -0.1578
28062W        W44246   2.364   9.781  11.099 -0.1179 -0.1509 -0.3190
28063W        W44247   6.107   4.428  14.979  0.2300 -0.1404 -0.0048
28064W        W44248   4.252  15.742   2.960  0.0869 -0.2508  0.2089
28065W        W44249   2.064   1.883   0.227  0.0978 -0.3391 -0.3227
28066W        W44250  16.723  13.467  11.954 -0.0290  0.0195  0.1966
28067W        W44251   5.796  13.297   4.501  0.2763 -0.0186  0.1271
28068W        W44252   6.583  17.538   2.897  0.2167  0.0315 -0.0406
28069W        W44253  19.091  16.990  13.686  0.2624 -0.3817  0.0965
28070W        W44254  13.692   0.574   4.120 -0.0692 -0.3103  0.1014
28071W        W44255  17.557   5.364   3.469 -0.0317  0.1572  0.0949
28072W        W44256  10.248   0.820   2.770  0.0079 -0.3883 -0.0104
28073W        W44257  16.496  16.253  11.448 -0.1286 -0.3731  0.2804
28074W        W44258  16.060   2.677   2.074  0.1680 -0.0666 -0.0194
28075W        W44259  11.581  15.947  10.411  0.2015 -0.2796  0.1138
28076W        W44260   8.816   1.361   0.778 -0.0153 -0.0698  0.1520
28077W        W44261  11.843   3.268  10.841  0.3155 -0.0358  0.0072
28078W        W44262  15.255  10.135   2.107  0.3204  0.0655  0.1068
28079W        W44263  16.918  16.759   0.088 -0.0072 -0.2763 -0.0887
28080W        W44264  15.992   2.060   3.800  0.0160 -0.0627  0.1982
28081W        W44265   0.672  18.805  12.818 -0.1753 -0.6480  0.0130
28082W        W44266   3.221  16.134   4.484 -0.0169 -0.3545  0.1269
28083W        W44267   3.602   2.306   3.116  0.0153 -0.0453  0.0642
28084W        W44268   6.599   4.453   3.220  0.2681  0.0402  0.1680
28085W        W44269   8.127   3.380   3.483 -0.2761  0.0738  0.0051
28086W        W44270  10.354   7.471   2.974  0.1846 -0.3368 -0.0160
28087W        W44271  15.006   5.430   2.006 -0.2151 -0.0735  0.2668
28088W        W44272  12.504  15.860   2.615 -0.1795 -0.0143  0.0191
28089W        W44273  11.801  17.185  14.408 -0.0142 -0.0366  0.0869
28090W        W44274   4.659   4.324   4.291  0.0642 -0.0596 -0.3560
28091W        W44275   5.762   8.048  13.280  0.2034  0.2118 -0.0163
28092W        W44276   1.577  12.719  14.327  0.1442  0.2555 -0.2033
28093W        W44277   6.440  11.029   1.108 -0.2562 -0.3169 -0.0667
28094W        W44278  19.104   3.934  12.144 -0.1950 -0.1614  0.3254
28095W        W44279   4.451   4.512   9.855  0.1004  0.0747 -0.0212
28096W        W44280  16.026   2.882   0.963  0.0017  0.1113  0.1300
28097W        W44281  18.109  11.653  10.669 -0.0036 -0.0812 -0.1691
28098W        W44282  14.722  13.078  14.346  0.0060  0.2091 -0.0997
28099W        W44283  10.148   7.572   4.516 -0.0211  0.0042 -0.3579
28100W        W44284  16.350  11.263   4.899  0.0203  0.0724 -0.2417
28101W        W44285   3.080  18.077   5.447  0.0693 -0.2342  0.1552
28102W        W44286   3.763   7.922   0.107 -0.1114 -0.0079  0.0669
28103W        W44287  19.124   3.180  10.542 -0.5076 -0.2645 -0.0786
28104W        W44288  12.561  10.965  13.697  0.1803  0.1525 -0.3260
28105W        W44289   3.717  18.677   4.616  0.1087  0.0236  0.4236
28106W        W44290  11.068   0.674   5.013  0.1493 -0.2192  0.1123
28107W        W44291  13.795  17.449   4.566 -0.0948 -0.2809  0.2458
28108W        W44292  17.659  10.403   1.292 -0.3509 -0.3204 -0.0956
28109W        W44293  18.035   7.040  12.390 -0.0200  0.0578 -0.2480
28110W        W44294  15.119   0.896  14.959  0.1070 -0.0158 -0.2755
28111W        W44295  11.054  14.257  13.468 -0.0180 -0.2110 -0.3808
28112W        W44296   2.156  17.695  10.312  0.1266  0.0539  0.1583
28113W        W44297   0.064  10.902  10.801 -0.2344 -0.1708  0.2571
28114W        W44298   8.929   2.369   3.650  0.2122 -0.0003  0.0709
28115W        W44299  12.570   1.364   4.561  0.0148 -0.0093  0.2906
28116W        W44300   8.370   0.313   5.105 -0.1244 -0.0539 -0.1386
28117W        W44301  11.984   9.983   0.603  0.1824 -0.3803  0.2541
28118W        W44302   7.852  18.504  10.395  0.0644  0.3744 -0.1837
28119W        W44303   1.283  18.963  11.700  0.2009  0.1340  0.2017
28120W        W44304   7.736  15.239  10.432  0.1086 -0.1907 -0.1951
28121W        W44305   1.279   2.757   3.098  0.1737  0.0909  0.4002
28122W        W44306  15.477  17.329  14.832 -0.3301 -0.0975 -0.3028
28123W        W44307  15.540   9.343  13.799  0.1348  0.1838 -0.3333
28124W        W44308  19.175   0.498  13.625  0.0922  0.1586 -0.0660
28125W        W44309   9.671   9.189   3.287  0.2616 -0.0190 -0.0746
28126W        W44310  14.900  12.222   2.419  0.4572 -0.0599  0.0515
28127W        W44311   0.531  11.262   4.789  0.1140  0.1368 -0.0331
28128W        W44312   1.621  14.329  11.862 -0.0099 -0.0168  0.1757
28129W        W44313  15.381   3.930  10.059  0.1058  0.1643  0.0580
28130W        W44314   8.844  10.404   2.748  0.1048 -0.0594  0.1809
28131W        W44315   4.564  10.550  14.683  0.1364  0.4052 -0.2094
28132W        W44316   0.361   6.452   1.525 -0.0473  0.4188 -0.2510
28133W        W44317   4.536   7.304  14.289 -0.2049 -0.0977 -0.0930
28134W        W44318   2.638  12.158  11.772  0.0276 -0.0334 -0.3810
28135W        W44319  17.843   2.631  11.590 -0.0706 -0.0020 -0.0001
28136W        W44320   2.676   9.014   0.983 -0.2053 -0.0530 -0.0448
28137W        W44321  16.680   6.104   4.475  0.0475  0.0310 -0.1356
28138W        W44322   7.119  10.722  14.423  0.1058  0.3440 -0.1554
28139W        W44323  15.376   8.096   0.496  0.0948  0.0868 -0.0731
28140W        W44324  16.899  12.725  13.005  0.2561 -0.2738  0.1772
28141W        W44325   9.564   4.261   3.324 -0.4107 -0.1304  0.0095
28142W        W44326  15.171   1.819  13.174 -0.1061 -0.1113 -0.1079
28143W        W44327   6.142   2.721   2.092  0.0626 -0.1262 -0.0827
28144W        W44328  12.898   0.071  13.307 -0.0162 -0.0237  0.0654
28145W        W44329  18.408   7.883  13.959  0.1068 -0.0027 -0.1053
28146W        W44330   7.991  15.252  14.169 -0.2565 -0.1244  0.1252
28147W        W44331  10.305  18.053  11.073  0.0835  0.2290 -0.1340
28148W        W44332  13.219  15.645  13.488 -0.2521 -0.0822  0.1667
28149W        W44333  11.502  16.380   4.542 -0.0840 -0.0898  0.2642
28150W        W44334  10.752  10.759   1.313  0.3048 -0.5255  0.2581
28151W        W44335   0.884   1.751  14.371 -0.0297  0.1107 -0.5108
28152W        W44336   9.596   5.113   4.233  0.0727  0.0838 -0.2049
28153W        W44337   6.132  15.853  13.347  0.0529 -0.2299 -0.0222
28154W        W44338  15.985   4.387  11.404 -0.1195  0.2791 -0.1334
28155W        W44339  10.303  10.068   1.184 -0.0639 -0.2874 -0.2963
28156W        W44340  14.546  12.937   2.794 -0.1189  0.0652 -0.3168
28157W        W44341  18.435   9.401  14.439 -0.1014 -0.3832 -0.1329
28158W        W44342  17.516   6.521   4.523 -0.0664  0.0870 -0.0923
28159W        W44343  16.098  11.203   0.970 -0.3406 -0.0502  0.2805
28160W        W44344   0.620  11.154  14.188 -0.3289 -0.0463 -0.0830
28161W        W44345   7.438   5.903  12.778 -0.1183  0.0327  0.2396
28162W        W44346   8.403  16.032   2.349  0.1484  0.0252 -0.2180
28163W        W44347   2.727   7.953  11.751 -0.0049  0.2352  0.0011
28164W        W44348  10.350  15.998  13.621  0.1431 -0.0097  0.1183
28165W        W44349  11.013  18.557  10.711  0.0495  0.3170  0.2872
28166W        W44350   3.741  10.527  14.427 -0.1591 -0.0073 -0.1741
28167W        W44351   9.818   5.918   1.313  0.3337  0.0850 -0.0427
28168W        W44352  13.026   7.079   1.318 -0.2438  0.1890  0.1249
28169W        W44353   8.896   7.059  13.490  0.2104 -0.0138  0.0302
28170W        W44354  18.464  14.413  10.989 -0.0368  0.0933 -0.1693
28171W        W44355   6.903  14.951   1.845 -0.0585  0.1712  0.1354
28172W        W44356  17.823  10.397   4.843 -0.1512  0.0813 -0.2507
28173W        W44357  11.825   4.200   4.804  0.0837 -0.1965 -0.0928
28174W        W44358   8.220   8.302  11.379 -0.0405  0.3650 -0.0724
28175W        W44359   4.655   0.004  14.592  0.2932  0.1063  0.2971
28176W        W44360  13.088  14.468   0.439 -0.0594 -0.0502  0.2549
28177W        W44361   7.774   3.111   2.947  0.0165  0.2392  0.0948
28178W        W44362   8.168  15.131   2.335  0.2031  0.1492 -0.0790
28179W        W44363  10.733   1.478   3.417  0.1778  0.0354 -0.1087
28180W        W44364   1.642  16.467   0.326 -0.2047 -0.0008 -0.2579
28181W        W44365   5.433  14.784   2.893  0.3031 -0.0126 -0.2658
28182W        W44366  15.849   3.732   2.791 -0.0263  0.0000  0.1022
28183W        W44367   7.113   6.385  10.695 -0.0420 -0.1324  0.1795
28184W        W44368   4.844   0.808  12.887  0.1909 -0.1619 -0.1460
28185W        W44369   1.166  14.760   1.118 -0.0342 -0.0272 -0.1680
28186W        W44370   0.022  17.138  12.690 -0.1166 -0.0146  0.1821
28187W        W44371  13.117  10.517   2.433 -0.1917 -0.1327 -0.1074
28188W        W44372  12.933   5.848  13.105 -0.0133  0.3406 -0.3411
28189W        W44373   8.344   1.592   5.399 -0.5222 -0.2860  0.0121
28190W        W44374   7.938   0.289   1.293  0.2779 -0.0541 -0.0801
28191W        W44375   8.762   6.248  12.278  0.2746 -0.2692  0.2952
28192W        W44376   2.168   5.495  14.103 -0.3558 -0.0988  0.1241
28193W        W44377  18.820   2.915  12.029  0.0181 -0.0561 -0.2320
28194W        W44378   3.546   5.706   2.575  0.2829  0.3172 -0.0139
28195W        W44379  10.959   1.676   4.896 -0.3428 -0.0523 -0.3154
28196W        W44380  15.193  13.568   2.900 -0.2637  0.0915 -0.0771
28197W        W44381   7.264   2.812   3.889 -0.0563  0.0665  0.2894
28198W        W44382   5.697  15.050  14.662  0.0359  0.0726 -0.1001
28199W        W44383  18.700   2.983  12.916  0.2463 -0.0580 -0.0969
28200W        W44384  12.578  11.417  12.959 -0.1526  0.1131  0.1166
28201W        W44385   6.936  13.640   9.556  0.0334  0.1031 -0.1427
28202W        W44386  19.363  16.215  10.434 -0.1624 -0.1461  0.0055
28203W        W44387   9.482  16.577  14.223  0.1001 -0.3510 -0.0700
28204W        W44388  10.252   8.773   0.020 -0.4478  0.0906  0.1027
28205W        W44389  11.921   4.664  13.796 -0.2010  0.1650  0.0824
28206W        W44390  18.973   6.227   5.123 -0.1593  0.0464 -0.0106
28207W        W44391  10.691   0.983  12.679 -0.2908  0.0239 -0.4753
28208W        W44392   3.472  12.289  14.290 -0.4672 -0.1487  0.1886
28209W        W44393  15.044   7.847   4.191  0.1062  0.0079  0.0075
28210W        W44394  11.221  12.461  13.604 -0.0090  0.0644  0.0406
28211W        W44395   3.788  10.202  11.032  0.1197 -0.2034  0.3141
28212W        W44396   9.778  10.696  14.307 -0.3360  0.1952 -0.1163
28213W        W44397  19.064  19.303   2.875 -0.1221 -0.2721 -0.4178
28214W        W44398  13.766   9.141  12.787  0.1614  0.2447 -0.0899
28215W        W44399  12.600   6.936   2.576  0.3865  0.2537 -0.1673
28216W        W44400  15.427  18.314  10.396 -0.2266 -0.0042  0.2348
28217W        W44401  11.671  13.912   0.850 -0.0845 -0.4082 -0.0116
28218W        W44402  12.110  11.541   5.835  0.0854 -0.0929 -0.0325
28219W        W44403  13.218   0.312   0.512  0.2140 -0.1031 -0.0005
28220W        W44404   4.704  14.903  13.467  0.1626 -0.1910  0.0846
28221W        W44405  14.749  16.705   2.663 -0.0651  0.3636  0.2322
28222W        W44406  14.934  16.510   0.110 -0.0683  0.1080 -0.3737
28223W        W44407  13.427   1.729   0.814 -0.0685  0.1478 -0.4445
28224W        W44408   5.131  17.920  11.340 -0.4842  0.0786  0.1698
28225W        W44409   5.703   4.524  12.541 -0.1251  0.0803 -0.0227
28226W        W44410   0.197  10.098  14.729 -0.0091  0.0628  0.0586
28227W        W44411   2.430   2.248   1.181 -0.0772 -0.2319  0.2264
28228W        W44412   7.882  18.937  12.367 -0.0890  0.0198  0.0247
28229W        W44413  12.675   6.248   3.405  0.0969  0.2541  0.1006
28230W        W44414   4.717  18.176  14.169  0.0181 -0.2800  0.0036
28231W        W44415  13.082  13.361   2.493  0.0331  0.0825  0.1002
28232W        W44416  13.224  16.714  12.229 -0.0809  0.2142  0.0179
28233W        W44417   4.845   8.798  14.378 -0.0584 -0.3813 -0.1100
28234W        W44418  17.710  19.222   5.385  0.0644 -0.1287 -0.0855
28235W        W44419   4.959   4.015  10.293  0.0432 -0.2444 -0.3273
28236W        W44420  12.322   0.434   2.078  0.0691 -0.3210  0.1079
28237W        W44421  14.429   7.267   3.705 -0.0232 -0.3026 -0.0735
28238W        W44422   3.507   8.250  14.667 -0.0455  0.1238  0.3553
28239W        W44423   3.642   3.409  13.486 -0.0563  0.0401  0.0622
28240W        W44424  13.919   7.772  11.086 -0.2853 -0.1738 -0.0805
28241W        W44425  18.447  10.252  14.288 -0.0413 -0.1070  0.0665
28242W        W44426  15.285  16.450  10.933 -0.1414  0.0728 -0.0541
28243W        W44427   2.817  16.142  12.748 -0.1779  0.1166 -0.1261
28244W        W44428   5.306  18.470  11.583  0.2079 -0.2508  0.0347
28245W        W44429  10.148   3.411  14.756  0.0023 -0.0037  0.0160
28246W        W44430   6.221   1.652   1.718 -0.0839 -0.2200 -0.0156
28247W        W44431   6.445   2.055  11.239 -0.0778  0.3115 -0.2367
28248W        W44432  17.661  19.105  11.686  0.0207  0.3154 -0.3782
28249W        W44433  17.067  14.137  13.673  0.1530 -0.1160  0.2790
28250W        W44434  14.022   4.812  14.593 -0.1774 -0.1266  0.1415
28251W        W44435  14.268  15.965   2.415 -0.0138  0.0939 -0.1883
28252W        W44436   2.410  10.575   4.327 -0.0711  0.0705 -0.1404
28253W        W44437  19.045   1.694  14.467  0.0201 -0.0194 -0.0843
28254W        W44438   0.165   6.047   3.877  0.1348  0.0138  0.1722
28255W        W44439   2.414   4.159  11.029  0.4789  0.3090 -0.1970
28256W        W44440  11.034  16.409  11.721  0.1103  0.0153  0.2610
28257W        W44441  13.104  12.888  14.670  0.2171 -0.0838 -0.2065
28258W        W44442  10.785   9.987  11.884  0.1108 -0.2128  0.0934
28259W        W44443   5.563  15.403  12.533 -0.3343  0.0966  0.4385
28260W        W44444  13.686  18.963  12.061  0.0706  0.1644 -0.0243
28261W        W44445  19.290   2.224   1.336  0.0892 -0.1139 -0.2915
28262W        W44446   0.057   9.546  11.688 -0.1016 -0.1920 -0.4757
28263W        W44447   0.080   5.664  11.668 -0.2800 -0.1985 -0.6187
28264W        W44448  17.989  16.204  12.911 -0.3274  0.2632  0.1565
28265W        W44449  17.572  16.983  14.395  0.3970  0.0866 -0.1701
28266W        W44450  15.191   9.802   4.568 -0.2179 -0.2813 -0.0200
28267W        W44451   7.821  15.572  11.968  0.2367 -0.0372  0.0890
28268W        W44452  11.476   9.525   1.795 -0.0286  0.2494  0.0024
28269W        W44453  12.706   9.499  13.635  0.1909 -0.0277 -0.2141
28270W        W44454   8.929  10.968  13.863  0.3435  0.2000 -0.0730
28271W        W44455   2.885   4.084  13.093 -0.3064  0.2673 -0.1119
28272W        W44456  17.546   1.890  11.929 -0.0063  0.0131  0.3091
28273W        W44457   2.734  13.697   1.781 -0.4046  0.3212  0.2826
28274W        W44458   2.513  13.162  11.266 -0.2908 -0.2262  0.0431
28275W        W44459  12.719  13.335   2.074 -0.0571  0.2597  0.1985
28276W        W44460  13.834   3.502  11.925  0.0713  0.0996  0.0903
28277W        W44461  15.744  10.517  14.193 -0.3106  0.0545 -0.0452
28278W        W44462   8.593   4.316   1.265 -0.3792  0.3115 -0.0567
28279W        W44463   0.196   9.652   0.560  0.0763  0.1797  0.1299
28280W        W44464  19.052   5.134  11.700  0.2014  0.0607 -0.0526
28281W        W44465  13.225   9.349  14.264  0.4254  0.0193 -0.0162
28282W        W44466   0.242   0.600   3.132 -0.2218  0.2453  0.0941
28283W        W44467  13.573   2.518   0.216  0.0327 -0.0682 -0.2073
28284W        W44468   9.997   5.855   9.810  0.2299 -0.2240 -0.2133
28285W        W44469   8.361  12.835   5.033 -0.1241 -0.1516 -0.0672
28286W        W44470  13.575   2.787  12.887  0.1707 -0.4987 -0.0384
28287W        W44471  15.801  19.136  10.983  0.3993 -0.2134 -0.0166
28288W        W44472  19.284   6.453  14.886 -0.1884  0.1231  0.1563
28289W        W44473  11.125   8.358   4.182  0.1060  0.1791 -0.4129
28290W        W44474  10.607   4.526   0.622  0.2592 -0.4804  0.0064
28291W        W44475   2.976   6.231  11.461 -0.0435 -0.2321 -0.3494
28292W        W44476  12.900   4.305   1.730  0.0921  0.0314  0.1177
28293W        W44477  16.762   8.028   2.836 -0.2630  0.2420 -0.2223
28294W        W44478  11.877   0.199   4.334 -0.4658 -0.0595  0.1885
28295W        W44479  14.894  15.003  14.726 -0.1211  0.1804  0.0748
28296W        W44480   1.381   1.270   1.228  0.0287 -0.1380  0.2449
28297W        W44481   8.366   5.642  12.699 -0.0597  0.1911  0.3017
28298W        W44482   5.244  13.957  13.114 -0.0962  0.2473 -0.2796
28299W        W44483   4.098  18.820   4.206  0.0003  0.3034 -0.2948
28300W        W44484   4.952   8.820  12.914 -0.3465 -0.3954  0.2835
28301W        W44485  10.506   1.115   0.295  0.0900 -0.0743  0.1115
28302W        W44486   4.272  18.466  14.311 -0.2534 -0.3578  0.0231
28303W        W44487  11.571   8.482  14.474  0.3980 -0.2004  0.0897
28304W        W44488   5.419  14.284   2.878  0.0897  0.1913 -0.0635
28305W        W44489   4.020   1.104  14.613 -0.1517 -0.1938 -0.0458
28306W        W44490  18.141   1.293  10.169  0.2250  0.0055 -0.3233
28307W        W44491  12.774   5.804   0.427 -0.1301 -0.0640  0.1031
28308W        W44492  16.732   2.125   4.730  0.0721 -0.1388  0.1245
28309W        W44493  18.895   2.323  13.547  0.1861  0.3684  0.2502
28310W        W44494  11.653   5.270  11.929  0.3453 -0.0717 -0.5878
28311W        W44495   6.169   9.492  12.569 -0.0747 -0.1774  0.0323
28312W        W44496  16.996  11.964  12.771  0.3151  0.2529  0.1585
28313W        W44497   4.178  14.084  14.321 -0.1006  0.0100 -0.2738
28314W        W44498  10.338   3.753  13.335 -0.0871  0.0850 -0.2464
28315W        W44499  17.719  13.322   0.857 -0.1797 -0.2624 -0.2437
28316W        W44500   4.728  13.237  13.790  0.3654  0.1819 -0.1754
28317W        W44501   1.867  15.230  11.671  0.1480  0.4196 -0.1828
28318W        W44502  10.277   7.949   2.858 -0.4384  0.1859 -0.1164
28319W        W44503  14.092  19.072   1.784 -0.3437  0.1053 -0.2654
28320W        W44504  15.629   3.721   3.728 -0.1535 -0.2010  0.2315
28321W        W44505   2.947  18.616   3.526 -0.0379 -0.1448  0.1621
28322W        W44506  11.840   3.406   9.777 -0.2666 -0.3258 -0.2232
28323W        W44507   0.308  14.567  12.355  0.0271 -0.0037 -0.0010
28324W        W44508   4.557  18.794  11.778 -0.0269 -0.2057  0.4083
28325W        W44509   9.272   4.555   0.038  0.1687 -0.0037 -0.4480
28326W        W44510  10.715  11.287   2.981  0.1575  0.5262 -0.3395
28327W        W44511   7.223   4.663  11.112  0.2569 -0.1311 -0.2952
28328W        W44512   1.616  12.697   2.711 -0.1355  0.0372 -0.3844
28329W        W44513   4.617  18.777  12.755  0.0115  0.2832 -0.2975
28330W        W44514  11.707  16.480   3.042 -0.3784 -0.1570  0.1574
28331W        W44515   5.293  14.581  12.271 -0.4515 -0.1130  0.1886
28332W        W44516   9.870   0.577  14.912  0.0963 -0.1183  0.2415
28333W        W44517   3.853  11.492   0.277 -0.2189  0.2591  0.2115
28334W        W44518   4.874   2.871   1.645 -0.2185  0.1746 -0.0632
28335W        W44519   3.572   1.039  13.509  0.1228 -0.0221 -0.0270
28336W        W44520  10.177   6.536   2.469  0.1348  0.1258  0.1672
28337W        W44521   1.725  13.363   4.714  0.1147 -0.2755 -0.2087
28338W        W44522  19.093   0.803   3.342 -0.1782 -0.1180 -0.1989
28339W        W44523  17.485  17.992   4.173 -0.1078  0.0809 -0.0578
28340W        W44524   5.285  13.300  11.558 -0.3587 -0.0881 -0.4462
28341W        W44525  14.619  15.751   5.352  0.2499  0.1721 -0.2252
28342W        W44526  10.737   9.062   0.174 -0.1996 -0.2195 -0.1698
28343W        W44527  16.416  16.888  13.592 -0.0434 -0.0473 -0.0887
28344W        W44528  12.434  12.410  13.325  0.0716  0.3117  0.0535
28345W        W44529   8.829   9.107   2.648 -0.0170 -0.0573  0.1473
28346W        W44530  18.353   0.421  13.637 -0.2112  0.1012  0.1360
28347W        W44531   8.137  18.877   2.816  0.0099  0.2387  0.1635
28348W        W44532   8.843   5.169   4.367 -0.0150 -0.1789  0.1782
28349W        W44533  17.927  12.649  11.667  0.4004  0.3293  0.5107
28350W        W44534   5.216  17.778   3.415  0.2796  0.0154  0.1312
28351W        W44535   2.403   7.416   2.466 -0.1593  0.2491  0.0880
28352W        W44536  13.321  18.217  12.452 -0.3841  0.3632 -0.1672
28353W        W44537   7.622  14.887  14.394  0.0636  0.1093  0.2703
28354W        W44538  16.475  15.684   2.121 -0.1565  0.4916  0.2799
28355W        W44539  16.853  18.943   3.184  0.3704  0.1185 -0.1524
28356W        W44540  10.129   5.590  12.305 -0.0366  0.1662 -0.0615
28357W        W44541  12.600   9.215   2.643  0.2228  0.0577 -0.0484
28358W        W44542   6.517   2.187   0.631  0.3168 -0.0307  0.0719
28359W        W44543  17.613   4.000  11.982  0.0279  0.0510 -0.1959
28360W        W44544   0.166  14.282   4.039 -0.0385  0.2151 -0.0977
28361W        W44545  13.275  13.319   4.443  0.0500 -0.0586 -0.1280
28362W        W44546   1.680  12.137  12.647  0.2422 -0.3483  0.1592
28363W        W44547  14.864  17.923  12.802  0.0365  0.1111  0.0511
28364W        W44548   1.491   4.180   2.459  0.2860 -0.1065  0.0031
28365W        W44549  14.556   8.346   2.195  0.3123 -0.0450 -0.2982
28366W        W44550  13.684  19.241  10.361 -0.2113 -0.2756  0.2443
28367W        W44551   3.000   2.930   0.548 -0.0901 -0.1071  0.1534
28368W        W44552   1.911   3.546   0.148 -0.1818  0.1227  0.0125
28369W        W44553   9.722  17.804   3.636 -0.0834  0.1179 -0.0198
28370W        W44554   1.139  13.597  10.828 -0.1092 -0.0911  0.2374
28371W        W44555  10.781   0.329  10.377 -0.0564 -0.2250  0.1474
28372W        W44556  19.278  18.195  14.005  0.3230 -0.0978 -0.2210
28373W        W44557  14.609   6.659   3.329  0.3440 -0.2407  0.1279
28374W        W44558   0.610  16.375  10.632  0.2932 -0.0715 -0.0749
28375W        W44559   3.290  10.448   3.375 -0.1117 -0.0862  0.0047
28376W        W44560  17.509   5.237   4.526  0.2407  0.2183 -0.3786
28377W        W44561  12.367  16.764  13.694 -0.3377 -0.0534  0.2243
28378W        W44562   6.892  18.746   1.321 -0.0613 -0.1310 -0.0696
28379W        W44563   1.001   8.116   4.069  0.0309  0.0739  0.2877
28380W        W44564   3.934   9.202  13.490  0.3840  0.0575  0.1713
28381W        W44565  11.002  13.669   4.978 -0.2162 -0.0859  0.0850
28382W        W44566  15.349  12.756  11.136  0.2581  0.1274  0.1559
28383W        W44567  12.534   4.257  14.538  0.0900  0.2151 -0.1748
28384W        W44568  15.584  18.643  14.804  0.0177 -0.0130 -0.1441
28385W        W44569  15.296  17.296  13.872 -0.2408  0.3288  0.1906
28386W        W44570   5.163   4.727   5.069  0.3123  0.0853 -0.0027
28387W        W44571   3.034   5.788  14.526  0.0889 -0.0572  0.1823
28388W        W44572   3.211  16.954   2.841  0.2318  0.0128  0.0160
28389W        W44573   4.934  14.392   2.944 -0.0080  0.3524 -0.3050
28390W        W44574   1.108  18.785   3.518 -0.0216 -0.0621 -0.0164
28391W        W44575  11.197  16.361   0.696 -0.1259 -0.1493  0.1537
28392W        W44576  19.167   2.756  11.342  0.5013 -0.1093 -0.3804
28393W        W44577   0.155   3.771   2.177  0.0986  0.1330 -0.1765
28394W        W44578   2.859   5.086   2.900 -0.1063  0.2341 -0.1449
28395W        W44579  16.086  14.974  12.544  0.3672 -0.0352 -0.1025
28396W        W44580   0.815  14.454  10.916 -0.0669  0.2167 -0.3542
28397W        W44581   7.754  13.285   5.623  0.2343  0.2937  0.1557
28398W        W44582  12.719  17.954   3.292 -0.4247  0.3029 -0.0345
28399W        W44583   7.711   6.740  13.534  0.0309  0.0928 -0.1526
28400W        W44584   8.671   6.901   1.881 -0.0589  0.1235 -0.1538
28401W        W44585  11.594  15.692  12.459 -0.1189 -0.2402 -0.3104
28402W        W44586  10.409   3.268  11.961  0.0072  0.0765 -0.1641
28403W        W44587  13.558  15.978  14.710 -0.2738 -0.1580 -0.1877
28404W        W44588   9.498  14.407  13.863  0.1872 -0.0490  0.0273
28405W        W44589   5.599  11.151  12.031 -0.1607  0.2469  0.0656
28406W        W44590  15.971  18.595  14.580  0.0027 -0.4844  0.2805
28407W        W44591  11.920   5.103  10.267  0.0322  0.0339  0.0676
28408W        W44592   6.373  15.011   1.043  0.1453  0.1684  0.1810
28409W        W44593   4.888  13.098   4.510 -0.1745  0.0336  0.1129
28410W        W44594   0.405   5.893   5.375 -0.1865  0.1201  0.1522
28411W        W44595   1.965  18.350   1.231  0.0099  0.1793  0.0150
28412W        W44596   9.198  11.786   2.327  0.3781  0.2375 -0.4492
28413W        W44597  15.322  15.326  14.022 -0.0400  0.2246 -0.1569
28414W        W44598  15.463  15.296  12.160 -0.1078 -0.0860  0.1482
28415W        W44599   1.964   4.009   4.484  0.2502 -0.2036  0.0216
28416W        W44600   0.804  17.267  14.361  0.2061 -0.3227 -0.0808
28417W        W44601   3.932   9.502  12.252 -0.0470  0.0121  0.0140
28418W        W44602  12.152   8.381   2.179  0.1810 -0.0676  0.3497
28419W        W44603  17.333   1.101  10.304  0.3471 -0.1238  0.0219
28420W        W44604   8.585   2.671  14.021 -0.1827 -0.1528 -0.1672
28421W        W44605   2.143   7.743   1.015 -0.1111 -0.3387 -0.1768
28422W        W44606   3.411   4.270   9.365 -0.0052  0.0154 -0.1206
28423W        W44607   3.158  15.921   4.985 -0.2634 -0.0186  0.1185
28424W        W44608  15.083   3.463  12.876  0.1285 -0.1806  0.1184
28425W        W44609  12.225   7.214   4.357  0.3310  0.0388 -0.2672
28426W        W44610   1.990   4.680  12.199 -0.1855 -0.0530  0.4226
28427W        W44611   0.244   7.708   1.552  0.1167 -0.0066  0.4535
28428W        W44612  15.278   2.175   0.202  0.4579  0.1368  0.0785
28429W        W44613   8.702   7.363  13.995 -0.0473  0.3039 -0.0175
28430W        W44614  14.237  15.044  14.355  0.1542  0.2674 -0.5415
28431W        W44615  16.460  17.785   3.733 -0.1103  0.3620 -0.1327
28432W        W44616   0.955  16.378   3.547 -0.1761  0.2477  0.1205
28433W        W44617  11.262  13.751   1.689 -0.0292  0.0864  0.1923
28434W        W44618   4.111   8.074  12.184 -0.2138  0.2412  0.0591
28435W        W44619  11.304  16.417  10.777  0.0340 -0.1219  0.2552
28436W        W44620  14.807  14.249  13.624  0.0212 -0.0818  0.3449
28437W        W44621   4.217   1.473   0.835  0.1265 -0.1601 -0.0982
28438W        W44622   4.580  17.685  14.517  0.2880 -0.0047  0.0781
28439W        W44623   9.839   4.823  13.006 -0.4546  0.1974  0.0351
28440W        W44624  17.778   2.726   4.183  0.0038  0.0056 -0.2144
28441W        W44625   6.357  11.698  14.606  0.2698  0.0095 -0.1902
28442W        W44626   3.963   1.528  13.815  0.1087  0.2157  0.2737
28443W        W44627  14.205   0.084   4.330 -0.1577 -0.2324 -0.0549
28444W        W44628   4.865  16.518   1.877  0.0601 -0.4348 -0.1146
28445W        W44629  10.239  13.608  14.518  0.1420  0.1918  0.4429
28446W        W44630   0.639  17.362   0.373  0.1461  0.0579  0.1286
28447W        W44631   4.726   4.850  12.243 -0.1305  0.0147  0.4856
28448W        W44632  11.409  16.736   3.309  0.2006  0.3948  0.1240
28449W        W44633  18.930   9.014  12.714 -0.0634  0.4080 -0.0938
28450W        W44634  12.756  17.879   3.778 -0.0573 -0.2554  0.0464
28451W        W44635   6.160   6.456  14.952 -0.0050 -0.0941 -0.2296
28452W        W44636   1.847  10.696   3.584 -0.0837  0.2102  0.3430
28453W        W44637   3.268   3.520   0.727 -0.2116 -0.0445 -0.2474
28454W        W44638   0.989   6.546  12.376  0.1473 -0.0938 -0.0061
28455W        W44639   3.317   6.057   1.112 -0.3152  0.0926 -0.1332
28456W        W44640   6.957  18.046   0.198  0.1683  0.2874 -0.0032
28457W        W44641   2.860  16.393   3.750  0.0619  0.0713  0.2576
28458W        W44642   7.298  14.399   5.329  0.3824 -0.3980  0.3965
28459W        W44643  13.907   9.994   1.062 -0.3477 -0.0194  0.2375
28460W        W44644  16.349   5.354  13.995  0.2015 -0.4119 -0.1200
28461W        W44645   3.052   7.072   5.109 -0.1326  0.1231 -0.2342
28462W        W44646  12.911   9.791   1.423 -0.0287 -0.1598 -0.0861
28463W        W44647  17.603   8.180  12.842  0.1165  0.5326 -0.2008
28464W        W44648  13.051   6.210   0.181 -0.2442 -0.5138 -0.1396
28465W        W44649  12.469   5.063  11.727  0.0033  0.2180  0.0420
28466W        W44650   5.425  18.537   1.069  0.0551  0.2824  0.1429
28467W        W44651   7.323   6.674  12.165 -0.0274 -0.0727 -0.5114
28468W        W44652   1.550  13.233  11.537 -0.0223  0.1140  0.1078
28469W        W44653   6.320   3.459   3.803  0.0872  0.1133  0.3299
28470W        W44654  12.477  14.087   1.154 -0.0808  0.1292  0.1998
28471W        W44655   0.451  15.687  11.538  0.2648  0.1391  0.3695
28472W        W44656  12.475   1.738   2.796  0.3882  0.2337  0.2159
28473W        W44657  10.521   1.464   4.709  0.0679  0.0127  0.1803
28474W        W44658  12.886  11.669  10.469  0.1711  0.2569 -0.1260
28475W        W44659   0.586  10.578   2.399  0.1143  0.2164 -0.3834
28476W        W44660   3.387  13.559   0.706 -0.1354 -0.0461  0.1458
28477W        W44661   1.267   6.808   1.802  0.2511  0.0306  0.0191
28478W        W44662   8.582  11.267   4.290 -0.0673 -0.1320 -0.2038
28479W        W44663  13.220   6.706   2.699  0.3256  0.0450 -0.2325
28480W        W44664  13.570  17.589  14.648 -0.0518 -0.0544 -0.2209
28481W        W44665  11.361  10.961  12.433  0.0529 -0.1820 -0.1756
28482W        W44666   4.071  15.362  14.077 -0.1285 -0.2699 -0.0938
28483W        W44667   4.607  15.837  12.849 -0.2005  0.0770 -0.0355
28484W        W44668  15.931  17.889  12.142  0.0797 -0.0606  0.0605
28485W        W44669   0.948   6.746   3.452  0.1264 -0.0712 -0.1545
28486W        W44670   2.855   8.890  13.832 -0.1474 -0.2233 -0.2235
28487W        W44671   3.418  14.896   3.173  0.1793 -0.1701  0.0353
28488W        W44672  15.622   8.654   4.133  0.0816  0.3440  0.0567
28489W        W44673  18.190  11.982   0.501  0.2068  0.1620 -0.1977
28490W        W44674   7.006  19.384   3.761  0.1120  0.0170 -0.0909
28491W        W44675  12.084  18.554   2.785 -0.1720  0.1670 -0.3735
28492W        W44676  17.501   2.507   3.178 -0.2013  0.2188 -0.2527
28493W        W44677   5.678  11.256   2.396 -0.1230 -0.0189 -0.4842
28494W        W44678  13.626  13.275   3.165  0.3809 -0.0171 -0.0489
28495W        W44679  18.066  16.314   3.410  0.2813  0.3244 -0.4186
28496W        W44680  18.832  13.719  12.657 -0.0337  0.3488 -0.2354
28497W        W44681   0.666  18.093  14.597  0.1757  0.1066  0.2334
28498W        W44682  10.074  19.159   1.217 -0.3303 -0.0907 -0.1190
28499W        W44683  18.934  17.212   4.756  0.2642 -0.1356 -0.0430
28500W        W44684   6.124   8.318   2.962  0.3182 -0.0356 -0.1033
28501W        W44685  16.956  13.395   4.011 -0.2787 -0.2033 -0.0004
28502W        W44686  15.806   6.935  11.157 -0.1648 -0.1947 -0.0215
28503W        W44687   9.846   5.228  11.323  0.0137 -0.2343  0.0552
28504W        W44688  13.801   4.811   1.671  0.0983 -0.1941  0.0747
28505W        W44689   9.303   0.498  10.218 -0.0999  0.2604  0.0428
28506W        W44690   4.062   6.071  12.656  0.1851  0.2431  0.4267
28507W        W44691  17.477   3.454   3.696  0.0042 -0.3517  0.0357
28508W        W44692  15.178  10.514  11.193  0.1330  0.1214 -0.1269
28509W        W44693  14.109   1.406   9.971  0.1979  0.1113  0.1790
28510W        W44694   9.485  14.208  14.370 -0.0058 -0.0076 -0.1500
28511W        W44695  13.703   0.303   2.233  0.0686  0.2723 -0.1259
28512W        W44696  15.778   0.899  12.058  0.1517 -0.1619 -0.1420
28513W        W44697  11.381   2.617   2.938  0.1986 -0.0041  0.1613
28514W        W44698   5.665   5.706  14.730  0.1154 -0.1890 -0.1466
28515W        W44699   9.824   7.891  14.079 -0.1649 -0.2534  0.1582
28516W        W44700   2.194   6.968   3.347  0.1389 -0.0005 -0.1642
28517W        W44701   9.833  19.204  14.016 -0.2753 -0.3048 -0.1138
28518W        W44702   8.466   6.661   2.703  0.0565 -0.2615 -0.0237
28519W        W44703  14.609  17.367   3.456 -0.4944  0.0356  0.0289
28520W        W44704   4.156  10.817  14.592  0.2151  0.0192 -0.0978
28521W        W44705   6.225  10.511   4.666  0.1722  0.0002  0.1009
28522W        W44706  14.691   8.397   5.231  0.0320 -0.2479  0.0298
28523W        W44707   7.937   4.961  14.936 -0.0114  0.1252  0.1350
28524W        W44708  11.724   4.982   9.031  0.1235  0.2468  0.1041
28525W        W44709   0.638  18.183  12.103 -0.1621  0.0330 -0.3509
28526W        W44710   1.729   7.708   0.706  0.1488 -0.1033  0.0264
28527W        W44711   7.075   4.882  14.091 -0.0972  0.1095  0.1035
28528W        W44712  14.688  13.519  12.049  0.2405  0.0216  0.1202
28529W        W44713  14.278   3.865  10.974  0.0085  0.0719 -0.0033
28530W        W44714  18.071  10.541   3.056  0.1530  0.1414 -0.2095
28531W        W44715   5.500  16.703  14.947  0.0146  0.0322  0.1198
28532W        W44716  17.894   9.515  10.593  0.1788  0.1757  0.1185
28533W        W44717   0.562   5.275  14.553  0.0507 -0.2263 -0.2734
28534W        W44718  11.195   1.853  11.807 -0.2661  0.0612  0.0393
28535W        W44719   2.327  15.803  10.240  0.0487  0.2804 -0.2337
28536W        W44720   6.078  15.113   4.699 -0.5154 -0.0302 -0.3040
28537W        W44721  17.905  10.457  12.133  0.2861 -0.6209  0.2887
28538W        W44722  16.387   0.355  14.097 -0.0328 -0.3574 -0.4775
28539W        W44723   9.883   8.313   0.937  0.0311  0.1189 -0.2119
28540W        W44724  12.656   9.268   3.124  0.1257 -0.1386 -0.0623
28541W        W44725   1.791  13.097   3.769 -0.0221 -0.1515 -0.1125
28542W        W44726  17.610  10.272  13.182 -0.0290  0.2920  0.1218
28543W        W44727   5.737  10.665  12.165  0.4240  0.2397 -0.1278
28544W        W44728   0.339   0.803   0.071  0.0884 -0.0227 -0.1764
28545W        W44729  16.708   0.386   4.858  0.0610  0.1493 -0.1612
28546W        W44730   7.498  10.654  10.913  0.2869  0.0573 -0.1461
28547W        W44731  12.604  13.124  11.487 -0.2090  0.2619  0.0145
28548W        W44732  10.837   3.039  11.690 -0.1221 -0.3035 -0.0710
28549W        W44733  14.788   5.466  13.357  0.0012 -0.0836  0.2626
28550W        W44734  10.866  11.012   0.831 -0.1170 -0.0287 -0.0640
28551W        W44735   8.632  12.033  12.562 -0.2394 -0.3016  0.1692
28552W        W44736  12.680   3.988   0.603  0.0349  0.1398 -0.0160
28553W        W44737   6.681  13.128  12.774 -0.1560  0.1318  0.2137
28554W        W44738  12.305   0.930  10.710  0.1102 -0.0631 -0.0124
28555W        W44739   0.461  19.088   4.616 -0.1026  0.1050 -0.0565
28556W        W44740   2.634   7.868   3.684 -0.0229  0.2915  0.1848
28557W        W44741  12.491   9.786  14.453 -0.0317  0.0498  0.3756
28558W        W44742   7.944  12.796  12.145  0.0963  0.0539 -0.0486
28559W        W44743  17.406   8.150   9.927 -0.0833 -0.0619 -0.2683
28560W        W44744   5.206   9.515   4.292  0.2445  0.0353 -0.2013
28561W        W44745  11.189  13.331  11.847  0.0065  0.1754  0.1455
28562W        W44746   4.059  18.028   0.961 -0.1372  0.1178  0.2943
28563W        W44747  11.235   4.102   3.833  0.0849 -0.0863  0.0020
28564W        W44748  16.605   1.598  11.115 -0.3345  0.0239 -0.3225
28565W        W44749   4.780  14.212   3.514  0.2954  0.1207  0.0409
28566W        W44750  16.540  16.014  10.968 -0.0240 -0.0647 -0.2931
28567W        W44751  14.995   1.329  14.698  0.0886 -0.0174 -0.2776
28568W        W44752   7.733  14.693  12.323  0.2099 -0.1275  0.0611
28569W        W44753   5.099   7.712  14.812 -0.0229  0.4440  0.3146
28570W        W44754  19.171  15.556  14.190 -0.2961  0.0859  0.1601
28571W        W44755   2.815  19.206  12.749  0.0648 -0.0084  0.1786
28572W        W44756  19.079   0.182   0.883  0.2118 -0.3099  0.1622
28573W        W44757   5.889   5.108   3.506  0.3086 -0.0380  0.0311
28574W        W44758   7.191  16.417   3.253 -0.1599 -0.2943 -0.3036
28575W        W44759   8.972  11.498   4.918 -0.1466 -0.0385 -0.1376
28576W        W44760   5.464  18.474   1.564  0.0733  0.2580 -0.1512
28577W        W44761   1.707  17.285   1.718 -0.1732  0.2154 -0.1049
28578W        W44762   5.790  12.908   4.872 -0.2247 -0.0266  0.0476
28579W        W44763  12.095  14.917   2.319  0.1804 -0.1326 -0.0990
28580W        W44764  13.755  17.374  13.279 -0.2408  0.0159 -0.3003
28581W        W44765   9.565   8.259   1.585 -0.1398 -0.0342  0.0814
28582W        W44766   1.797   4.371   0.886 -0.0487  0.0652  0.2605
28583W        W44767   4.976  18.380   3.673  0.5338  0.1251  0.4733
28584W        W44768   5.633   3.472   1.801 -0.1689 -0.0407 -0.1397
28585W        W44769   1.889   8.847   5.618  0.0159  0.0288  0.0880
28586W        W44770   9.875   7.628   2.208  0.3295  0.2971  0.0943
28587W        W44771  17.827  15.880  11.406  0.2843  0.0348 -0.0714
28588W        W44772  17.996  12.912   3.055  0.2254 -0.0754  0.2607
28589W        W44773  17.241   8.360  13.601 -0.0637 -0.0897 -0.0123
28590W        W44774   9.716   7.007   2.018  0.0557  0.0762  0.0217
28591W        W44775  16.386  15.533  12.065  0.0730 -0.1358  0.0188
28592W        W44776  17.203  18.879   5.263 -0.3939 -0.1032 -0.3069
28593W        W44777   7.560   6.016   2.588  0.0560  0.1432 -0.0776
28594W        W44778   1.327  11.174  10.838  0.1700  0.2085 -0.0415
28595W        W44779  18.857   7.279   1.553 -0.3236  0.1426 -0.1470
28596W        W44780   9.367   4.846   2.097  0.2291 -0.2970  0.2208
28597W        W44781   2.745  19.342   1.001  0.1131  0.0586  0.1147
28598W        W44782   9.205  13.658  13.355  0.3249  0.3169  0.0375
28599W        W44783  12.025   5.943   1.843 -0.0114  0.3197  0.2686
28600W        W44784   0.113  17.614  13.231 -0.0991 -0.2121  0.0030
28601W        W44785   1.222  17.653  13.536  0.1529 -0.0814 -0.0781
28602W        W44786  16.437  12.699   1.053 -0.1933 -0.0515  0.1706
28603W        W44787   6.831  14.182  13.678  0.0918  0.0474 -0.0090
28604W        W44788   4.629   3.290   2.519 -0.1161 -0.0142  0.2468
28605W        W44789   8.836   9.645  12.309  0.0827  0.3031 -0.1661
28606W        W44790   6.383  17.937   0.336 -0.2283  0.0338  0.0311
28607W        W44791  11.856   2.986  11.779  0.1392 -0.3664 -0.0488
28608W        W44792  10.949  16.732  10.472 -0.0025 -0.0577 -0.2078
28609W        W44793   7.995  11.721   2.974  0.1748  0.1795  0.3068
28610W        W44794   2.819  12.988   0.327  0.1424  0.2501 -0.0569
28611W        W44795  18.813   5.804  13.407 -0.1659  0.0423 -0.2727
28612W        W44796  16.279  17.653   0.422  0.2338 -0.2948  0.3592
28613W        W44797   8.281   9.824  13.522 -0.0375  0.0131 -0.0473
28614W        W44798   0.631  16.925  11.998 -0.1320 -0.0719  0.0614
28615W        W44799   1.297  17.870   4.815 -0.0356  0.1889 -0.1694
28616W        W44800  10.076   4.091  13.150 -0.1309  0.1681 -0.0747
28617W        W44801  18.887   6.261   1.530 -0.3086  0.0420 -0.2863
28618W        W44802  13.296   4.467  12.092 -0.1376  0.0462  0.2237
28619W        W44803  10.748  13.082  11.723 -0.1183 -0.1846 -0.2331
28620W        W44804   3.435   3.788   2.979 -0.1709 -0.5159  0.0186
28621W        W44805   1.432   3.608  13.590 -0.3124 -0.0580  0.2392
28622W        W44806  17.393  10.598   1.860 -0.2623 -0.2874  0.3695
28623W        W44807   9.080  12.612  11.016  0.2651  0.2214 -0.1130
28624W        W44808   5.657   2.806  13.089 -0.1815  0.0011 -0.4587
28625W        W44809   3.847   4.924   1.765 -0.1415  0.1300  0.1296
28626W        W44810   8.955  17.426  13.888 -0.0918 -0.1866 -0.2029
28627W        W44811  16.423   5.891  14.266  0.0565 -0.0430  0.3683
28628W        W44812  12.927   8.729   4.574 -0.3430 -0.2714 -0.1990
28629W        W44813   2.154  13.428  13.282  0.0610 -0.0895 -0.4656
28630W        W44814   1.117   8.966   3.578  0.3531  0.2109 -0.1117
28631W        W44815   2.217  17.875   1.240  0.0181 -0.2361 -0.2428
28632W        W44816   3.074   4.738  12.132 -0.2663  0.0757 -0.4414
28633W        W44817  15.152   8.197  10.633 -0.1100 -0.2071  0.2327
28634W        W44818  10.323  13.658   2.382 -0.0918  0.0811  0.2696
28635W        W44819   9.711   0.766   1.227 -0.0339  0.0677  0.1699
28636W        W44820  12.681  15.340   1.773 -0.2976 -0.0785 -0.1179
28637W        W44821   8.221   1.256   4.320 -0.0346 -0.0121  0.1678
28638W        W44822  14.269   1.746  11.484 -0.2852 -0.3207  0.2076
28639W        W44823   2.060  13.598   1.180 -0.1641 -0.2065  0.2073
28640W        W44824  17.757  15.515  13.495 -0.2659 -0.2101  0.3010
28641W        W44825  17.082   4.423  11.398 -0.0139  0.1725 -0.0193
28642W        W44826  17.009  10.924   1.057 -0.0567 -0.1638  0.3572
28643W        W44827  16.139  14.164   1.326 -0.0800 -0.2759  0.2792
28644W        W44828  16.317  17.648  14.363  0.1618 -0.1099 -0.0386
28645W        W44829  11.249  18.566  12.723  0.0245  0.1500  0.1652
28646W        W44830  11.394  13.065  14.792  0.1475  0.0724 -0.1642
28647W        W44831  15.721   8.848  13.684 -0.0691  0.0212 -0.2148
28648W        W44832  13.919  10.274   0.630 -0.4113 -0.0643 -0.0633
28649W        W44833  15.387  19.186   2.681 -0.1438  0.2905  0.0752
28650W        W44834   5.789   4.290   3.199  0.0072 -0.1027  0.0608
28651W        W44835   7.311   8.012  14.114  0.0100 -0.1067 -0.0590
28652W        W44836  18.580   1.204  12.829  0.2014  0.1255 -0.1200
28653W        W44837  11.450   3.789   0.249  0.1402 -0.0507 -0.0161
28654W        W44838   1.250  16.875   5.099  0.2516 -0.1846  0.2672
28655W        W44839   1.998  12.385   2.953 -0.1200 -0.0158  0.0131
28656W        W44840   3.189   8.230   0.059  0.1801  0.1902 -0.2559
28657W        W44841  10.233  14.972  12.549 -0.3366 -0.0804  0.2060
28658W        W44842  14.205  12.374  11.239 -0.0452  0.1154  0.0906
28659W        W44843  14.613   3.288   2.775  0.0516 -0.1670  0.0639
28660W        W44844   8.522  16.681   4.467 -0.1225  0.0178 -0.1284
28661W        W44845   8.414  13.663   1.243  0.0373  0.0614  0.2588
28662W        W44846  11.011  12.485   3.761  0.1775  0.2759  0.0698
28663W        W44847  16.258   5.451   2.059  0.0679  0.2305 -0.0041
28664W        W44848  11.285  19.120  12.734 -0.0858  0.1742  0.0359
28665W        W44849  16.376   3.690  14.465  0.0864 -0.2247 -0.0942
28666W        W44850  18.287   4.922  13.326 -0.0205 -0.0776  0.0068
28667W        W44851  10.674   5.200  11.837 -0.4305 -0.0778  0.1218
28668W        W44852  14.600   6.900  13.383 -0.2479 -0.2863  0.2673
28669W        W44853  18.416   5.366   4.313 -0.1301 -0.1471  0.2854
28670W        W44854   7.918   9.420   0.171  0.1217 -0.2864 -0.3941
28671W        W44855  13.978  12.228  10.792  0.1239  0.1047 -0.0335
28672W        W44856   8.868   9.526   4.106 -0.0367  0.1538  0.1932
28673W        W44857  11.055   3.918   0.537  0.0130  0.3537 -0.3200
28674W        W44858  17.550  17.664   3.272 -0.0958 -0.2661  0.0428
28675W        W44859   8.350  17.550   0.291 -0.1489 -0.2867 -0.0470
28676W        W44860  19.373   5.984  14.929  0.0791  0.1733  0.1627
28677W        W44861  17.167   1.160   2.722 -0.5171 -0.0951  0.2290
28678W        W44862   5.650  10.579   2.383  0.1778  0.0823 -0.2266
28679W        W44863   3.499  17.818  14.727  0.0185 -0.2155 -0.0532
28680W        W44864  16.912   4.757  13.634 -0.0942 -0.1434  0.1682
28681W        W44865   8.743  11.499  13.733  0.0177 -0.0845 -0.0521
28682W        W44866  16.404  10.451  12.723  0.3541 -0.1199  0.2848
28683W        W44867  18.522   4.844  10.831 -0.3997  0.1027 -0.0828
28684W        W44868   6.760   5.998  10.541 -0.1372 -0.0604  0.2238
28685W        W44869   6.772  14.728   1.091  0.5013 -0.1321  0.3849
28686W        W44870  11.136   7.386   2.782  0.3507 -0.1067 -0.2619
28687W        W44871   7.738  11.742   4.320 -0.0419  0.1395 -0.1115
28688W        W44872   9.466   5.186   3.054 -0.0800  0.0472  0.1939
28689W        W44873  11.086  18.139   3.778  0.4441 -0.2173  0.0109
28690W        W44874  10.595  17.865  14.639 -0.0454  0.0653 -0.2425
28691W        W44875  10.136  11.367  14.765 -0.1766 -0.1037 -0.0626
28692W        W44876  13.253   7.999  14.539 -0.2391  0.0347 -0.1111
28693W        W44877   4.682  14.930  12.466  0.0307 -0.1440 -0.1855
28694W        W44878  10.586  15.553   0.318 -0.0056  0.1227  0.1648
28695W        W44879  17.730   1.150   5.438 -0.0005  0.0073 -0.1161
28696W        W44880   3.085   2.155  14.126 -0.0706 -0.1737  0.1478
28697W        W44881  14.271  14.446   4.906  0.0471  0.0736 -0.1848
28698W        W44882   2.702  14.725   1.592  0.1114  0.0643 -0.3417
28699W        W44883  12.300   1.282   1.566  0.0936 -0.3013  0.0921
28700W        W44884   7.308  16.131  13.582  0.1518  0.2226 -0.0261
28701W        W44885  18.415   2.533  13.050  0.1115  0.0488  0.0586
28702W        W44886   1.075   9.046   5.117  0.0511 -0.4009 -0.3377
28703W        W44887   9.939   2.423  11.691 -0.2388  0.1476  0.0841
28704W        W44888  18.071   1.137  13.068  0.0504  0.1788 -0.0864
28705W        W44889   5.468  13.691  10.013 -0.1056  0.0079 -0.2934
28706W        W44890  19.037   3.385   3.927 -0.2016 -0.1923  0.1703
28707W        W44891   8.593  16.929  14.568 -0.1487  0.0517 -0.0479
28708W        W44892   6.890  15.715  12.802 -0.2819 -0.3768 -0.0298
28709W        W44893  10.625   5.898  14.482  0.1947 -0.1075  0.2425
28710W        W44894   1.575   2.285  13.224  0.1637 -0.1830  0.0408
28711W        W44895  16.846  18.836   1.643  0.0274 -0.0925 -0.2328
28712W        W44896  17.552  12.741  11.174  0.0597  0.3047 -0.0807
28713W        W44897   2.427  16.040   0.005 -0.0229  0.0409 -0.0248
28714W        W44898   0.916  11.104   4.415 -0.1920 -0.0619 -0.1694
28715W        W44899   2.570   3.359   3.716  0.2314 -0.0257  0.3222
28716W        W44900   4.639  15.016   5.611 -0.2216 -0.0509 -0.1609
28717W        W44901   7.129  19.243  12.219  0.1415  0.0322  0.4226
28718W        W44902   9.854   6.683   4.990 -0.1486 -0.4695 -0.0866
28719W        W44903  15.554  19.057   4.746 -0.0205  0.0031 -0.1639
28720W        W44904   1.879  16.018   0.153  0.3517  0.1513  0.0178
28721W        W44905  10.829   7.399   9.951 -0.2016 -0.1764 -0.0005
28722W        W44906  18.294   7.016   3.991  0.1269 -0.2502 -0.2077
28723W        W44907  10.541   5.196  13.604  0.1146 -0.0546  0.0363
28724W        W44908   1.563   9.167   5.810  0.0233 -0.1998  0.2296
28725W        W44909   8.680  14.373   1.883  0.0310  0.0436 -0.1040
28726W        W44910  14.801   8.140   0.709 -0.5254  0.2496  0.0140
28727W        W44911   2.015   3.172  12.440  0.2392 -0.0783 -0.2126
28728W        W44912   0.196  12.645   5.921  0.0912 -0.3895 -0.2342
28729W        W44913  17.723  14.552   4.509  0.3454  0.1495  0.0381
28730W        W44914   9.548  12.054   9.893 -0.0422 -0.1622  0.0190
28731W        W44915  17.119  16.748  13.134  0.1483  0.2488 -0.0101
28732W        W44916  18.256  16.591   2.461  0.1508  0.1404  0.2244
28733W        W44917   0.911  18.462   5.273 -0.0477 -0.4398 -0.0532
28734W        W44918   0.238  18.227  11.319  0.1869  0.0702  0.0182
28735W        W44919  16.228   6.364  14.867 -0.0872  0.2809 -0.0694
28736W        W44920  14.728   6.830  14.044  0.2581  0.5063 -0.1417
28737W        W44921   3.556   0.996   0.440  0.0398 -0.0926  0.0170
28738W        W44922   3.054   9.239   2.196 -0.0951  0.0018  0.1938
28739W        W44923   3.938  15.193   2.131  0.2076  0.0477 -0.1143
28740W        W44924  11.152   2.353  12.179 -0.1069 -0.0510 -0.2233
28741W        W44925   3.246   6.970   9.582  0.5038  0.1764 -0.1084
28742W        W44926  18.559   6.074   4.936  0.1350  0.1145 -0.0053
28743W        W44927  14.528   4.296   1.208 -0.5548 -0.0425  0.1501
28744W        W44928  10.106   1.072   1.526  0.1996 -0.1702  0.2737
28745W        W44929   2.423  15.242   3.859 -0.1253  0.2178 -0.3315
28746W        W44930   1.674  11.358  11.824  0.1892 -0.0349  0.1502
28747W        W44931  19.161  18.888  10.950  0.1014 -0.0885  0.0509
28748W        W44932   2.487   9.371   4.986 -0.0847  0.0076  0.0805
28749W        W44933   5.467  18.868   0.682  0.0770 -0.1633  0.1793
28750W        W44934  17.507  10.679   9.631 -0.1528 -0.1971 -0.3084
28751W        W44935  12.521   3.616  13.387  0.2201 -0.1123  0.0005
28752W        W44936  12.530   0.912  14.137  0.1358 -0.3494 -0.5124
28753W        W44937   3.502   1.327  12.003  0.0458 -0.2849 -0.1047
28754W        W44938  10.118   3.532  11.705  0.2967  0.1761  0.0640
28755W        W44939   5.242   6.975  10.235 -0.0137  0.2816 -0.2420
28756W        W44940   4.505   3.412   5.447 -0.0156 -0.1550 -0.3011
28757W        W44941  14.871  10.750   9.061 -0.0116  0.0799  0.1126
28758W        W44942   3.079  13.215  11.375 -0.0714 -0.0975 -0.0739
28759W        W44943  16.657   7.856   0.817  0.3945  0.2652  0.3593
28760W        W44944   1.723   4.242  14.541  0.0208  0.1165  0.2929
28761W        W44945   2.534   3.070  11.605 -0.1015 -0.0623  0.3001
28762W        W44946  15.237   4.380   9.895 -0.0509 -0.0624  0.1472
28763W        W44947  17.307  13.596   2.824 -0.0158 -0.1342  0.1502
28764W        W44948  15.426  15.414   5.822  0.0467 -0.1080  0.4441
28765W        W44949   3.409   8.505  12.961 -0.0635  0.2229  0.1007
28766W        W44950   0.122   6.863  10.122  0.0363 -0.3030  0.0657
28767W        W44951   6.553   1.717  10.882 -0.2609  0.2838 -0.4583
28768W        W44952   9.581   2.917  10.473  0.2267  0.1337 -0.1522
28769W        W44953   3.169  17.922  12.289 -0.3953 -0.1760 -0.1145
28770W        W44954  10.431  11.526   3.347 -0.1681  0.0130 -0.1659
28771W        W44955   8.206   7.546  11.964 -0.2657 -0.0352  0.0831
28772W        W44956  11.850  10.306   5.762 -0.0800  0.0174  0.1274
28773W        W44957  16.250  17.021   5.145 -0.0198  0.3298  0.0460
28774W        W44958   7.328   4.265  10.273  0.3005  0.3607 -0.0725
28775W        W44959   4.774  18.075   1.830  0.0773  0.1844 -0.0274
28776W        W44960   2.199   8.616  10.515  0.0062  0.0289 -0.1542
28777W        W44961   0.416  18.218  14.103  0.0101 -0.1073 -0.2309
28778W        W44962   8.608  10.280   5.547 -0.0574 -0.0561  0.2208
28779W        W44963   0.648  18.970  13.344 -0.2647 -0.2445  0.1042
28780W        W44964   3.612  13.821  13.550 -0.2788  0.0422  0.0255
28781W        W44965  13.252  16.222   1.002 -0.1687  0.0572 -0.0114
28782W        W44966  10.351   7.388  11.789 -0.5139  0.0830 -0.3567
28783W        W44967  14.843   1.649  14.393  0.1523  0.3154  0.3741
28784W        W44968   7.250  10.703   1.549 -0.2578  0.1398 -0.0972
28785W        W44969   8.149  18.405  12.324 -0.1968 -0.1383  0.1264
28786W        W44970   2.717   0.245  13.782  0.1205 -0.0825 -0.2473
28787W        W44971   9.471  15.096   2.926 -0.1032 -0.2774 -0.0502
28788W        W44972   1.073  15.283   1.030  0.2534  0.2023  0.0635
28789W        W44973  14.098  14.168   3.082 -0.4953  0.0318 -0.1774
28790W        W44974  12.281  14.337  12.055  0.2466  0.1391  0.0588
28791W        W44975   3.516   1.318   2.887 -0.2443 -0.1885 -0.5103
28792W        W44976   3.622  17.335  14.580  0.0348  0.0436  0.1385
28793W        W44977  14.311   5.515   0.210  0.0994 -0.3076 -0.0677
28794W        W44978  16.765  14.161   0.569 -0.1182  0.0903 -0.1941
28795W        W44979  18.336   7.822   0.261 -0.0054  0.1196  0.3602
28796W        W44980  10.746   3.813  14.008 -0.0822 -0.0860  0.2212
28797W        W44981  17.587  14.825  12.018 -0.2665  0.4530  0.0316
28798W        W44982  14.953   7.137   2.416 -0.1585 -0.0494 -0.0452
28799W        W44983  11.794   1.490   1.633  0.1708  0.2346 -0.0923
28800W        W44984  13.015  11.903  14.053 -0.0290  0.2404  0.0673
28801W        W44985  12.581   7.679   9.987 -0.0556  0.2502  0.2007
28802W        W44986  13.337   9.954   1.104 -0.1722 -0.1931  0.1921
28803W        W44987  11.861  18.469   0.297  0.1190 -0.0265 -0.0071
28804W        W44988   1.666   1.817   2.245 -0.1657 -0.1165 -0.1885
28805W        W44989  10.980  18.675   3.687 -0.0732  0.0925 -0.2201
28806W        W44990   2.673   0.892   1.996  0.0163 -0.0716  0.2391
28807W        W44991  17.760  13.107   5.026 -0.0223 -0.1360 -0.2842
28808W        W44992  10.611   8.069  11.089  0.0752  0.0658  0.0769
28809W        W44993   4.856  12.230   2.095 -0.0247  0.1601  0.0258
28810W        W44994   0.423  15.362   2.654 -0.1149 -0.1864  0.0651
28811W        W44995  18.167  16.345   5.884  0.1115  0.0114 -0.1388
28812W        W44996  11.567   2.782   9.407  0.0813  0.0176  0.3136
28813W        W44997   3.100   2.855  12.349  0.2388 -0.0454  0.1976
28814W        W44998   4.823   4.040  14.907  0.1160  0.6059  0.0187
28815W        W44999  10.782   3.228   0.865  0.1810  0.4883  0.1006
28816W        W45000   2.846  14.221   0.525  0.1413  0.0290 -0.0230
28817W        W45001   5.429  12.311  14.890  0.0792 -0.0522  0.1265
28818W        W45002  11.095   3.233   3.346  0.0309 -0.1383 -0.3420
28819W        W45003   6.196  12.885  12.688 -0.0498  0.2678  0.2089
28820W        W45004   0.319   1.399   1.261  0.0247  0.1809 -0.2410
28821W        W45005   0.873   1.729   3.327  0.1747  0.0821 -0.1043
28822W        W45006   7.929  14.467  14.307 -0.1449  0.0575  0.0348
28823W        W45007   0.668  18.789   3.190 -0.1766 -0.0610  0.1211
28824W        W45008   3.901   9.944   1.222  0.4730  0.5980  0.1980
28825W        W45009  13.665  10.627  13.106 -0.4151  0.0598  0.0890
28826W        W45010  17.092   6.153   5.021 -0.1532 -0.0119 -0.0218
28827W        W45011  16.366  19.308   2.489 -0.0197  0.0704  0.0479
28828W        W45012  18.157   6.346  12.059 -0.0344 -0.0014 -0.0865
28829W        W45013   3.948  13.187  14.113  0.0265  0.0004  0.2367
28830W        W45014   0.123  10.878   1.516  0.3275  0.1654  0.0804
28831W        W45015  18.724   8.486  12.676 -0.2810  0.0836  0.2250
28832W        W45016   4.328   9.130   3.277 -0.0427  0.3884 -0.1762
28833W        W45017   2.984   5.450  11.046  0.0039 -0.1869 -0.0669
28834W        W45018   0.564  14.469  11.507 -0.0901 -0.2231 -0.2177
28835W        W45019   5.860   5.801   2.334 -0.0328  0.0547  0.0040
28836W        W45020  15.993  17.533   4.375 -0.1036 -0.2090 -0.0100
28837W        W45021  14.576   9.785   1.559 -0.1879 -0.0314  0.0965
28838W        W45022  13.396  10.766  10.972  0.0364 -0.5219 -0.0093
28839W        W45023  16.016  19.129   0.240 -0.0611  0.0554  0.4490
28840W        W45024  14.547   4.614  14.548  0.0972  0.0896 -0.1952
28841W        W45025  18.113   8.957  11.407  0.1113  0.4481  0.2194
28842W        W45026   8.589   8.145  10.159 -0.2355 -0.0987  0.0012
28843W        W45027   3.371   4.029   4.678  0.0812 -0.3567 -0.1633
28844W        W45028  10.629  19.028   3.476 -0.2783  0.0192  0.0821
28845W        W45029  13.495   5.880  11.926 -0.2374 -0.0044  0.1199
28846W        W45030  14.122  17.333   1.704  0.2074  0.0542  0.0206
28847W        W45031  10.683  10.162  13.264  0.1831 -0.1945 -0.0973
28848W        W45032  17.626   8.858  11.438  0.3018 -0.1782 -0.0154
28849W        W45033  15.189   4.111   1.745  0.1075  0.1581  0.0118
28850W        W45034  19.069  18.906  12.684 -0.2686  0.2203  0.1245
28851W        W45035  18.448   5.604  11.553  0.0022 -0.1925 -0.0276
28852W        W45036   1.211   2.897   4.530  0.0172  0.1988  0.0864
28853W        W45037  12.155   4.245   9.990 -0.0384 -0.0481  0.0159
28854W        W45038  13.892  13.418   4.277  0.4039  0.0236 -0.1022
28855W        W45039   2.926   3.054  12.750 -0.1179  0.2062  0.0064
28856W        W45040  10.661   3.172   3.028  0.1678  0.2111  0.0287
28857W        W45041  17.696  12.062   0.570  0.3759  0.3309  0.0432
28858W        W45042   1.226  11.177   2.035  0.1798 -0.1738 -0.4818
28859W        W45043  12.185  19.197   1.722  0.5393 -0.2304 -0.1957
28860W        W45044   8.569   2.122  11.819  0.5867  0.0768  0.0276
28861W        W45045  19.356  13.783  12.466  0.0623 -0.2761  0.2205
28862W        W45046  15.793   0.326   2.124  0.1866 -0.1123  0.1446
28863W        W45047   5.107  12.490  12.665  0.1030 -0.1269  0.3179
28864W        W45048   2.921   2.543  11.575 -0.1321 -0.4290 -0.1155
28865W        W45049   4.788   2.436   3.476 -0.0798 -0.1291  0.0272
28866W        W45050   3.246  11.096   1.476 -0.2772 -0.0899  0.1279
28867W        W45051  14.827   1.030  11.087 -0.0338 -0.2180 -0.1235
28868W        W45052   0.782   0.247  12.772  0.1641 -0.4767  0.2629
28869W        W45053  15.424   9.134  13.301  0.1062 -0.1582  0.2112
28870W        W45054  11.163   5.078  11.637  0.3295 -0.0588  0.0426
28871W        W45055   7.727  14.658   4.779  0.0202  0.2902 -0.4904
28872W        W45056   6.007  11.392   5.782  0.1349 -0.3217  0.0468
28873W        W45057   6.339   3.638   2.808  0.1232 -0.0763 -0.1341
28874W        W45058   6.640  10.503  14.247 -0.0519  0.0649  0.0428
28875W        W45059  14.825  15.902   9.890  0.2912  0.2789 -0.3301
28876W        W45060  11.998   0.381  12.234  0.2605 -0.1215 -0.0766
28877W        W45061   1.532   3.489  13.097 -0.0039 -0.0505 -0.1038
28878W        W45062  14.220   4.613  12.084 -0.0777  0.0970  0.1368
28879W        W45063   9.844  12.239   4.415  0.0739 -0.1637 -0.2983
28880W        W45064  18.945   2.905   4.757 -0.3505  0.0382 -0.1043
28881W        W45065   5.134   2.950   0.254  0.1693  0.3118  0.3010
28882W        W45066  14.069  12.333   0.972 -0.3536  0.0567  0.1460
28883W        W45067   0.327   6.320   0.093 -0.2302 -0.1059 -0.1121
28884W        W45068   6.025  17.334  13.189  0.0462 -0.2017  0.1640
28885W        W45069  13.953  16.738  11.322 -0.4302 -0.0894 -0.0537
28886W        W45070   9.623  11.916  12.523 -0.1746  0.1609 -0.3846
28887W        W45071  14.097   0.508   3.792 -0.3360  0.1428  0.2405
28888W        W45072   5.260   5.000  11.282  0.0866 -0.1087 -0.2487
28889W        W45073   6.699  15.382  11.012  0.1421 -0.2240  0.1388
28890W        W45074  10.254   1.649  10.516 -0.0355  0.1434 -0.2936
28891W        W45075   2.539  14.648  11.992  0.4985  0.0919  0.0294
28892W        W45076   8.749   1.814   1.084 -0.1250  0.0994 -0.2327
28893W        W45077   6.843   5.486  10.929 -0.0884  0.1449  0.1629
28894W        W45078   6.174   5.125  14.292  0.0724  0.0674  0.0028
28895W        W45079   3.800   0.493   1.586 -0.3920 -0.1055 -0.0112
28896W        W45080  10.944   5.746   9.902 -0.2016 -0.2291  0.1499
28897W        W45081  16.123  10.593   4.090  0.1029 -0.0611 -0.0517
28898W        W45082   0.069  10.033   3.036 -0.1996 -0.1356 -0.2607
28899W        W45083   5.771   7.451  11.960 -0.1536  0.0148  0.1846
28900W        W45084  11.356   3.843   4.852  0.0256 -0.0390  0.1442
28901W        W45085  15.112   5.908  14.088 -0.0324  0.1196 -0.3456
28902W        W45086   2.198   5.636  12.074  0.0414  0.1935 -0.1342
28903W        W45087  19.346  15.652  11.662 -0.1780 -0.1054 -0.1082
28904W        W45088   5.761  11.840  11.470 -0.0824  0.0961  0.2149
28905W        W45089  18.134  11.764   5.804  0.1587  0.0727 -0.2329
28906W        W45090   0.156   4.374  10.369  0.0045  0.1151 -0.1036
28907W        W45091   5.413  16.293   2.886 -0.2805 -0.2517 -0.0309
28908W        W45092  15.469   0.748   3.637 -0.0959  0.1204  0.0942
28909W        W45093  18.367  17.229  12.820  0.1345 -0.1313 -0.0154
28910W        W45094   5.582   1.006  13.267 -0.0833  0.0384 -0.5749
28911W        W45095   6.325   3.452   2.133  0.1674  0.3007 -0.0830
28912W        W45096   1.506  11.662   5.065  0.1789  0.1269 -0.2693
28913W        W45097   0.621   9.600   1.694  0.1894 -0.2048 -0.2503
28914W        W45098  18.881  16.402   1.099  0.0207 -0.0629 -0.1421
28915W        W45099  11.380   4.625  14.496 -0.0532 -0.0908 -0.2675
28916W        W45100  10.507  17.935   1.707  0.0254  0.1971 -0.1883
28917W        W45101   4.108   4.953   2.151 -0.0129  0.0086  0.1292
28918W        W45102  11.351   8.022   3.905 -0.0138 -0.1234  0.1407
28919W        W45103   1.593   3.331  11.090 -0.0446  0.1354 -0.2933
28920W        W45104  15.697  19.268  10.011 -0.1077 -0.0756  0.1218
28921W        W45105  17.942  17.775  11.551 -0.2202  0.1583  0.1226
28922W        W45106   1.319   5.758   1.793  0.1026 -0.0001  0.1467
28923W        W45107   8.285   7.783   3.954 -0.2161  0.0867  0.2181
28924W        W45108   1.272  11.444   2.405  0.2245  0.1806  0.1266
28925W        W45109  14.233  16.010   1.869 -0.0922 -0.0552  0.2810
28926W        W45110   4.045   9.215   3.672  0.0702  0.1597 -0.0381
28927W        W45111  17.810   3.299  12.368  0.3181 -0.0059  0.1160
28928W        W45112   1.860  18.529   5.243 -0.1278  0.0809  0.1017
28929W        W45113  15.871  10.713  11.215  0.0599  0.0790 -0.1926
28930W        W45114  15.532   3.352   2.808  0.1872  0.1904 -0.1476
28931W        W45115  10.319  17.425  13.685  0.1104 -0.0043  0.1632
28932W        W45116   6.504   9.173   4.230  0.0613 -0.0324  0.3974
28933W        W45117   4.220   6.601  13.332  0.4452 -0.0895 -0.1269
28934W        W45118   1.953   2.313  11.477 -0.1995 -0.0434  0.0706
28935W        W45119   9.707   0.056   5.554 -0.1047  0.2457  0.2639
28936W        W45120  11.799   4.999  13.028  0.3554  0.3056 -0.0367
28937W        W45121   1.603   1.318   3.349 -0.1687 -0.1164  0.0583
28938W        W45122  18.871   9.076  10.965 -0.0483  0.1479  0.1389
28939W        W45123   8.096   1.990   4.128 -0.0669 -0.1608 -0.0469
28940W        W45124   3.954   2.790   3.525 -0.2573 -0.1442 -0.0635
28941W        W45125  12.923   8.314  12.881 -0.1353  0.0776 -0.0669
28942W        W45126   2.070  11.545   3.898 -0.1356 -0.1664  0.1799
28943W        W45127   8.349   3.868  14.650  0.0193 -0.0532  0.2850
28944W        W45128  19.259   2.055   2.200  0.0103 -0.2454  0.4155
28945W        W45129  17.952   0.520  11.317 -0.0661 -0.2219  0.0781
28946W        W45130  16.332  10.544  11.165 -0.4711 -0.1678  0.0852
28947W        W45131  17.266  13.157  11.238  0.0518 -0.0009  0.3938
28948W        W45132  11.600   9.845  14.325  0.0884 -0.0682  0.0623
28949W        W45133  13.278  11.823  14.494 -0.0143  0.0093 -0.2180
28950W        W45134  10.261  15.658  11.479  0.0931 -0.1012 -0.3917
28951W        W45135  13.094  15.550  13.001  0.1504 -0.2522 -0.3034
28952W        W45136   9.013  12.100   5.649 -0.2083  0.1037  0.1240
28953W        W45137   9.696   6.287   2.437  0.1013  0.0360 -0.1809
28954W        W45138  19.009   0.314  14.673 -0.1766 -0.1606 -0.0400
28955W        W45139   9.417  18.877  14.480 -0.0838  0.2410  0.1645
28956W        W45140  13.750   7.408  10.824  0.0932 -0.2060  0.3805
28957W        W45141  12.188  14.587  11.651 -0.3668 -0.4451  0.2528
28958W        W45142  18.349   9.040   0.434  0.1657 -0.0958  0.2780
28959W        W45143  11.020   8.814   4.323 -0.1912  0.1483  0.1293
28960W        W45144   1.515   5.130  12.407 -0.1419  0.0121 -0.1751
28961W        W45145  17.756   4.709  14.807  0.1758 -0.1928  0.1170
28962W        W45146  16.278  10.497   0.485  0.3512 -0.0769 -0.0325
28963W        W45147  11.195   2.351   3.376 -0.1103  0.2014 -0.2204
28964W        W45148  15.407   5.175  12.421 -0.2186  0.2637  0.1856
28965W        W45149   0.905  11.031   2.465 -0.1284 -0.0218 -0.1211
28966W        W45150  18.727   0.783  14.900 -0.0543  0.3049  0.2768
28967W        W45151  13.860   4.309  13.850 -0.3588 -0.0587  0.1488
28968W        W45152  11.802  12.462   0.136  0.1061  0.0365  0.1553
28969W        W45153   5.342  17.131   1.835  0.0596 -0.0869  0.1346
28970W        W45154  17.355   7.515   4.788 -0.1757  0.0389 -0.2310
28971W        W45155  16.941  12.242  14.541  0.0527  0.0271  0.0159
28972W        W45156  13.164   0.308   3.590 -0.2006 -0.1754 -0.1800
28973W        W45157   9.461  10.974  11.453  0.0428  0.1724  0.2652
28974W        W45158  12.988   8.468  13.684  0.3189  0.1084  0.0954
28975W        W45159  16.271   5.958   4.754  0.1831  0.2899 -0.2011
28976W        W45160  16.667  18.865   3.676 -0.0179 -0.1830 -0.0971
28977W        W45161  18.435   3.298   3.933  0.1064 -0.1273  0.2289
28978W        W45162   0.667  11.799   4.777  0.1752  0.0289 -0.0024
28979W        W45163  10.615  13.767  11.222  0.0062  0.0942  0.0847
28980W        W45164  17.277   1.660   4.589  0.2283 -0.2546  0.0829
28981W        W45165  14.319  15.991   4.675 -0.3735  0.0515  0.1885
28982W        W45166  18.722   0.024   3.328  0.0372 -0.4148 -0.0363
28983W        W45167   1.506  14.859   4.986 -0.0148 -0.0445 -0.1117
28984W        W45168  12.854  15.109   3.491  0.0366  0.0580  0.0305
28985W        W45169  11.229   9.365  14.461  0.1181 -0.2273 -0.0296
28986W        W45170   6.049  11.978   2.943 -0.1215 -0.1437  0.2852
28987W        W45171  18.981  13.844   5.269  0.0180  0.1345 -0.1896
28988W        W45172  16.493   2.680  11.207 -0.0741  0.0276  0.2499
28989W        W45173   5.234   5.757   1.021  0.4452  0.0569 -0.1405
28990W        W45174   3.407   9.001   5.135  0.1164 -0.1392  0.0927
28991W        W45175   7.315   1.005   2.532  0.1816 -0.0425 -0.1564
28992W        W45176  16.765  15.084  10.718  0.0872 -0.0211  0.1660
28993W        W45177   2.770   0.234   5.301  0.0142  0.1196  0.0631
28994W        W45178  12.242  15.176  12.582 -0.1133 -0.0296 -0.0469
28995W        W45179   6.848   4.535  11.669 -0.0505  0.4089  0.3874
28996W        W45180  13.011  16.938   5.434  0.5157  0.1290  0.0481
28997W        W45181  15.763   4.695  14.170 -0.1078  0.0453  0.0996
28998W        W45182   3.339  10.713   4.657 -0.1203 -0.2355 -0.1024
28999W        W45183  18.586  15.378   3.461 -0.2151 -0.1232 -0.1089
29000W        W45184   5.214  12.752   2.065 -0.0689  0.3662  0.3812
29001W        W45185  14.947   0.514   0.940 -0.0218 -0.1037 -0.0340
29002W        W45186   3.242   2.457  12.066  0.1318  0.2807  0.2610
29003W        W45187  15.239  14.028  10.675  0.1641  0.4001 -0.1453
29004W        W45188  14.812  12.975  14.850  0.2902 -0.0476  0.2229
29005W        W45189   0.830   5.482  13.026  0.2650 -0.3685 -0.0594
29006W        W45190   0.606   1.523  13.531  0.0526 -0.0508 -0.2597
29007W        W45191   8.015  15.582  14.573 -0.4165  0.2014  0.1674
29008W        W45192  13.933   5.598  11.805  0.1368 -0.1890  0.2223
29009W        W45193   8.307  18.723   4.716  0.5581  0.0204 -0.1043
29010W        W45194  13.559   2.771   1.681  0.1017 -0.0864  0.3091
29011W        W45195  18.202  16.644  11.538 -0.0816  0.1546 -0.0999
29012W        W45196   5.464   3.552   9.289  0.1618 -0.0585 -0.0810
29013W        W45197  14.518   8.503  14.952  0.1606  0.2609 -0.0144
29014W        W45198  13.774   9.169  11.570  0.2823  0.1905 -0.3498
29015W        W45199  10.663   5.837   0.831  0.1653  0.0829 -0.1408
29016W        W45200  18.886   3.730  12.663 -0.2292  0.0432 -0.1692
29017W        W45201  16.538   9.134   0.657  0.1128  0.0043  0.2856
29018W        W45202   0.316   1.269   0.239 -0.0293 -0.0282 -0.0989
29019W        W45203   1.102   3.213  13.778 -0.0955 -0.0949  0.0012
29020W        W45204   9.969   7.388   5.434  0.1554 -0.1374  0.1239
29021W        W45205   0.804  10.633  13.542  0.0130  0.0326 -0.2555
29022W        W45206   1.711   0.830   4.256 -0.0758 -0.4275 -0.2902
29023W        W45207  13.264   9.771  10.181 -0.1966  0.1952  0.1646
29024W        W45208   5.378  13.132   2.428 -0.2303 -0.0330  0.2225
29025W        W45209  19.035  12.266   4.754  0.1246 -0.0681  0.0329
29026W        W45210   0.813   2.908   2.346 -0.0102  0.2769 -0.1578
29027W        W45211  11.091   0.204  11.337 -0.0901  0.0583  0.0787
29028W        W45212  19.078  11.443   0.154  0.0309 -0.2485  0.4150
29029W        W45213  18.366   3.634  14.537 -0.0064  0.0729 -0.0017
29030W        W45214   5.416  11.502  13.556 -0.2022  0.0951 -0.3599
29031W        W45215   9.629  17.143  11.807 -0.2834 -0.0392  0.0590
29032W        W45216  17.763   6.182   3.063 -0.1429  0.3052 -0.0041
29033W        W45217  13.145   0.064   2.147  0.1864  0.1962 -0.1203
29034W        W45218   2.500  14.125  11.915  0.0236 -0.3609  0.3371
29035W        W45219  10.059   9.199  13.821 -0.0677  0.2950  0.2366
29036W        W45220   8.049   4.876   4.005  0.0597  0.3284  0.1004
29037W        W45221   5.353  17.169   4.567 -0.2589 -0.0722 -0.0374
29038W        W45222  14.521  11.742   4.056 -0.0736  0.2340 -0.0159
29039W        W45223  19.225  15.102  14.426 -0.0977 -0.4159 -0.1196
29040W        W45224  10.089  10.532   3.055 -0.0275 -0.5254 -0.5127
29041W        W45225   6.124   4.159   1.255  0.3091  0.0544 -0.1821
29042W        W45226   3.190  16.444   3.098 -0.0282  0.1188 -0.1029
29043W        W45227   7.946   6.975   1.090  0.0112  0.1877 -0.0315
29044W        W45228  14.718   2.333   3.329  0.1565 -0.0189 -0.1737
29045W        W45229   0.743   8.241  11.830 -0.1528  0.0127 -0.4429
29046W        W45230   6.676   2.587  12.717 -0.1376 -0.1147  0.0101
29047W        W45231   0.435   5.172  10.271  0.1279  0.1029  0.0379
29048W        W45232  17.905   1.233   9.647  0.0662  0.0497 -0.0238
29049W        W45233  13.790   8.292   0.289 -0.2122  0.0294  0.1379
29050W        W45234   1.360  15.009  11.337 -0.1965 -0.0840  0.0785
29051W        W45235   6.530   9.082  10.241 -0.0228  0.0675  0.0255
29052W        W45236   6.606  13.706   2.109  0.0109 -0.0608 -0.0472
29053W        W45237  13.844   2.550   1.286 -0.2797 -0.1876  0.2213
29054W        W45238   6.455  19.278  12.696 -0.1679 -0.2099  0.3489
29055W        W45239   6.565  18.897   3.207  0.1057  0.0118 -0.0269
29056W        W45240   5.775   7.843   2.934  0.0219 -0.1234 -0.0264
29057W        W45241   5.862  11.216   4.198  0.4590 -0.1383 -0.0070
29058W        W45242  16.160   8.409  11.788  0.0600  0.0803 -0.0661
29059W        W45243   1.806   2.331  10.916 -0.1589  0.3120  0.1335
29060W        W45244  16.949   9.034   2.399 -0.2551 -0.0003 -0.2994
29061W        W45245   2.075   7.999   4.354 -0.2952  0.3664  0.0441
29062W        W45246  17.156  19.084  12.733  0.0701  0.1012  0.1655
29063W        W45247  10.465  13.657   0.010 -0.4314 -0.0124  0.0775
29064W        W45248  17.291  16.259  14.980  0.0467 -0.0460  0.0676
29065W        W45249   2.920   9.174   5.388  0.0828 -0.0382  0.2615
29066W        W45250  10.806  14.694  11.757 -0.4366 -0.1184 -0.1237
29067W        W45251   9.471  11.410   4.684  0.3776  0.2911 -0.1372
29068W        W45252  16.702   3.147   4.314 -0.1749  0.1087 -0.0997
29069W        W45253  14.210  12.302   0.224  0.5130 -0.0993  0.0610
29070W        W45254   0.030   9.192  14.037  0.1143 -0.6431 -0.2585
29071W        W45255   4.648   3.540  12.402 -0.0155 -0.0316 -0.3272
29072W        W45256  10.416   6.547   2.955  0.1010 -0.1646  0.1086
29073W        W45257   8.418  13.163   4.042  0.1683 -0.2125 -0.2203
29074W        W45258  11.047   1.335  13.459  0.0768  0.0490 -0.0064
29075W        W45259   8.214  14.368   5.478 -0.0831 -0.0689 -0.2762
29076W        W45260   6.066   1.435   2.236 -0.2129 -0.4195  0.2702
29077W        W45261  14.179  18.399  13.975  0.1309  0.1257  0.1553
29078W        W45262   5.232   3.372  14.644  0.0030 -0.0877 -0.3874
29079W        W45263   7.420   5.730  13.822 -0.0121  0.0393  0.1553
29080W        W45264  12.072  16.955  13.235 -0.2672 -0.4562  0.1223
29081W        W45265  12.962  13.511   3.498  0.3840  0.4815  0.1239
29082W        W45266  14.695  13.407  12.558 -0.4613 -0.0224  0.2470
29083W        W45267   1.677  10.202   2.517  0.4209 -0.1996  0.2683
29084W        W45268  11.740  11.016  14.342 -0.0819 -0.0445 -0.2213
29085W        W45269   3.390  14.279   4.592 -0.1353 -0.0838 -0.0157
29086W        W45270   6.474   1.179  10.187  0.0824  0.2158  0.0350
29087W        W45271  15.780   9.982  11.689 -0.2839 -0.2825  0.3240
29088W        W45272  12.207  10.453   2.762  0.0665  0.0637 -0.2611
29089W        W45273  11.807  11.498  11.877  0.0487  0.0379  0.0448
29090W        W45274  16.015   2.976   3.563 -0.3621 -0.1536 -0.1652
29091W        W45275  12.597   4.668  11.429  0.2758  0.3128  0.0915
29092W        W45276  12.824  10.350   0.262  0.0789  0.1889 -0.0175
29093W        W45277  15.903   4.452  11.930 -0.0178 -0.1559 -0.1104
29094W        W45278  12.421   3.010  10.898 -0.1980  0.0367 -0.1987
29095W        W45279  15.670   7.336  10.873 -0.0805  0.0787 -0.2914
29096W        W45280   3.196  14.447   1.481 -0.2788  0.1907  0.0985
29097W        W45281   6.771   0.578  11.151  0.0424 -0.3259  0.1870
29098W        W45282   0.281  12.030  12.562  0.1672 -0.2795  0.2509
29099W        W45283  10.535   9.856  12.849  0.3060 -0.0529 -0.1213
29100W        W45284  11.461   3.580   9.050 -0.2504  0.0884  0.0342
29101W        W45285  16.262   5.369   3.033  0.3533  0.3345  0.2801
29102W        W45286  17.339  13.057   1.208  0.2336  0.1118 -0.1157
29103W        W45287  11.806   7.708  11.565  0.0377 -0.0113 -0.0537
29104W        W45288   0.430   5.058   2.912  0.0999 -0.2217  0.0070
29105W        W45289   4.970   6.085  12.779 -0.0599  0.2968  0.1105
29106W        W45290  13.308  16.907   1.676  0.2948  0.1759  0.2058
29107W        W45291   9.535   5.870  13.249 -0.2292  0.0634  0.1916
29108W        W45292  18.878   4.140  14.270 -0.1130 -0.0729 -0.0406
29109W        W45293  12.390   4.645   3.233  0.1399 -0.3110  0.1154
29110W        W45294  17.131  14.672  12.141 -0.0637 -0.2586 -0.0992
29111W        W45295  12.577  11.867  14.347 -0.2577  0.1048  0.4651
29112W        W45296  16.316   2.317   2.439  0.0275 -0.0540  0.2510
29113W        W45297   7.825  13.427  12.373  0.0217 -0.1736 -0.0762
29114W        W45298   1.689  16.105   5.297  0.1068 -0.2677 -0.3115
29115W        W45299   5.379   1.311   1.803 -0.3129 -0.1148 -0.0221
29116W        W45300  18.057  18.412  12.183 -0.0497 -0.2965 -0.1306
29117W        W45301   1.289   8.102   3.615 -0.2564  0.2735  0.0212
29118W        W45302  13.930   0.530   3.168  0.0177  0.0452  0.0020
29119W        W45303  18.197  13.385  10.921  0.2060 -0.0989  0.2188
29120W        W45304  14.062   5.222   4.713 -0.2351 -0.0346 -0.1203
29121W        W45305   3.046   4.760  14.281  0.2129 -0.1757  0.3290
29122W        W45306   8.182  18.211  13.437 -0.0685 -0.1249 -0.0296
29123W        W45307   0.069   4.883  13.898  0.3419 -0.1151 -0.0636
29124W        W45308   0.027   5.388   1.014 -0.0232 -0.0693  0.5925
29125W        W45309   4.403  19.344  12.604 -0.0389  0.1993 -0.0199
29126W        W45310  13.934   6.053  11.637 -0.1082 -0.3290 -0.0896
29127W        W45311   0.170  18.088  11.966  0.2703  0.0033  0.1323
29128W        W45312  16.286  10.971   5.573  0.1137 -0.0431  0.0821
29129W        W45313  18.907  18.637   4.085 -0.1007 -0.0865  0.1652
29130W        W45314  10.128  12.636   0.859  0.0704 -0.0955  0.0532
29131W        W45315  16.918  16.704   1.903 -0.0438  0.1228 -0.0088
29132W        W45316   6.898  14.899   9.997 -0.0076 -0.1215  0.2438
29133W        W45317  18.033  11.720   5.283 -0.2832 -0.0458  0.0293
29134W        W45318  13.773   3.001  10.078 -0.1513 -0.0402 -0.0344
29135W        W45319  18.516  17.790   1.679 -0.2229  0.2638 -0.1832
29136W        W45320   4.312  19.057   3.405 -0.0399  0.1438 -0.1041
29137W        W45321   5.982  16.096   9.577 -0.1853 -0.1160  0.2650
29138W        W45322   9.645  13.198  13.586  0.0700 -0.0648 -0.0974
29139W        W45323  10.317   0.745  13.382 -0.2770 -0.0861 -0.5121
29140W        W45324   9.986   1.501  13.828 -0.0047  0.0618 -0.1747
29141W        W45325   9.783  16.399  12.775 -0.3639  0.0742  0.0838
29142W        W45326  13.831  16.096  12.307 -0.2248  0.1508 -0.3187
29143W        W45327  15.546  16.016   4.018  0.0639  0.1685  0.3486
29144W        W45328   8.721   5.588  13.686  0.1681 -0.0109  0.3527
29145W        W45329  19.139  12.375  13.383  0.3345  0.0933 -0.2398
29146W        W45330   0.052  14.749  10.505 -0.1090 -0.0218  0.0998
29147W        W45331   8.031  11.570  11.283 -0.0069 -0.1282 -0.1300
29148W        W45332   2.402  16.348   1.075  0.1947 -0.3258 -0.1818
29149W        W45333   7.343  13.102   2.298 -0.0104  0.0662  0.1805
29150W        W45334  17.157   3.185  14.507 -0.0838  0.1972  0.1192
29151W        W45335   4.041  14.125   3.520 -0.0679 -0.0139 -0.2567
29152W        W45336  15.562   7.269   4.616  0.0490 -0.0038 -0.1989
29153W        W45337  11.784  15.179  12.463  0.2557 -0.1842  0.0046
29154W        W45338   3.716   4.027   0.081  0.1383 -0.3028  0.0491
29155W        W45339   5.634  14.151   3.367  0.3320  0.2570  0.0342
29156W        W45340   3.984   6.649  12.913 -0.1085  0.0012 -0.0865
29157W        W45341  13.031   0.551   4.075  0.0545 -0.0411  0.2008
29158W        W45342   6.360   5.701  14.293  0.0589 -0.3739  0.0539
29159W        W45343   8.554  14.971  11.049 -0.4661 -0.0626 -0.4881
29160W        W45344  17.462   9.291   2.525  0.2233 -0.1295  0.0319
29161W        W45345   7.827   7.501  12.887  0.0957 -0.3255 -0.0436
29162W        W45346   9.681   2.531   1.772 -0.0175 -0.1321 -0.0609
29163W        W45347   9.321  13.430  14.346 -0.1653  0.2393 -0.0686
29164W        W45348  12.718   6.931  10.910 -0.3266 -0.0194 -0.1718
29165W        W45349  13.214  16.164  13.426  0.2317 -0.0137 -0.0388
29166W        W45350   1.221  12.952  13.471 -0.0932 -0.3331 -0.0932
29167W        W45351   2.675   8.561   3.895  0.0416 -0.2612 -0.3206
29168W        W45352  15.665   9.479  11.981 -0.1699  0.1175 -0.1757
29169W        W45353   2.366  18.340   0.207  0.1308 -0.1121  0.0156
29170W        W45354  17.076   4.878   0.508  0.3365 -0.0534  0.0554
29171W        W45355  10.220   5.448   3.480  0.0840  0.1095  0.2590
29172W        W45356  13.672   3.557  14.609  0.1924  0.2955 -0.0636
29173W        W45357   2.437   2.534   3.716  0.0118 -0.1538 -0.0308
29174W        W45358   0.919  12.293   4.782  0.0709  0.0929  0.2678
29175W        W45359  14.668  13.164  13.156 -0.1086 -0.3675  0.0471
29176W        W45360   2.631  18.794  13.599 -0.2127 -0.0150 -0.0897
29177W        W45361   9.109   6.895   0.564 -0.3974  0.2062  0.0615
29178W        W45362   8.059  16.911  11.766 -0.2467  0.2116 -0.2428
29179W        W45363  17.969   3.885   5.730 -0.0207 -0.3020 -0.1700
29180W        W45364  11.431   5.104   3.923  0.1353  0.3115  0.2325
29181W        W45365   5.321   4.561  10.542  0.1084  0.1707 -0.4098
29182W        W45366  12.750   4.967   2.982 -0.2757 -0.2919 -0.2312
29183W        W45367  17.775   4.878   3.737  0.2914 -0.0168  0.1889
29184W        W45368  11.971   4.380   0.296  0.0376 -0.0586 -0.1798
29185W        W45369   2.617  18.008   0.832  0.2882  0.0519 -0.0761
29186W        W45370   0.236   1.291  13.205  0.0767 -0.1257  0.1365
29187W        W45371   6.905  11.973  10.854 -0.1652 -0.0281  0.0142
29188W        W45372  10.256   8.357  12.981  0.1452  0.4062  0.1266
29189W        W45373   0.618   8.722  11.002 -0.1971  0.2763  0.0394
29190W        W45374   7.179  11.156  12.422 -0.1127 -0.3369 -0.1912
29191W        W45375   5.410   7.014   4.204 -0.2388 -0.2536  0.0395
29192W        W45376  11.142  12.148  14.250  0.2970 -0.1279 -0.1099
29193W        W45377   4.406  17.973   0.486  0.0615  0.1052 -0.1060
29194W        W45378   4.231   9.940  12.226 -0.1103  0.0158 -0.3777
29195W        W45379   4.696   6.316   4.034  0.0510 -0.3363 -0.4681
29196W        W45380   8.454  14.796  10.575  0.1446 -0.0383  0.0849
29197W        W45381   8.134   1.021  11.176 -0.2188 -0.1843  0.1780
29198W        W45382  13.293  12.444   3.732  0.0128 -0.1512 -0.0665
29199W        W45383  12.095   9.199  14.255 -0.0478 -0.0959  0.0455
29200W        W45384  11.959   7.212  13.429  0.1008 -0.2508  0.0231
29201W        W45385  11.854  13.867   4.414  0.0866 -0.1827 -0.0899
29202W        W45386  13.734   4.377  12.760  0.1861 -0.1387  0.2340
29203W        W45387   7.327   5.352   4.638  0.1551 -0.1959 -0.1229
29204W        W45388  19.200   0.552  11.139  0.2363 -0.1315  0.0756
29205W        W45389   6.160   0.321   3.021 -0.1226  0.0186  0.0494
29206W        W45390  16.730   8.813  12.839  0.0250  0.3441 -0.1861
29207W        W45391   3.176   0.793   3.137  0.0774 -0.0316  0.0237
29208W        W45392   4.662  17.864   1.404  0.2484 -0.3584  0.3585
29209W        W45393   0.261   6.131  11.887  0.3480  0.0816 -0.1294
29210W        W45394  11.266  19.053   3.736  0.3119  0.1140 -0.0280
29211W        W45395  10.117   0.281   2.901 -0.0805 -0.0966 -0.1438
29212W        W45396  18.462   6.993  13.398 -0.1088  0.1341  0.3368
29213W        W45397   1.796  16.465  11.288 -0.0400  0.2742  0.0511
29214W        W45398   8.648  13.792  10.776  0.1318 -0.0768  0.1248
29215W        W45399   9.026  12.065  13.939  0.1077  0.0816 -0.0211
29216W        W45400   6.623   8.924  12.066  0.2144  0.1810  0.2536
29217W        W45401  10.283   5.609   2.800 -0.2519 -0.1766 -0.3410
29218W        W45402   9.048   3.612   4.076 -0.1581  0.1382  0.0385
29219W        W45403   6.846  16.279  13.757  0.0003 -0.0506  0.0758
29220W        W45404  19.172  10.919   5.495 -0.0108  0.1830  0.0240
29221W        W45405  17.054   9.513  12.106  0.0466 -0.3673 -0.0404
29222W        W45406  13.936   9.727   4.819 -0.1811  0.2739 -0.0366
29223W        W45407   9.338   7.855  10.592 -0.0274  0.1971  0.1504
29224W        W45408   8.266  13.080  10.057  0.2337  0.0566 -0.1330
29225W        W45409  11.645  16.921   5.280 -0.0909 -0.0167  0.1859
29226W        W45410   5.023  13.011  10.092 -0.2334  0.0266 -0.1576
29227W        W45411  11.661  10.972   4.631  0.0532  0.1214 -0.1395
29228W        W45412   7.930   5.834  14.516  0.0305  0.0150 -0.1640
29229W        W45413  12.154   1.271   3.870  0.1398  0.1538  0.1433
29230W        W45414   6.010  17.643  14.401  0.0783 -0.1087  0.0327
29231W        W45415   4.339  17.410   4.945 -0.0471  0.0240 -0.0447
29232W        W45416   3.158  15.178  14.850 -0.2190  0.2441 -0.0735
29233W        W45417   2.061  11.955   0.035 -0.0633  0.1625 -0.1540
29234W        W45418   2.828  17.362  12.512  0.2386 -0.1080  0.0671
29235W        W45419   6.368   4.788  13.607  0.4300  0.1146 -0.1414
29236W        W45420  13.517   4.725  14.612 -0.0818  0.1523 -0.0135
29237W        W45421  18.314  16.481   5.435  0.2162  0.2194  0.0284
29238W        W45422  11.234   8.456   1.812 -0.2029 -0.0904  0.0586
29239W        W45423   9.790  13.213  12.008  0.2403  0.2081 -0.2422
29240W        W45424   4.922   9.136   4.173 -0.0214  0.0311  0.2727
29241W        W45425  18.204   3.141   2.312  0.0532  0.2373  0.0420
29242W        W45426   8.119  10.058  12.949  0.2305  0.2524 -0.1141
29243W        W45427  12.121  12.130  10.313  0.3817 -0.2779  0.3092
29244W        W45428   3.078   4.954  14.728 -0.5196  0.1277  0.0939
29245W        W45429  17.843  11.358   3.910 -0.0647 -0.0461  0.0307
29246W        W45430   5.281   3.656  13.665  0.0824 -0.1226 -0.0502
29247W        W45431   9.178  17.352   5.559  0.0790  0.1756 -0.0724
29248W        W45432  13.756  18.296  14.222 -0.0014 -0.1714  0.1677
29249W        W45433   8.459   7.235   0.851  0.0613  0.2072 -0.1692
29250W        W45434   9.415  12.240   2.166 -0.1966 -0.0140  0.2202
29251W        W45435   7.253  15.393   0.081 -0.2542 -0.1180  0.3049
29252W        W45436   5.112  16.431   3.345 -0.2221  0.0739 -0.1357
29253W        W45437   6.877  10.660   5.934  0.4989 -0.0195 -0.0664
29254W        W45438  13.533   3.528   0.990  0.2198 -0.1715 -0.0512
29255W        W45439   5.398   6.735  13.235  0.1446  0.0799  0.1112
29256W        W45440   3.050  15.756   5.972  0.4081  0.1304 -0.0941
29257W        W45441  19.261   9.874   0.035 -0.1159  0.4222  0.0363
29258W        W45442   1.497   3.262  12.596 -0.1699  0.0343  0.2532
29259W        W45443  16.971  11.956  11.589 -0.2094  0.1259 -0.0998
29260W        W45444   6.156   2.548  11.922  0.0432 -0.2377 -0.1964
29261W        W45445  15.299   0.300  13.528 -0.0219  0.2399  0.0895
29262W        W45446  12.676  13.209  12.811 -0.0426 -0.1108 -0.4945
29263W        W45447   6.536  19.234   1.625 -0.1854 -0.1228  0.0870
29264W        W45448  17.200   7.315  12.934  0.0050  0.0320 -0.2383
29265W        W45449  16.526  18.865  11.551  0.0601 -0.0980  0.2594
29266W        W45450  14.627   2.473   1.125 -0.2741  0.2907 -0.0535
29267W        W45451  17.833   2.547   1.554 -0.2332 -0.2078  0.2064
29268W        W45452  13.876  13.812   3.847  0.0227  0.3431  0.2978
29269W        W45453  11.977  16.590   1.212  0.2539 -0.1701 -0.1398
29270W        W45454  10.882   6.481  11.404  0.1830  0.0669 -0.0276
29271W        W45455   1.021   7.563   2.167  0.4248  0.0366  0.0298
29272W        W45456  17.789   7.459  10.546 -0.1067 -0.0492  0.1102
29273W        W45457   5.659   0.262  12.997 -0.2727 -0.2623  0.2747
29274W        W45458  13.314  14.490   0.925  0.4190 -0.0647 -0.1098
29275W        W45459  18.231  11.570  13.449  0.0854 -0.3377  0.0911
29276W        W45460   4.398   7.288  11.832  0.2182 -0.2648 -0.0231
29277W        W45461   7.268   4.883   0.739  0.1468 -0.1354 -0.1202
29278W        W45462   3.792   5.305  10.980  0.3309 -0.0152 -0.0022
29279W        W45463   5.309  14.812  11.494 -0.0047 -0.3954 -0.0979
29280W        W45464   9.987  12.733   0.336  0.5112  0.0336  0.0334
29281W        W45465  19.238   8.378   4.529  0.4120 -0.1582 -0.0810
29282W        W45466   8.675   4.582  12.981 -0.2373  0.0086 -0.0768
29283W        W45467   2.398   5.350  11.232  0.1234 -0.0152 -0.1786
29284W        W45468   2.892   3.277   4.639 -0.4484 -0.5811 -0.1546
29285W        W45469   2.101   9.371   0.472  0.0011  0.1459  0.1641
29286W        W45470  12.308   5.735  12.459  0.2682  0.1989 -0.0712
29287W        W45471   0.347   7.444   0.572  0.4004  0.1417  0.1237
29288W        W45472   7.048  16.762  13.835  0.0809 -0.0093 -0.1485
29289W        W45473  11.805   4.164   3.776  0.2494 -0.1118  0.0100
29290W        W45474  17.752   1.953  14.169  0.3663  0.2083 -0.1230
29291W        W45475  14.762   4.743   0.024 -0.1917 -0.1225 -0.0315
29292W        W45476  14.337   1.382   1.246 -0.2086  0.0464  0.0408
29293W        W45477   1.935   8.792   2.764 -0.0803 -0.2758  0.0639
29294W        W45478  11.562  13.116  12.754  0.2213 -0.2786 -0.1149
29295W        W45479  18.187  19.278   3.184  0.0679 -0.0882 -0.0015
29296W        W45480   5.228   0.156  11.623 -0.2988  0.1480 -0.0275
29297W        W45481   9.273   3.912   3.654 -0.1415  0.1231  0.0552
29298W        W45482  16.574   3.772   3.626 -0.1467  0.1406  0.2057
29299W        W45483  16.763   7.961  13.369  0.2490  0.1679  0.0402
29300W        W45484   8.262   1.409  13.023 -0.2649 -0.0245  0.3063
29301W        W45485   9.046   9.116   0.401  0.0172  0.0296  0.2043
29302W        W45486  17.133  11.468   3.920  0.1104  0.2302 -0.0218
29303W        W45487   8.596  12.229   1.132  0.0765 -0.0008  0.2975
29304W        W45488   1.030   6.127   3.523  0.1163  0.2608  0.1067
29305W        W45489   9.709   1.723   2.909 -0.1148 -0.2525 -0.1596
29306W        W45490  12.277  11.070   4.086 -0.0017  0.1446 -0.1336
29307W        W45491   5.580   0.921   1.517  0.3631 -0.0810  0.1252
29308W        W45492   3.289  12.351  10.586  0.1119 -0.1834 -0.2043
29309W        W45493  10.958   9.350  10.215 -0.0470 -0.0059  0.2268
29310W        W45494  12.292  17.942   5.567 -0.1409  0.0316  0.1265
29311W        W45495  12.139   0.829   2.415 -0.0372  0.0723 -0.0137
29312W        W45496   5.959   5.484   9.909 -0.1692 -0.0470  0.0543
29313W        W45497  10.222  14.479   1.990 -0.1074  0.0520 -0.2821
29314W        W45498   5.451  12.450  14.321 -0.2487  0.1987  0.2385
29315W        W45499  14.412   7.056   1.375 -0.3343 -0.0456 -0.2359
29316W        W45500  12.219  19.293   2.339  0.0741 -0.0324  0.1363
29317W        W45501  17.467   3.781   2.085 -0.2598 -0.4458  0.0987
29318W        W45502  18.619  11.072   0.801 -0.0958 -0.0559 -0.0187
29319W        W45503   7.210   4.265  11.837  0.0840 -0.1161 -0.0285
29320W        W45504  18.595  10.511   3.086 -0.0743 -0.0600  0.4410
29321W        W45505  15.988   5.721  11.376  0.0276 -0.0580  0.2181
29322W        W45506   1.430   5.856   0.789  0.0853  0.2352  0.1378
29323W        W45507  16.526   4.243  13.343 -0.2081 -0.3024  0.2090
29324W        W45508  15.435  11.055   0.719  0.3798 -0.0427  0.0154
29325W        W45509   7.846   6.239   5.033  0.0487  0.2292 -0.0519
29326W        W45510   0.483  14.804  11.130 -0.4247  0.1288 -0.1921
29327W        W45511   7.826   8.964   4.728  0.0971 -0.0297 -0.2720
29328W        W45512  16.123   4.988   1.040 -0.0839  0.1703  0.0837
29329W        W45513   1.578   8.865  13.073 -0.0842 -0.0381  0.2660
29330W        W45514   9.130  17.312   0.403 -0.0975  0.1120 -0.4056
29331W        W45515  14.667  10.069   2.964  0.1008  0.0805  0.1967
29332W        W45516  12.905  17.705   4.776  0.1170  0.1788  0.2244
29333W        W45517   3.475  11.120  12.304 -0.1871 -0.0535 -0.0557
29334W        W45518  17.415   1.748  13.072 -0.2087 -0.2325 -0.2520
29335W        W45519   6.623  12.803  10.578  0.2091  0.0745 -0.1118
29336W        W45520   2.647  13.945  11.240  0.5826 -0.0831  0.0195
29337W        W45521  14.326   9.839   2.094  0.1443 -0.1391 -0.2356
29338W        W45522   6.487  11.046  11.750  0.1618 -0.0925 -0.4449
29339W        W45523  17.515   0.804  12.055 -0.1769  0.2711  0.3323
29340W        W45524  15.530  14.109   5.432 -0.0102 -0.3449 -0.4519
29341W        W45525  14.421  14.064   2.677 -0.3625  0.1673 -0.1870
29342W        W45526   6.309  14.683   1.987  0.1850  0.0588  0.0517
29343W        W45527   2.931   8.974   2.905 -0.0182  0.0498  0.0836
29344W        W45528   7.142  17.130  13.136  0.0212  0.0373  0.0209
29345W        W45529   4.890  10.871   1.038  0.0960 -0.0123 -0.1468
29346W        W45530  14.294   5.658  13.593 -0.0425  0.0647  0.0215
29347W        W45531   1.849   8.608  11.554  0.1480  0.3753 -0.2971
29348W        W45532  10.376   9.363   3.686 -0.4120 -0.2140 -0.1325
29349W        W45533   0.308  10.101   1.334 -0.0430  0.3208  0.1943
29350W        W45534  19.063  18.065  14.479 -0.0579  0.2507 -0.0177
29351W        W45535   4.892   3.855  13.474  0.1317 -0.2029 -0.1599
29352W        W45536  17.439  10.795  14.962 -0.1626  0.1612 -0.0783
29353W        W45537   0.315   8.020   1.915  0.1968 -0.0357  0.1466
29354W        W45538  17.115   6.592  10.890 -0.1662 -0.3614  0.0420
29355W        W45539  18.982  15.839   1.470 -0.1795  0.1931  0.1007
29356W        W45540  18.903   7.072   2.561  0.3760 -0.1067  0.1138
29357W        W45541  14.836  18.020  13.261  0.3067  0.1263  0.0524
29358W        W45542   5.024   6.329  13.211 -0.0920  0.1821 -0.1130
29359W        W45543   8.010   6.301  14.354 -0.2794  0.0575  0.2046
29360W        W45544  13.743  13.748  14.269 -0.0732 -0.0893 -0.0986
29361W        W45545  15.245   6.797  13.044  0.2831  0.0631 -0.0683
29362W        W45546  11.358  17.611  12.951 -0.0337 -0.0171 -0.5229
29363W        W45547   5.707   0.720  11.295 -0.0597  0.0971 -0.3606
29364W        W45548   5.635   8.318   2.620  0.2312  0.2625  0.0655
29365W        W45549   5.701  19.325   3.763 -0.0393 -0.1479  0.1980
29366W        W45550   5.243  15.482   3.938  0.0415  0.4687  0.1404
29367W        W45551  10.071   5.601   3.979  0.1156  0.0587  0.0074
29368W        W45552  17.514  13.896  11.981 -0.0561  0.0868 -0.0321
29369W        W45553   8.561   0.966  13.902  0.1289 -0.0874  0.0189
29370W        W45554  10.301   8.532  11.951  0.0699 -0.4368  0.4137
29371W        W45555  13.849   1.696  11.875  0.1870 -0.1156  0.1081
29372W        W45556   7.259   6.745   9.936 -0.2655 -0.0520  0.0986
29373W        W45557  15.314   0.769   4.382 -0.0415 -0.1586 -0.0050
29374W        W45558  14.948   1.156  14.106  0.1431  0.4960 -0.0343
29375W        W45559   1.285   7.349  12.854  0.3248  0.1289 -0.0571
29376W        W45560   2.845   7.041   4.200 -0.0174 -0.0892  0.0714
29377W        W45561   6.425   7.921  13.564  0.2683  0.0045 -0.1343
29378W        W45562  12.528   2.011   3.607 -0.0831  0.0134 -0.1054
29379W        W45563   3.731  16.989   3.653 -0.1909 -0.1696 -0.3943
29380W        W45564   5.690   2.735   4.179 -0.2021 -0.0907 -0.2744
29381W        W45565  17.080  16.066  11.850  0.0775 -0.1200 -0.0419
29382W        W45566   9.543  10.573   2.375 -0.0465 -0.0374 -0.3317
29383W        W45567   8.468   9.433   4.312 -0.0813  0.0835 -0.1183
29384W        W45568   7.644  18.818   0.776 -0.0721 -0.1335  0.1211
29385W        W45569   6.701   0.376   4.976  0.3837  0.0095  0.1507
29386W        W45570  13.873   3.261  13.180 -0.4288  0.1590 -0.1052
29387W        W45571  17.499   5.274   2.835  0.2905  0.0981 -0.4200
29388W        W45572  18.720   0.678   0.393 -0.2727 -0.1554 -0.2184
29389W        W45573  16.472  15.467  13.046  0.0905  0.0368 -0.3728
29390W        W45574   4.780  15.414   3.962  0.4317 -0.0758  0.3446
29391W        W45575   3.933  10.218   4.165 -0.1845  0.0167  0.1371
29392W        W45576  15.431   0.201  10.423 -0.0248 -0.3888  0.1852
29393W        W45577  18.455   4.419  13.215  0.2023 -0.4620  0.0584
29394W        W45578  16.854  10.279  14.339 -0.1585  0.3937  0.2527
29395W        W45579   1.719  12.708  11.458  0.1515  0.3599 -0.2482
29396W        W45580  17.955  13.966   5.258  0.0337  0.0517 -0.0100
29397W        W45581  13.881  11.093  12.327  0.2117 -0.1355 -0.0724
29398W        W45582  18.467   3.830  11.082  0.3242 -0.0705 -0.1768
29399W        W45583   7.456  11.884  10.825 -0.3477  0.3002 -0.2822
29400W        W45584  16.697   4.076  12.375 -0.3049 -0.0809  0.2041
29401W        W45585  13.287  18.665   4.731  0.0187  0.2961 -0.3352
29402W        W45586  14.469   9.405  12.524  0.2382  0.0470  0.0048
29403W        W45587   2.096  17.707   0.809 -0.1075 -0.0092  0.2562
29404W        W45588   8.655   5.792   1.290 -0.0227  0.0449  0.0413
29405W        W45589  14.071  18.311  11.117  0.2530  0.1087 -0.1581
29406W        W45590   6.136  15.999  10.037  0.1441  0.2485 -0.2589
29407W        W45591  11.585   1.899  13.844  0.0348  0.0783  0.0896
29408W        W45592   3.911   0.584  14.353 -0.2337 -0.0517 -0.0171
29409W        W45593  12.040   2.092   3.535  0.0532 -0.1084 -0.1988
29410W        W45594   9.849   2.325  13.360  0.0842  0.0351  0.1235
29411W        W45595  19.146  15.519  12.634  0.1048 -0.1169  0.2087
29412W        W45596   1.135   7.085  12.339  0.2895 -0.1541 -0.3109
29413W        W45597  16.731  13.296  14.284 -0.0517  0.4758  0.2103
29414W        W45598   9.716   1.744   2.319  0.2294  0.1743 -0.0144
29415W        W45599   7.333   4.441   1.559 -0.0359 -0.1107 -0.0727
29416W        W45600   2.620  14.349   0.905 -0.2215 -0.2740  0.0934
29417W        W45601  15.613  11.441   2.648  0.1813 -0.1334  0.2916
29418W        W45602   1.326  11.446  10.034  0.0217  0.0197 -0.0127
29419W        W45603   5.739  10.930  11.062  0.3212 -0.2473  0.2382
29420W        W45604  14.877   3.192  10.638  0.0622 -0.0559  0.2564
29421W        W45605  12.540   7.644  14.228 -0.1560  0.0430  0.1182
29422W        W45606  16.379   2.612   0.206 -0.1357 -0.0448  0.2106
29423W        W45607   9.986  18.362   0.551 -0.2960  0.4371 -0.0281
29424W        W45608   0.023  12.270  11.523 -0.0425 -0.1180 -0.3799
29425W        W45609   5.521  12.803  14.911 -0.4511  0.0628  0.0714
29426W        W45610  15.431   4.714   3.234 -0.0709 -0.2959 -0.2599
29427W        W45611  18.320  11.312  10.355  0.1793 -0.1039  0.3155
29428W        W45612   0.668   6.255   4.165  0.0077 -0.0258  0.1372
29429W        W45613   7.191   8.457   2.079 -0.0702 -0.1201 -0.1924
29430W        W45614   0.794   9.340  14.029 -0.1846  0.2784  0.2613
29431W        W45615   2.085  14.043   0.823 -0.0043  0.0502  0.0232
29432W        W45616   7.245   8.828   4.263  0.1472  0.3005 -0.0682
29433W        W45617   5.672  10.710   9.579  0.0066  0.4014 -0.2039
29434W        W45618  10.755   0.298  12.421  0.0917 -0.0400  0.2659
29435W        W45619  17.207  14.460   1.526  0.3186  0.0962  0.2092
29436W        W45620  12.831   1.654  12.504 -0.1444  0.0294 -0.2930
29437W        W45621  18.583   2.151   2.168 -0.1678  0.2191  0.1140
29438W        W45622  15.306   3.417  10.755 -0.0944 -0.1196  0.0449
29439W        W45623   8.299  10.863   1.185  0.0979 -0.3176 -0.2849
29440W        W45624  19.269  11.268   4.410  0.2168  0.0636  0.0848
29441W        W45625  13.164  18.375  14.087 -0.0912  0.1170 -0.0763
29442W        W45626   7.564   6.439   2.206  0.2317 -0.1411  0.0174
29443W        W45627  17.670   1.234   4.137  0.1117  0.1358  0.0127
29444W        W45628   3.710  10.995  11.337  0.0440  0.2588  0.0929
29445W        W45629  18.606  10.933   2.829 -0.0362  0.3225 -0.1618
29446W        W45630  18.051   3.780   1.929  0.2334  0.0233 -0.1457
29447W        W45631   9.362   1.697   1.097 -0.0928 -0.0207  0.2042
29448W        W45632  11.206   3.706  12.730 -0.1629  0.0494  0.1330
29449W        W45633  18.245   7.020   0.897  0.1086  0.2483  0.2857
29450W        W45634  15.805   6.503   1.675  0.0596 -0.0788  0.2415
29451W        W45635  16.487   4.929  14.698  0.0913 -0.0937 -0.0127
29452W        W45636   1.853   8.719  13.827  0.2189 -0.3648 -0.0074
29453W        W45637   8.842   6.763   2.374  0.2787 -0.0987  0.1922
29454W        W45638  12.837   9.595   0.933  0.0231 -0.1015  0.0142
29455W        W45639   7.068  15.426  13.212  0.2097  0.0060  0.0446
29456W        W45640  13.366   9.474  11.457  0.2003  0.1772 -0.1856
29457W        W45641  14.401  10.237  13.378 -0.0169  0.3270  0.0987
29458W        W45642   3.067   3.289   3.663  0.0456 -0.1676  0.0397
29459W        W45643  17.549   1.297   1.970  0.1715 -0.0643 -0.1943
29460W        W45644   4.848   7.249  12.636 -0.0273 -0.2388 -0.0631
29461W        W45645  18.468  19.150  13.332 -0.2114 -0.0043 -0.0604
29462W        W45646  17.560  12.876  13.494 -0.0193 -0.1294  0.1812
29463W        W45647  14.513   6.356   3.751 -0.0726 -0.1575 -0.1863
29464W        W45648  11.321  14.253   3.486 -0.0195  0.1466  0.0243
29465W        W45649   3.335   6.554   2.264  0.0829 -0.0711 -0.1589
29466W        W45650   2.847   5.206   0.134 -0.0007  0.1104  0.1866
29467W        W45651   6.736   1.634  12.012  0.1959 -0.0286 -0.1280
29468W        W45652  18.873  14.275   5.032  0.0971 -0.1925  0.0001
29469W        W45653  11.753  18.727  12.787 -0.3501  0.1958 -0.0432
29470W        W45654   0.627  12.683  12.337  0.2784 -0.2157 -0.0099
29471W        W45655   5.539  17.812   0.749 -0.2016 -0.2253  0.3509
29472W        W45656  15.513  19.159   0.441  0.0318  0.1190  0.0934
29473W        W45657   1.816   7.691   1.490 -0.0759  0.0440 -0.3879
29474W        W45658  11.166   6.503   4.726  0.1541  0.1428 -0.2453
29475W        W45659   8.483   2.448   3.057  0.3919  0.3021  0.1116
29476W        W45660  10.338  12.198  13.364  0.2970  0.3231  0.2009
29477W        W45661  15.277  12.076   5.296  0.0507  0.0110  0.1887
29478W        W45662  10.405   6.773   0.981  0.0268  0.0206  0.4400
29479W        W45663   0.646   9.881  14.303  0.1529 -0.1287 -0.3083
29480W        W45664  15.533   6.308  12.091  0.0322  0.0537 -0.3776
29481W        W45665  11.356  11.016  10.886 -0.0452  0.0683 -0.2862
29482W        W45666   0.540   4.663  10.574  0.1005  0.4073 -0.1511
29483W        W45667   3.872  18.440  11.462  0.2645  0.0028  0.2586
29484W        W45668   5.360   4.636   1.014  0.1861  0.3705 -0.1369
29485W        W45669   2.666   1.431   1.865 -0.0787 -0.1378  0.1648
29486W        W45670  15.106   5.945   2.088 -0.1346 -0.1285  0.1152
29487W        W45671   1.445   8.852  11.328 -0.0534 -0.0033  0.1275
29488W        W45672  15.735  11.322  14.040  0.1951  0.0263  0.0110
29489W        W45673   8.628  15.666  12.761  0.2119 -0.0665  0.2016
29490W        W45674   2.144   0.830  12.778 -0.0231 -0.2228  0.0060
29491W        W45675   6.784  15.535   1.786  0.0698  0.2328 -0.4154
29492W        W45676  10.284  12.318  10.847 -0.0489 -0.0667 -0.0812
29493W        W45677   2.478  11.090  14.955 -0.2340 -0.1665  0.2401
29494W        W45678  15.810   3.406  13.265  0.1768 -0.0972  0.3477
29495W        W45679   6.367  16.742   2.345 -0.1586 -0.2473 -0.1183
29496W        W45680  16.191   7.588   4.085 -0.0097 -0.1071 -0.0882
29497W        W45681   1.512   2.174   1.141  0.2149 -0.0083  0.2012
29498W        W45682   7.868  13.638  11.492 -0.0720 -0.0102  0.0869
29499W        W45683  11.259  10.993  14.101 -0.1398  0.2642  0.1373
29500W        W45684   4.048   2.867   0.448  0.1359  0.3588 -0.1620
29501W        W45685   4.690  10.529  13.517  0.3211  0.1225 -0.0042
29502W        W45686  14.086   9.999  14.772  0.1193  0.2874 -0.0611
29503W        W45687  14.489   5.530  14.608 -0.0471  0.0242 -0.2074
29504W        W45688   0.370   4.953   1.023  0.0401  0.0404 -0.2032
29505W        W45689   3.282   7.174  13.248 -0.2446 -0.0470  0.0790
29506W        W45690   9.284  10.795   3.392  0.0491  0.1857 -0.0427
29507W        W45691  14.230   2.615  10.943  0.4187 -0.3381 -0.3213
29508W        W45692  10.316  16.996  13.940  0.2568  0.1915 -0.0837
29509W        W45693   7.633  15.150   0.477  0.2241 -0.1796 -0.0133
29510W        W45694  15.265   1.988   5.394 -0.0979 -0.0268 -0.0377
29511W        W45695   2.465   3.081   0.449 -0.0955  0.3507  0.0176
29512W        W45696   0.682  14.463   4.579  0.4438  0.0397  0.2708
29513W        W45697  16.305   2.704   4.409 -0.0461 -0.2607 -0.0021
29514W        W45698   4.392   4.525  11.455 -0.1745  0.0759  0.1060
29515W        W45699  10.338  10.416  12.973  0.1041  0.1629  0.2728
29516W        W45700   6.804   4.425  14.266 -0.0542 -0.1858 -0.1834
29517W        W45701   2.330   2.663   0.222  0.1871 -0.1995  0.1188
29518W        W45702  12.562   2.628   4.578  0.1283  0.0998 -0.0165
29519W        W45703  12.661  15.037  11.772 -0.0756  0.4448 -0.0490
29520W        W45704  12.288   9.917   1.475 -0.2310  0.1822 -0.0131
29521W        W45705  10.828   3.005   4.711  0.2554  0.1232  0.1093
29522W        W45706  17.063  10.875   5.012 -0.0658  0.2532 -0.6315
29523W        W45707   0.951  10.260   0.343  0.2852  0.1812  0.0339
29524W        W45708  17.114  15.322   1.277  0.5921  0.2003 -0.1895
29525W        W45709   5.437   9.652  14.422  0.0895  0.0137 -0.2900
29526W        W45710   7.425  12.568  11.600  0.0265 -0.1583  0.2220
29527W        W45711  11.413  11.787  12.107 -0.1371 -0.3099 -0.0689
29528W        W45712   9.886  14.366  11.395  0.3240 -0.0325 -0.0780
29529W        W45713   3.591  11.550  11.164  0.1169  0.0933 -0.3368
29530W        W45714   8.783  14.193  11.047 -0.2790  0.2283  0.0796
29531W        W45715  19.040  10.788   5.012 -0.1208 -0.0027  0.1583
29532W        W45716   4.762   2.678   0.781  0.1231 -0.1271  0.0008
29533W        W45717   1.478   8.395  13.938 -0.3796 -0.2440 -0.0261
29534W        W45718  12.367  12.595  12.724  0.0089 -0.0454  0.0874
29535W        W45719  13.592   5.520  12.950  0.1088 -0.0936 -0.2040
29536W        W45720  15.417  19.274   5.498 -0.1730 -0.1418 -0.0188
29537W        W45721   6.071  10.458  13.866  0.0791 -0.3854  0.2009
29538W        W45722   6.813   5.021  13.625  0.1653  0.2602  0.0367
29539W        W45723  18.687  13.760  12.166 -0.0663  0.1129 -0.1682
29540W        W45724  11.715  19.214   0.905  0.2929 -0.4114 -0.0835
29541W        W45725   1.984   1.253  11.258 -0.2675 -0.0845  0.1690
29542W        W45726  14.529  15.656   0.482 -0.0488  0.3533  0.0137
29543W        W45727   7.219  11.737  13.553 -0.1979 -0.0315  0.0891
29544W        W45728  11.192   6.966   4.284  0.3723 -0.0261 -0.0550
29545W        W45729   9.039   6.850   3.502  0.1943 -0.0617 -0.0697
29546W        W45730   7.915   9.674  10.492 -0.1906 -0.1076  0.1633
29547W        W45731   2.459  18.468   4.474 -0.1001  0.0451  0.0008
29548W        W45732   9.392   0.416   0.011  0.1173 -0.2016 -0.0115
29549W        W45733   1.686   6.227  11.308  0.0304 -0.1324  0.0134
29550W        W45734  16.955  18.288  14.031  0.0728 -0.0107  0.0405
29551W        W45735   9.171   2.458   4.896 -0.1220 -0.1134 -0.0735
29552W        W45736   7.158  11.807  10.451 -0.0832  0.4634  0.1084
29553W        W45737   2.904  12.162  14.215 -0.0064  0.1716 -0.0820
29554W        W45738  10.211  10.559  14.484 -0.1442 -0.0249 -0.0163
29555W        W45739  12.293  12.363  14.941  0.0985 -0.1808 -0.1114
29556W        W45740  14.213   8.839  11.711  0.2766 -0.2973  0.1792
29557W        W45741   2.331  11.169  11.607  0.2256  0.0306 -0.0988
29558W        W45742   3.684   4.575  10.238  0.2899  0.0825  0.0998
29559W        W45743  11.055  15.321  11.667  0.1183  0.0517  0.0429
29560W        W45744  15.238   0.431  14.781 -0.0211 -0.3787  0.0544
29561W        W45745   0.818  10.209  13.327  0.1852 -0.0688  0.1382
29562W        W45746   1.133  12.072   1.020 -0.0592  0.0756  0.3784
29563W        W45747  16.095  18.676  13.617 -0.1407 -0.0304  0.0161
29564W        W45748   7.562  10.989   3.477 -0.0768  0.0888 -0.3061
29565W        W45749   8.821  13.093   1.652  0.2603 -0.2460 -0.0496
29566W        W45750   7.324   2.075   9.883 -0.1411  0.0288  0.0500
29567W        W45751   6.744  12.183   0.140 -0.0750 -0.1103  0.1276
29568W        W45752   3.151  16.482  12.726  0.1044  0.0492 -0.0374
29569W        W45753  19.088  18.789   0.018  0.1317  0.3157  0.0497
29570W        W45754  15.466   7.070   5.474 -0.0981 -0.1801 -0.3570
29571W        W45755  18.663   6.721   1.689 -0.1208 -0.2863 -0.1765
29572W        W45756   6.549   8.717  11.020  0.1619  0.0242  0.0384
29573W        W45757  12.705   3.917   9.757  0.1364 -0.1529 -0.0550
29574W        W45758  11.958   9.477   0.265 -0.0652 -0.0437  0.0210
29575W        W45759   9.132  17.743   3.839  0.0127  0.1581 -0.2401
29576W        W45760   2.357  12.009   3.809  0.1674 -0.0235  0.1960
29577W        W45761   3.040   2.040  11.768 -0.1275 -0.0948 -0.0186
29578W        W45762  13.036   1.707   2.310 -0.2229 -0.0838 -0.2463
29579W        W45763   1.518  16.072   4.133 -0.0554 -0.3121 -0.4747
29580W        W45764   6.072   4.732  10.645  0.2124 -0.2092 -0.2479
29581W        W45765  12.056  12.762  13.212  0.2657  0.1033  0.0358
29582W        W45766  18.865  16.198   3.858 -0.2844 -0.0720  0.0604
29583W        W45767   7.967   3.733   1.814 -0.2166 -0.1563  0.3785
29584W        W45768   9.253   1.008   2.165 -0.0018  0.1319  0.1328
29585W        W45769  16.820  17.546  14.284  0.2882 -0.2713  0.1297
29586W        W45770  13.333   8.883   1.837 -0.2942 -0.0583  0.0790
29587W        W45771   3.100  15.234  11.761  0.1029 -0.0279 -0.3937
29588W        W45772   8.585  12.311  14.273 -0.1019  0.1832  0.1248
29589W        W45773   3.370   7.120  10.036 -0.2423  0.2375  0.0865
29590W        W45774  13.422   1.758   1.424  0.1648 -0.0915  0.1046
29591W        W45775   9.789  10.694  13.622  0.1495  0.1652 -0.0104
29592W        W45776  14.722   2.189  11.991  0.2597 -0.1809 -0.2502
29593W        W45777  11.528   7.161  11.759 -0.1599  0.1317 -0.0565
29594W        W45778   8.557   8.554  14.362 -0.2501  0.0016  0.1721
29595W        W45779  12.012  10.157   2.413 -0.1691 -0.1875 -0.2973
29596W        W45780   0.705  17.972  11.096 -0.3996  0.1770  0.0692
29597W        W45781  16.736  15.138   1.607  0.2801 -0.0056  0.0536
29598W        W45782   3.586   2.141  14.552  0.0969  0.0687 -0.1759
29599W        W45783   1.252   8.526   2.247  0.2317  0.0221 -0.1267
29600W        W45784   5.832  15.983  10.412 -0.2806 -0.1393 -0.0162
29601W        W45785   6.693   4.004  13.995  0.0326  0.2714 -0.1230
29602W        W45786  13.722   6.818  12.128  0.0029 -0.4379  0.1535
29603W        W45787   5.737  14.105  14.623  0.0575  0.3685 -0.3336
29604W        W45788  13.520  14.047  10.957 -0.0491 -0.1505 -0.0488
29605W        W45789  11.629   9.939  13.233 -0.1132  0.3980  0.3233
29606W        W45790  12.754  10.542  14.746  0.1810  0.1797 -0.3024
29607W        W45791  18.270  15.858   1.169  0.3568  0.2331  0.0460
29608W        W45792  15.907   2.831  11.966 -0.0441  0.0176 -0.2267
29609W        W45793   6.359   7.272  11.271 -0.0904  0.1067  0.2516
29610W        W45794  14.973   0.603   3.289 -0.1011  0.1359 -0.2780
29611W        W45795   4.988   3.574   2.375  0.1822  0.0890  0.0410
29612W        W45796   9.019  16.847   0.016  0.2429 -0.1490 -0.1175
29613W        W45797  13.211   8.653   0.385  0.1037 -0.4465  0.0552
29614W        W45798   5.485  13.604  13.404 -0.4228 -0.1561 -0.0039
29615W        W45799   5.378  17.959  12.904  0.0502 -0.3340 -0.1290
29616W        W45800   2.431  18.083   1.810 -0.0147 -0.0442 -0.2789
29617W        W45801   0.759   4.288  13.638 -0.0896 -0.2189  0.0300
29618W        W45802  10.783  18.670  14.318 -0.3242  0.1261 -0.3492
29619W        W45803  14.450   2.934   2.445 -0.0750 -0.1390 -0.0911
29620W        W45804   5.403  12.462  13.441 -0.3361  0.0558  0.4512
29621W        W45805  12.464  10.562  10.880 -0.0738  0.0777 -0.0634
29622W        W45806   6.070   0.389   4.087  0.0493  0.0607  0.0328
29623W        W45807  18.449  19.256   2.351  0.2167 -0.3713  0.0845
29624W        W45808  11.238  15.906  13.473  0.0325  0.2562 -0.0964
29625W        W45809  10.025  12.526   1.437  0.0661  0.1580 -0.0713
29626W        W45810   3.861   2.488  11.827 -0.1594 -0.2522  0.0134
29627W        W45811   6.876  17.655  13.231 -0.0299  0.2467 -0.0688
29628W        W45812  14.811  10.585   3.031 -0.0597  0.1001  0.0099
29629W        W45813  18.507  10.957   4.939  0.2573 -0.0954  0.0426
29630W        W45814   6.685  13.166   0.056 -0.0684 -0.1082  0.0972
29631W        W45815  10.512   9.516   2.339 -0.0561 -0.1174 -0.0070
29632W        W45816   9.303  13.248  12.683 -0.1212  0.3096  0.1026
29633W        W45817  12.143  17.529   4.637  0.3286 -0.3852 -0.1801
29634W        W45818   8.279   7.440  12.663 -0.0824  0.0983 -0.0303
29635W        W45819   5.164   1.551  12.188  0.1997  0.0683 -0.2704
29636W        W45820   4.888   8.040  12.094 -0.4949  0.0177  0.1646
29637W        W45821   6.070   3.955   3.644  0.1541  0.1258  0.0778
29638W        W45822  19.041   4.891   4.747 -0.0948  0.2478 -0.0677
29639W        W45823  14.475  18.200   2.269 -0.0639  0.0522  0.2206
29640W        W45824   4.260   5.093  13.385  0.1413 -0.2515 -0.3785
29641W        W45825   6.258  11.168  13.252  0.1533 -0.2698 -0.0208
29642W        W45826  11.408   3.751  11.713 -0.1843 -0.0068 -0.3756
29643W        W45827   7.801  13.781   0.044  0.3725  0.2054  0.1664
29644W        W45828  15.095  10.928  13.048  0.0218  0.1955 -0.1096
29645W        W45829   3.795   8.486  13.352 -0.2023  0.1638 -0.3778
29646W        W45830   6.797   3.359  11.432 -0.3673  0.0987 -0.0431
29647W        W45831   6.132  17.042   4.364 -0.4811 -0.1014 -0.0408
29648W        W45832   5.495  15.736   1.905  0.1493  0.1054  0.1023
29649W        W45833  18.943   1.605  12.515  0.1071 -0.0148 -0.2528
29650W        W45834   9.931  12.110  12.086  0.0688  0.0048  0.1298
29651W        W45835  16.670   8.910   4.021  0.2433  0.2795  0.1827
29652W        W45836   1.691   4.449   1.359 -0.3893  0.0044  0.3270
29653W        W45837   6.026  13.848   3.064  0.3037  0.0705 -0.0637
29654W        W45838  15.250  13.021   1.355  0.0709 -0.1798 -0.2543
29655W        W45839   5.135  17.047  11.790  0.1926 -0.3151  0.0053
29656W        W45840   4.554   0.161  11.421 -0.0491 -0.0715 -0.1840
29657W        W45841   4.838   2.194  12.855  0.1396 -0.2432 -0.0307
29658W        W45842   5.504   8.724  12.676 -0.0107 -0.2049  0.1176
29659W        W45843   9.509   5.150  10.975 -0.2237 -0.1020  0.0318
29660W        W45844  13.166   5.677  13.601 -0.2225  0.2618  0.1022
29661W        W45845  12.758   4.565  14.878  0.0542 -0.1049 -0.1401
29662W        W45846   9.782  12.656   2.526 -0.0172 -0.1376  0.1386
29663W        W45847   2.616  11.149   2.376 -0.5843 -0.0414  0.0499
29664W        W45848  10.478   1.634  14.797 -0.0403  0.2623 -0.1809
29665W        W45849  16.290  17.349  13.981  0.1405 -0.2271  0.1383
29666W        W45850  14.035   4.363   4.926  0.0613 -0.1186  0.0598
29667W        W45851   3.418   1.438   3.848 -0.0724 -0.3335  0.3435
29668W        W45852   5.212   3.113   9.447 -0.1439  0.2144  0.1239
29669W        W45853   0.322   1.892   1.110 -0.3560 -0.0778 -0.0029
29670W        W45854   7.422   4.551   5.369  0.0513  0.3762 -0.3185
29671W        W45855  13.799   4.309   3.420 -0.0065 -0.2427 -0.2009
29672W        W45856  19.169   0.474  14.192  0.3722 -0.2993 -0.1437
29673W        W45857   5.750  10.330  10.890 -0.1361 -0.2574 -0.3773
29674W        W45858  13.715   3.282  13.707  0.0222 -0.5129 -0.0200
29675W        W45859  17.713  13.354   3.028 -0.2950 -0.1960 -0.1808
29676W        W45860   4.719   8.325   4.747 -0.3763 -0.1194 -0.2036
29677W        W45861  11.971   6.281  12.419  0.0597  0.4679  0.1129
29678W        W45862   6.291   1.431  11.824 -0.0717  0.0876 -0.1856
29679W        W45863  14.913   9.263   1.763  0.1454 -0.0873  0.1446
29680W        W45864   9.086   7.801  11.666  0.0133 -0.1838 -0.1923
29681W        W45865   1.609   6.241   1.762  0.1624 -0.2737 -0.2482
29682W        W45866   1.103   1.284   3.510 -0.0483  0.0061 -0.0321
29683W        W45867  17.127   1.610  14.790  0.2474 -0.1090 -0.3673
29684W        W45868   4.433  13.585   1.441 -0.2333  0.0395 -0.3690
29685W        W45869   9.788   4.269   4.268  0.3922  0.3638  0.2506
29686W        W45870  18.946  16.469  10.766  0.0865 -0.2346 -0.0978
29687W        W45871   7.529  12.059   9.961  0.0513  0.0039  0.0933
29688W        W45872   6.215  11.097   3.450  0.1187 -0.4390  0.2110
29689W        W45873  10.702   0.145   1.778  0.0743 -0.0775 -0.0894
29690W        W45874   0.063   5.955   4.489 -0.3752 -0.3475  0.2485
29691W        W45875  15.369  12.216   4.085  0.1585 -0.2768 -0.3852
29692W        W45876  18.831  15.927  12.569  0.1835  0.3224 -0.2129
29693W        W45877  10.279  12.006   0.182  0.2029 -0.1218  0.0146
29694W        W45878   7.398  11.304  12.904  0.3097 -0.0224 -0.1975
29695W        W45879  13.323   0.192  10.127  0.0086 -0.1520  0.0321
29696W        W45880  18.187   6.095   1.209 -0.1445 -0.2303  0.2920
29697W        W45881  12.020   2.241   5.472 -0.0885 -0.2267  0.0973
29698W        W45882  17.901  15.805   5.226  0.1416 -0.1542 -0.1388
29699W        W45883  16.881  15.784   1.378 -0.3154  0.2632 -0.1276
29700W        W45884  14.247   4.234  12.608 -0.0026  0.0830 -0.0048
29701W        W45885   7.924  18.594   1.693  0.1115 -0.1039 -0.0930
29702W        W45886   2.140   9.491   4.673  0.1328 -0.1718  0.0696
29703W        W45887  18.627  11.874   2.864  0.0108  0.0704 -0.1332
29704W        W45888   5.210   4.588  11.803  0.1984  0.2045  0.1633
29705W        W45889   6.139   9.371   3.704  0.1466 -0.0004 -0.0379
29706W        W45890   6.767   1.593   1.264  0.2805  0.1590 -0.0571
29707W        W45891   8.387  12.575  12.006  0.0648  0.0325 -0.2411
29708W        W45892   1.575   6.681  12.232  0.0309  0.0887  0.1280
29709W        W45893   8.958   6.602   4.172 -0.0625 -0.1364  0.2549
29710W        W45894   0.233  17.663   4.269  0.0987  0.1427  0.0628
29711W        W45895  16.122  10.164  11.378  0.1906 -0.1652  0.0078
29712W        W45896   3.437  17.078   3.297  0.1734 -0.1567  0.2110
29713W        W45897  14.371   6.529   1.935 -0.0605  0.0042 -0.0643
29714W        W45898   2.906  16.318  11.296  0.0135  0.1822  0.1811
29715W        W45899   0.443  18.625  10.223 -0.0410  0.1256  0.1003
29716W        W45900   5.803   2.649  14.111  0.1666 -0.0335 -0.2611
29717W        W45901   6.800   7.566   4.820 -0.1844 -0.1770 -0.2270
29718W        W45902   0.073   4.938   5.026  0.2710 -0.1290  0.2482
29719W        W45903  18.298   5.931   0.684 -0.0328  0.0640  0.2004
29720W        W45904  16.674  12.010  13.628  0.3424  0.2005 -0.1615
29721W        W45905  11.186   8.772  12.097  0.0264 -0.6012  0.0551
29722W        W45906  18.790  11.188  10.513  0.1329  0.0917 -0.3503
29723W        W45907  18.967  19.060  13.328  0.1703 -0.1638  0.2388
29724W        W45908   1.856   0.956   5.220 -0.0810  0.1287  0.0524
29725W        W45909   2.538  17.629   1.625 -0.0562  0.1573  0.0369
29726W        W45910   3.216  14.907   3.633 -0.3389  0.4237 -0.2803
29727W        W45911   1.953   6.625   2.461  0.0480 -0.0446 -0.0589
29728W        W45912  18.684   8.476  10.726  0.2220  0.1368 -0.0644
29729W        W45913   2.295   9.734   3.231  0.1383 -0.0907 -0.1631
29730W        W45914   7.089  16.158   4.735 -0.0775 -0.1908  0.0919
29731W        W45915  17.317  10.632   2.336 -0.0688  0.2686  0.2733
29732W        W45916  10.045   1.445   0.236  0.4363 -0.3126  0.2064
29733W        W45917  12.542  12.935   2.888  0.3765  0.3996 -0.0804
29734W        W45918   5.823  13.336  11.276  0.0017 -0.0385  0.1543
29735W        W45919  16.954  19.303   4.210  0.3897  0.3277 -0.3710
29736W        W45920   6.498  15.864   1.496 -0.0096 -0.1531 -0.0184
29737W        W45921   2.055  14.562   5.520  0.0575 -0.2550  0.1701
29738W        W45922  19.128   3.257  14.856  0.3354 -0.3810  0.0543
29739W        W45923   6.739   6.778  12.891 -0.2217  0.0143 -0.1422
29740W        W45924   1.588   0.713   0.190 -0.1608 -0.0153  0.2830
29741W        W45925   1.879   6.164   5.053  0.0007  0.1065  0.0560
29742W        W45926  10.153   8.279   5.243 -0.2591 -0.6223  0.0523
29743W        W45927  14.631   5.944   4.163  0.2793 -0.0456  0.2007
29744W        W45928   9.815  18.076   1.577 -0.0061  0.2949 -0.2262
29745W        W45929  17.306   0.667   3.019 -0.1199  0.1514 -0.0177
29746W        W45930   0.144   8.288   3.422  0.0034 -0.1134 -0.3570
29747W        W45931  13.607   1.080   3.830 -0.1161  0.0190 -0.1957
29748W        W45932  11.201  19.202   2.435 -0.1765 -0.2263  0.1583
29749W        W45933   3.969   8.612  12.072 -0.0854  0.4265  0.1353
29750W        W45934  18.224   7.151  12.887  0.0518  0.1422  0.1028
29751W        W45935   9.216   5.637   4.409 -0.1880  0.1951 -0.2675
29752W        W45936   0.125   2.860   9.638  0.0653 -0.2200 -0.1177
29753W        W45937   0.211   8.620   0.250 -0.2435 -0.2306 -0.0521
29754W        W45938  14.658   8.070  10.480  0.1492 -0.3255 -0.1866
29755W        W45939   1.819   1.807   4.580 -0.0162  0.1976 -0.0851
29756W        W45940   7.973   3.096  12.624 -0.0110  0.1303  0.1561
29757W        W45941   5.552  16.452   4.293 -0.1751 -0.0131  0.1278
29758W        W45942   3.113  12.516  10.137  0.2311  0.0146 -0.2021
29759W        W45943   0.687  17.006   5.184 -0.2193 -0.3403 -0.1283
29760W        W45944   8.859   0.378  11.771  0.1800 -0.0773 -0.0701
29761W        W45945   9.817  15.443   0.971 -0.1047  0.0479  0.1778
29762W        W45946   3.918  12.719   3.964 -0.0218 -0.3152 -0.2277
29763W        W45947  12.971   7.881  11.264 -0.0830 -0.2917 -0.1062
29764W        W45948   1.333  16.671  11.176 -0.1571  0.0715 -0.1395
29765W        W45949  15.498  18.043   1.506  0.0876  0.3050 -0.0371
29766W        W45950  18.115  10.280  11.160 -0.3293  0.2674  0.1047
29767W        W45951   4.290  17.718   2.567  0.2260  0.5014  0.0810
29768W        W45952   6.630   4.102  11.517 -0.0306  0.0605  0.1916
29769W        W45953  15.626  16.911  14.479 -0.3774 -0.0483  0.1662
29770W        W45954  12.960  10.935  11.721 -0.1643 -0.1180  0.1360
29771W        W45955   4.248  17.979  14.269  0.0628  0.4883  0.0358
29772W        W45956  17.694   6.904  10.123 -0.0624  0.2828 -0.0228
29773W        W45957   2.143   6.834  10.827 -0.1451 -0.0671 -0.0009
29774W        W45958  14.071  12.942  14.201 -0.2154  0.0606 -0.1140
29775W        W45959   5.555   4.226  13.505 -0.1799 -0.0561 -0.2033
29776W        W45960   6.974   7.775  13.600 -0.2893 -0.1049 -0.0164
29777W        W45961   7.743   7.723  14.592 -0.2089 -0.2512 -0.1922
29778W        W45962   4.082   0.263  11.256 -0.2326  0.1949  0.1429
29779W        W45963  15.325   1.481   4.745  0.0402 -0.1367 -0.1584
29780W        W45964  15.881   8.398  11.199  0.1163 -0.1918  0.0474
29781W        W45965  15.363  16.951   4.151 -0.1058 -0.3313 -0.0173
29782W        W45966  11.709  11.638   1.427  0.2814 -0.2071  0.0237
29783W        W45967   9.762   7.417  13.680  0.0133  0.2004 -0.1878
29784W        W45968   5.308   9.535   0.378  0.1050 -0.1637  0.2456
29785W        W45969  10.024  16.778   3.808  0.1913  0.0048 -0.1131
29786W        W45970  18.150  15.845   4.463 -0.0092  0.4223 -0.0838
29787W        W45971   2.814   5.899  13.320  0.2777 -0.1087  0.2483
29788W        W45972  15.936  16.698  13.740 -0.2385  0.2330  0.0223
29789W        W45973   0.553  19.277   1.612  0.3053 -0.0339 -0.1236
29790W        W45974   0.086  16.990  11.057  0.2498  0.0482 -0.0388
29791W        W45975  11.739   8.551   0.970  0.2940 -0.0706  0.3780
29792W        W45976   8.195  10.060   3.531 -0.0656  0.2504  0.0479
29793W        W45977   4.483  12.374   9.849 -0.0183  0.2421  0.0452
29794W        W45978   7.943  13.425  14.105  0.1120 -0.0700  0.1143
29795W        W45979   0.591  12.279   1.587  0.3183 -0.3920  0.1015
29796W        W45980   1.581  13.787  14.809 -0.0376 -0.2404 -0.2096
29797W        W45981   0.562   1.174  11.123  0.2586 -0.2623 -0.3453
29798W        W45982  19.039  14.294  14.012  0.3615 -0.1237 -0.0457
29799W        W45983  13.769   5.125  10.751 -0.3134 -0.3467  0.4706
29800W        W45984  13.801  14.968   3.348  0.2633 -0.0845  0.2748
29801W        W45985  19.197  18.890  12.203 -0.1369  0.4210  0.2965
29802W        W45986   7.449   6.545   4.079  0.4385 -0.3163  0.0093
29803W        W45987  17.464  16.139   1.468 -0.1306 -0.1623 -0.1109
29804W        W45988   0.991   1.634   0.013 -0.2583 -0.1918 -0.1029
29805W        W45989  19.338   2.907   3.139  0.1874  0.0527  0.1113
29806W        W45990  16.012  14.610   0.378  0.0875 -0.0783  0.0046
29807W        W45991   9.048  18.128   4.943 -0.1275 -0.1409  0.2590
29808W        W45992  13.150  15.551   3.614  0.1725  0.1420 -0.0534
29809W        W45993  11.547  16.657  13.114  0.0424  0.1829  0.2789
29810W        W45994  16.793  10.085   3.972 -0.1638 -0.0349  0.0440
29811W        W45995   1.211   9.642  10.932  0.2060  0.0215  0.0623
29812W        W45996  15.093   6.078  12.161  0.3954 -0.1162 -0.0236
29813W        W45997  12.311  17.867   1.520 -0.1253 -0.1012  0.1134
29814W        W45998  18.313   2.484   1.176  0.3309  0.1632 -0.0355
29815W        W45999   3.668  11.711  14.760 -0.0680 -0.4012 -0.4103
29816W        W46000  14.936   2.363  10.495  0.2379  0.0878 -0.0023
29817W        W46001  17.311  15.318  13.084 -0.2102 -0.2049 -0.2118
29818W        W46002   0.907   4.319   2.366 -0.1630 -0.0218  0.0226
29819W        W46003  12.688   5.134  14.282  0.1398  0.0189  0.1866
29820W        W46004  10.172  15.608   0.034 -0.0780 -0.0888 -0.0730
29821W        W46005  11.728   2.555  12.357 -0.0420  0.1179  0.1920
29822W        W46006   3.348  18.129   1.525 -0.1291 -0.4163  0.0621
29823W        W46007   0.683  14.904   2.553  0.3118  0.1357 -0.4041
29824W        W46008  16.010  14.451  12.693 -0.0454 -0.0701  0.0712
29825W        W46009   4.708   9.480   2.288  0.0095 -0.0671 -0.2349
29826W        W46010  17.342  19.062   4.422  0.0999  0.1466 -0.1757
29827W        W46011  13.589  19.254  10.900 -0.1796  0.1476 -0.1732
29828W        W46012   8.357   1.549   2.782 -0.1544  0.2233 -0.0598
29829W        W46013   5.078  18.452  10.690 -0.1938  0.1820 -0.0930
29830W        W46014   8.914   0.194   0.234  0.1957  0.0086 -0.0121
29831W        W46015   4.674   8.049   0.342 -0.2030 -0.0134 -0.0840
29832W        W46016  11.943  17.833   1.819 -0.0008  0.1347 -0.0929
29833W        W46017  12.642  11.600   1.178  0.2634  0.0028  0.3086
29834W        W46018  12.749   6.428   3.902 -0.1179  0.0711 -0.0072
29835W        W46019  13.740  11.977  12.536  0.1181  0.5258 -0.3088
29836W        W46020   4.001  12.855  12.552 -0.0882 -0.4180  0.0980
29837W        W46021   9.647  12.560  10.155 -0.1047 -0.0491  0.1260
29838W        W46022   2.684   5.831  12.877  0.2757  0.0658 -0.1396
29839W        W46023  12.611  14.641  14.734  0.0814  0.2238  0.1031
29840W        W46024   6.937  19.371  12.801  0.0316 -0.1015 -0.1322
29841W        W46025  10.615   1.457   0.798 -0.0768 -0.0607 -0.0551
29842W        W46026  10.237  15.560  13.297 -0.2521 -0.1591 -0.1279
29843W        W46027  19.325  11.376   1.685  0.1204 -0.0282 -0.0065
29844W        W46028   2.898   6.399  13.415  0.4213 -0.1460  0.0910
29845W        W46029  13.424   3.024  10.887 -0.2332  0.0963 -0.1404
29846W        W46030   7.291   1.086   4.711 -0.1151  0.5057 -0.0825
29847W        W46031  15.341   9.639   3.567  0.3057 -0.0654  0.1493
29848W        W46032   7.043   3.233   0.949  0.0828 -0.0619 -0.0056
29849W        W46033  14.030   7.005   0.497  0.0098  0.1149  0.1729
29850W        W46034   9.652  14.932   5.080  0.2942  0.0615  0.0001
29851W        W46035   8.373   7.010  13.730 -0.1677 -0.0519  0.0309
29852W        W46036   5.609  12.386   2.129 -0.0867 -0.1413  0.1051
29853W        W46037   2.314   3.271   0.943 -0.1742 -0.1265  0.0442
29854W        W46038  11.362   7.464   4.625  0.2096  0.2866  0.0974
29855W        W46039  17.873   0.702  12.844  0.0929 -0.2130 -0.2323
29856W        W46040   8.351  18.342   1.815 -0.1944  0.4368  0.2268
29857W        W46041   3.155  13.543   2.113  0.1655 -0.2544  0.0830
29858W        W46042   9.700  13.887   2.244 -0.0690  0.1381  0.0079
29859W        W46043   0.067  11.034   1.033 -0.1653  0.1724  0.0399
29860W        W46044   5.701  17.136  13.970  0.2827  0.3680  0.3479
29861W        W46045   2.691   4.397   2.104  0.0041 -0.0078 -0.3164
29862W        W46046  19.211  12.874  13.586 -0.0430  0.1322 -0.0520
29863W        W46047   8.799   7.356  10.429  0.2231  0.1151 -0.0945
29864W        W46048   1.568   5.097   9.688 -0.0039  0.0440  0.1343
29865W        W46049  11.115   9.932   1.752 -0.3738 -0.1601  0.1000
29866W        W46050   9.042  18.369   0.620 -0.0196 -0.1383  0.2458
29867W        W46051  14.850  13.705   2.524 -0.0663 -0.0733  0.2594
29868W        W46052   3.129  14.128  12.987 -0.3051 -0.0805  0.2628
29869W        W46053  12.792   6.593  13.482 -0.1592  0.0430 -0.1205
29870W        W46054   4.038  18.336   3.837 -0.0548 -0.3273  0.5063
29871W        W46055   8.164  11.039  10.741  0.0610 -0.2195 -0.1009
29872W        W46056   7.846  13.389   2.780 -0.1605 -0.0376  0.0809
29873W        W46057   4.024  17.657  14.566  0.4279  0.4342  0.0465
29874W        W46058   5.711  12.756   2.484 -0.0209  0.0216  0.5096
29875W        W46059   8.096   1.194   3.058 -0.0653  0.3723 -0.1115
29876W        W46060  18.681   1.359  11.527  0.0035  0.0025 -0.0898
29877W        W46061   8.802  15.431   1.719 -0.2084 -0.2019 -0.1483
29878W        W46062   1.623   2.633  14.296 -0.3334  0.0181 -0.2034
29879W        W46063  13.898  11.675   4.797 -0.0033 -0.1436  0.4292
29880W        W46064   6.196  12.352   0.684 -0.0868  0.1501 -0.0057
29881W        W46065  12.931   2.516   3.245 -0.1473  0.1035  0.1558
29882W        W46066  11.049  13.811  10.465  0.1170  0.4658  0.1173
29883W        W46067   6.170   9.040   0.591 -0.0119  0.0364  0.1903
29884W        W46068   6.109  18.554  13.158 -0.0297 -0.0489  0.0961
29885W        W46069   4.155  10.693   0.073  0.1903 -0.3600  0.2688
29886W        W46070   8.496   7.508  13.445 -0.3043  0.1492  0.0220
29887W        W46071  18.988   6.047  11.100 -0.2068  0.1016  0.0359
29888W        W46072   4.191   2.618   0.906 -0.2013  0.0194  0.1882
29889W        W46073   1.415   6.942  14.541  0.2812 -0.0447  0.0894
29890W        W46074  16.694   2.330   2.031  0.1701  0.0641 -0.0059
29891W        W46075   7.702   6.176   3.487 -0.0417  0.0186  0.2811
29892W        W46076  12.521   6.068  13.458  0.0270 -0.2404 -0.0090
29893W        W46077  10.009  10.709  12.741 -0.1150 -0.0060  0.0865
29894W        W46078   1.063  10.977  12.518  0.0964 -0.0013  0.1236
29895W        W46079  10.913   2.890   2.708 -0.0282  0.3325 -0.1757
29896W        W46080  17.841  11.443  11.259  0.1690 -0.2358 -0.2779
29897W        W46081  10.572  13.993  13.988  0.0273 -0.0220  0.1213
29898W        W46082  13.363   9.688   1.747 -0.2125 -0.0722  0.0965
29899W        W46083   4.553  10.856  13.038 -0.1225 -0.2020  0.1065
29900W        W46084  17.644  13.602   5.046  0.1828 -0.1775  0.4765
29901W        W46085   1.325  14.285   1.262  0.1785 -0.0750 -0.1591
29902W        W46086  14.973   9.015   0.981  0.1237  0.1900  0.2275
29903W        W46087   3.159   0.414  12.349  0.0624 -0.1210  0.0588
29904W        W46088   7.001   0.733  12.096 -0.2107 -0.0051  0.0855
29905W        W46089   6.593   9.252   0.085 -0.2120  0.2578  0.0507
29906W        W46090  17.985   4.143   0.003 -0.2297 -0.1512 -0.1707
29907W        W46091  18.330  13.609   0.292  0.2655  0.0618  0.3908
29908W        W46092  18.372  17.525  11.891  0.0524 -0.1179  0.4447
29909W        W46093  12.250   6.413  11.683  0.1699 -0.3046  0.2964
29910W        W46094   2.009   7.589  13.917 -0.1448  0.0793  0.1383
29911W        W46095  13.693   5.416  10.354  0.1060  0.0301 -0.0672
29912W        W46096  16.477   1.352   0.442  0.0269  0.2216  0.0996
29913W        W46097   4.691   0.953  14.033 -0.2212 -0.1451 -0.0667
29914W        W46098   3.591  17.436   3.917 -0.1279 -0.2718 -0.0703
29915W        W46099  19.350  10.599  11.270 -0.0943 -0.0009 -0.0266
29916W        W46100  14.970   8.019   1.349  0.1209 -0.0617 -0.0028
29917W        W46101   6.018  10.482   2.078  0.0184 -0.1262  0.1547
29918W        W46102   3.341  13.390   4.959  0.1362 -0.0935  0.1504
29919W        W46103   5.394  13.283   4.187  0.1029 -0.0778  0.2251
29920W        W46104   6.708  17.161  11.624  0.1053  0.0122  0.0609
29921W        W46105  11.384   5.707   3.824 -0.3562  0.1079  0.2003
29922W        W46106  13.634  15.838   1.215 -0.1975 -0.1278  0.0434
29923W        W46107  13.673  12.572  11.964  0.2773 -0.0662  0.1030
29924W        W46108   5.299  14.926   1.848 -0.0371 -0.0851  0.4455
29925W        W46109  16.255   7.774  14.506  0.2476  0.5598 -0.1558
29926W        W46110  12.085   7.623  13.109 -0.0180 -0.0624  0.3787
29927W        W46111  12.548   8.419  11.525  0.0548 -0.0170 -0.0828
29928W        W46112  19.238  18.981   0.544  0.0138 -0.0982 -0.0159
29929W        W46113  15.822  19.248  12.860  0.1971 -0.1395  0.0341
29930W        W46114  12.675   0.936  12.745 -0.0102 -0.0788 -0.3309
29931W        W46115   4.066   6.796   3.728  0.2818  0.1316 -0.1777
29932W        W46116   4.993  19.174  12.698  0.0995  0.1158 -0.0803
29933W        W46117   1.506  11.956  10.078 -0.1548  0.0376 -0.1227
29934W        W46118  13.613   2.273   2.487 -0.0407 -0.0190 -0.1264
29935W        W46119   3.405   8.816   4.453  0.0538  0.0649  0.1373
29936W        W46120   8.602  10.135  13.190 -0.0958  0.1275  0.1685
29937W        W46121   0.469  12.172  13.683 -0.0727  0.2138  0.2157
29938W        W46122  13.625   7.642   2.977 -0.2586 -0.1315  0.1118
29939W        W46123   3.376   7.670  13.340 -0.0746  0.2471 -0.0261
29940W        W46124  14.078  11.361  12.973 -0.2715  0.2660  0.2214
29941W        W46125  14.007   6.457  12.987 -0.1609 -0.2507  0.0118
29942W        W46126  18.969   6.646  10.374 -0.1903  0.0744  0.3456
29943W        W46127  16.387   5.377  13.522  0.3672 -0.2941 -0.1499
29944W        W46128  18.165   7.312  11.751 -0.1990  0.1509 -0.0059
29945W        W46129  14.948  10.772   4.021 -0.1687  0.0446  0.1060
29946W        W46130  17.046   7.016   3.911 -0.1409  0.0694  0.0627
29947W        W46131   7.003   2.007   2.147  0.2480 -0.0936 -0.4842
29948W        W46132   0.127  10.847   2.239  0.0568  0.1939 -0.0345
29949W        W46133   2.002  10.560   2.304  0.2380 -0.1142 -0.0217
29950W        W46134  11.316  15.205  11.040 -0.4268  0.1200 -0.2367
29951W        W46135  14.717   9.056   0.512  0.0757  0.1818 -0.2754
29952W        W46136  18.164   0.462   3.023  0.4687  0.0043  0.1765
29953W        W46137  10.313   6.887  13.973 -0.0657  0.0836 -0.0313
29954W        W46138   2.778   7.910  12.904  0.1142  0.2027 -0.0076
29955W        W46139  12.194  11.364  13.697 -0.3325  0.1371  0.1430
29956W        W46140   7.362   3.094  10.302  0.0927  0.1620 -0.2473
29957W        W46141  16.137   7.797   9.929  0.1077  0.0908 -0.0941
29958W        W46142   7.106   8.873   1.744 -0.0375  0.1500 -0.1802
29959W        W46143   2.747   3.119   1.232  0.1460 -0.1340 -0.3590
29960W        W46144  13.189   9.081   0.779  0.1288  0.1070 -0.0346
29961W        W46145   4.071  13.498   3.336 -0.0105 -0.0776 -0.0375
29962W        W46146   8.758   1.933  12.727 -0.0155 -0.1955  0.1330
29963W        W46147   5.808   6.561   1.110 -0.2938  0.0652 -0.2294
29964W        W46148  12.240   4.993  14.082 -0.0646  0.1422 -0.2666
29965W        W46149  13.629  14.699   9.702 -0.1054 -0.0863  0.1051
29966W        W46150   9.294   0.586   3.282 -0.1637  0.0017  0.2004
29967W        W46151   7.756  14.557   2.879  0.2978 -0.2493 -0.1305
29968W        W46152   3.644  17.151   1.351  0.0470 -0.0265  0.0235
29969W        W46153   2.761   7.120   0.959  0.0005  0.0622 -0.0185
29970W        W46154   6.941  13.758  11.688  0.0092 -0.0296 -0.3119
29971W        W46155  19.155   2.455  14.847  0.0470  0.3006 -0.0149
29972W        W46156  18.664  11.259  13.845 -0.0008 -0.2090 -0.2739
29973W        W46157   4.721   0.684  10.291  0.0472 -0.1665  0.2187
29974W        W46158   2.267   3.699  13.772 -0.2688 -0.0319 -0.0739
29975W        W46159   3.813   6.858  10.215  0.0987  0.2022  0.2996
29976W        W46160  16.999   9.214   3.649  0.3439 -0.2090 -0.0911
29977W        W46161   0.961  15.508  14.748 -0.0451  0.1262 -0.4230
29978W        W46162  13.656   6.630   2.078  0.0310  0.0496  0.1536
29979W        W46163   5.851   7.068   1.243  0.0251  0.1174 -0.1697
29980W        W46164  16.868   2.165   2.479 -0.4290  0.1444  0.0029
29981W        W46165  13.107   9.999   2.002 -0.0294  0.0541 -0.0656
29982W        W46166   2.029  17.756  13.214 -0.1367  0.0605  0.1391
29983W        W46167   0.060   9.489   1.964 -0.1436 -0.2043  0.2911
29984W        W46168  15.211  11.020  12.040  0.1491  0.1083  0.2697
29985W        W46169  12.325   9.358  14.659  0.0580  0.0675  0.2000
29986W        W46170   7.476   9.809  10.240 -0.0478  0.1047  0.1770
29987W        W46171   1.497   0.310   1.144  0.0298 -0.1255 -0.0221
29988W        W46172  15.254  12.644  10.634  0.2108 -0.2135  0.1447
29989W        W46173  18.795   5.353   2.369 -0.1672  0.0943 -0.1577
29990W        W46174  18.294   6.926   2.500  0.0350  0.2435  0.1489
29991W        W46175   3.220   7.905  14.356  0.0752  0.0497 -0.1504
29992W        W46176   3.709  10.042   5.151  0.0986  0.1472  0.2375
29993W        W46177   9.518   9.883  13.664  0.0649 -0.1948 -0.0552
29994W        W46178  13.229   3.086  12.638  0.2059  0.3503  0.0697
29995W        W46179  10.515   4.263  14.047  0.3517  0.0614  0.0231
29996W        W46180  10.760   7.032  11.251  0.0149  0.4831  0.1193
29997W        W46181   5.145   7.450   2.591 -0.1985 -0.5537 -0.1812
29998W        W46182  10.072   5.681  13.245 -0.1612  0.1575 -0.1593
29999W        W46183   0.762   3.691   4.884  0.3691 -0.2378  0.3314
30000W        W46184  15.439   2.260  14.540 -0.0350 -0.0679 -0.1387
30001W        W46185  18.022   8.461   2.325 -0.1788  0.3904  0.0171
30002W        W46186  14.323  16.928  12.190  0.0561 -0.0278  0.0319
30003W        W46187  19.275  11.943   0.325  0.2016  0.3775 -0.1563
30004W        W46188   6.747  18.270   1.980 -0.1795  0.2366  0.1176
30005W        W46189  12.134  12.001   0.795 -0.3022 -0.1964 -0.1541
30006W        W46190  10.360  16.547   5.078  0.0987 -0.1855 -0.0587
30007W        W46191   4.776   5.063   5.096 -0.2332 -0.0209 -0.3267
30008W        W46192   9.168  18.450  12.427 -0.2471 -0.1147 -0.0666
30009W        W46193   6.216   0.949  11.966 -0.0361 -0.1100  0.1835
30010W        W46194   1.229  13.526  13.577  0.0774  0.1293  0.0969
30011W        W46195   4.288  18.930  12.275 -0.2026 -0.1282  0.0036
30012W        W46196  18.540   1.328   2.671  0.0176  0.0606 -0.2355
30013W        W46197  10.196  11.893   1.547 -0.0037 -0.1889 -0.0135
30014W        W46198  15.930   9.125  10.581  0.0355  0.3740  0.1548
30015W        W46199   4.712   1.727   3.624 -0.0128  0.1151  0.2521
30016W        W46200  16.988   6.910  12.753 -0.3534  0.2284  0.1390
30017W        W46201  11.052  17.534  11.962  0.5643  0.1884  0.0247
30018W        W46202   4.124   4.199   1.573  0.0171 -0.1326  0.1068
30019W        W46203   4.728   4.583   4.755 -0.1290 -0.1953 -0.0077
30020W        W46204  10.529  11.374   0.640 -0.0083  0.0777 -0.1556
30021W        W46205   1.183   5.161  13.236 -0.0291 -0.0120  0.1746
30022W        W46206   9.696  13.670   1.697  0.3656 -0.0675 -0.1309
30023W        W46207   9.815  12.980   1.098 -0.1219 -0.1423 -0.1752
30024W        W46208   5.979   8.016   9.320  0.1231  0.4899  0.1065
30025W        W46209  18.491   1.101   0.273 -0.0782 -0.2522 -0.0175
30026W        W46210   9.589   5.483   3.838  0.3158  0.0813  0.2025
30027W        W46211  14.548   6.557  10.966  0.0234 -0.0548 -0.2956
30028W        W46212   6.974  12.936  12.343  0.3741 -0.1800  0.0113
30029W        W46213   5.015   9.355   2.669  0.0801  0.0282  0.0085
30030W        W46214  19.283  10.061  13.676  0.2276  0.0601  0.0528
30031W        W46215   9.963  12.868  13.853 -0.5411 -0.1858  0.0589
30032W        W46216   9.921  14.052   0.850 -0.0670 -0.0940  0.0558
30033W        W46217   9.048   9.182   2.206 -0.1637  0.3738 -0.1943
30034W        W46218   3.616   9.911  10.621  0.2104  0.1593  0.1975
30035W        W46219   9.113  10.232  12.676 -0.1633 -0.1407  0.1295
30036W        W46220   5.509   5.520   4.334  0.3846 -0.3734  0.1299
30037W        W46221   6.051  13.689  11.796  0.0306  0.0963  0.2717
30038W        W46222   6.367  13.080   1.257 -0.3769  0.0840  0.0274
30039W        W46223  17.728   8.017  14.816  0.1969 -0.4634  0.0112
30040W        W46224   4.904  14.831   2.711  0.1435  0.0543  0.0722
30041W        W46225   3.780  15.706   5.069 -0.2976  0.0281 -0.0646
30042W        W46226   6.810   0.753  10.626 -0.0358 -0.0026 -0.4591
30043W        W46227  12.517   2.954   2.074  0.0106 -0.2651 -0.2610
30044W        W46228  18.000   9.355   0.254 -0.1382 -0.1471  0.2484
30045W        W46229   3.175  11.922   0.990 -0.5461  0.0625 -0.1560
30046W        W46230  17.054   3.158   4.000 -0.2081 -0.0661 -0.0459
30047W        W46231   2.985   0.115   0.434 -0.0510  0.4199 -0.1823
30048W        W46232   5.881   0.296  14.238 -0.3648  0.0816 -0.1767
30049W        W46233   4.879   5.979  11.623  0.0815 -0.1653  0.1166
30050W        W46234   8.247   5.546   4.030 -0.2055  0.2260  0.1395
30051W        W46235   9.589   6.708   1.604  0.0683 -0.2161 -0.1328
30052W        W46236  15.401  12.001   4.631  0.2974 -0.3201 -0.0598
30053W        W46237   6.255  15.061  14.909  0.2960 -0.2040 -0.2585
30054W        W46238  12.996  18.605   1.036 -0.1412  0.0112 -0.1295
30055W        W46239  10.574   4.109  13.568  0.1713  0.0946 -0.1826
30056W        W46240   8.650  14.607   1.135  0.0149  0.1652 -0.2336
30057W        W46241   3.597  10.032  11.431 -0.1584  0.2276 -0.2500
30058W        W46242   9.536   2.580   1.034 -0.1057  0.0492 -0.1853
30059W        W46243   3.833   0.240   1.132 -0.2451 -0.3385  0.0596
30060W        W46244   5.423   8.039  14.012 -0.2073 -0.0206  0.0235
30061W        W46245   4.247   1.688   5.328  0.1424  0.1544  0.0479
30062W        W46246  17.178  18.143   1.556 -0.0883 -0.2187  0.0485
30063W        W46247  14.655   0.016  10.631  0.1237  0.5134 -0.0389
30064W        W46248   5.802   6.718  11.326 -0.0892  0.0117  0.5001
30065W        W46249   7.787  14.617  12.883  0.0876 -0.3598 -0.1112
30066W        W46250   0.952  19.237  12.970 -0.3907  0.2345  0.0598
30067W        W46251   0.887  10.764   2.034  0.0565 -0.2433 -0.0736
30068W        W46252   6.766  14.554  12.174  0.0825 -0.3076 -0.0320
30069W        W46253   2.251  14.405  12.770 -0.0502 -0.3095 -0.3314
30070W        W46254  16.259  13.592  12.335  0.0398  0.3422  0.1143
30071W        W46255   1.676   5.404  10.089 -0.1859  0.0083  0.1121
30072W        W46256   4.185   5.935  11.218  0.0217 -0.0472 -0.1328
30073W        W46257  14.572   1.197  14.527 -0.2215  0.2055  0.0227
30074W        W46258  13.362  12.113  12.152 -0.1113  0.0168  0.0226
30075W        W46259   3.298   3.070   2.426 -0.2016 -0.2510 -0.0332
30076W        W46260  14.034  17.865   4.358 -0.1875 -0.0564 -0.2218
30077W        W46261  18.419   1.417   3.738 -0.3874 -0.1090 -0.1804
30078W        W46262   4.508   5.698   0.393  0.1921  0.1878  0.0874
30079W        W46263  18.718  12.058   0.634  0.0689 -0.2526 -0.1255
30080W        W46264  13.392  12.423  14.638 -0.0081 -0.0753  0.0811
30081W        W46265  15.942   8.363   3.722  0.3513 -0.2592 -0.3028
30082W        W46266  14.948   3.821   0.539  0.1027  0.1412  0.1326
30083W        W46267  15.400   2.716  13.041 -0.1703 -0.0547 -0.1189
30084W        W46268   9.787   7.721   2.922  0.0683  0.2076 -0.1092
30085W        W46269  15.616  16.081  11.055 -0.1250  0.0527 -0.0714
30086W        W46270  16.483  14.950  12.873 -0.1379  0.1273 -0.2367
30087W        W46271   4.777   1.013   1.062 -0.0533 -0.2207 -0.0842
30088W        W46272  14.270  10.770  13.537  0.3692 -0.0295  0.0692
30089W        W46273   7.109  18.028  11.499  0.1702  0.0914  0.0282
30090W        W46274  16.452  12.846   0.593 -0.0049  0.1202  0.2465
30091W        W46275  11.083  13.977   2.985 -0.1844 -0.0036 -0.2663
30092W        W46276   1.343   5.397  10.936 -0.0295  0.2061 -0.2678
30093W        W46277   0.658  13.876   2.388  0.1377 -0.1415 -0.0422
30094W        W46278   3.319   9.851  11.090  0.5636 -0.1641 -0.0299
30095W        W46279   5.513  16.269   2.345  0.1604 -0.1478  0.1481
30096W        W46280   1.854   3.509   0.670  0.0566  0.1505  0.0761
30097W        W46281  11.823  16.046   3.245  0.0643  0.1358 -0.2471
30098W        W46282  18.328  15.304  11.977  0.0181 -0.1595 -0.0350
30099W        W46283   6.502  17.681  14.384 -0.1932  0.4424 -0.1606
30100W        W46284  10.348  11.087  14.348 -0.0241 -0.2171  0.3576
30101W        W46285   4.801   9.332   3.205 -0.1296  0.0604  0.0982
30102W        W46286   4.026   0.183   4.868  0.1683  0.1695  0.1024
30103W        W46287  14.586   6.731  11.860 -0.0429 -0.1659 -0.1062
30104W        W46288  14.106  10.295   2.840  0.0231  0.0360  0.0397
30105W        W46289   0.427   7.169   9.361 -0.0781  0.1444  0.1043
30106W        W46290   4.217   9.743   0.900 -0.1136  0.3842 -0.1001
30107W        W46291  14.388   0.833  13.838 -0.2615 -0.0090 -0.4852
30108W        W46292  18.686  13.353  14.055  0.3252  0.3004  0.0275
30109W        W46293   2.016   3.630  12.873  0.0153 -0.1794 -0.1919
30110W        W46294   1.434  16.022  14.035 -0.0931 -0.0307 -0.0877
30111W        W46295   7.987   3.058  10.475  0.0735 -0.0041  0.2333
30112W        W46296   9.705  12.965   1.604 -0.0646 -0.1826 -0.2143
30113W        W46297  10.491   6.909   1.828  0.0441 -0.1198  0.2824
30114W        W46298   0.970  18.435   4.023 -0.1248  0.0598 -0.0900
30115W        W46299   4.169   9.391   0.035 -0.1035  0.2101  0.1534
30116W        W46300  15.272   8.408   1.472 -0.2646 -0.5167  0.0090
30117W        W46301  14.054   5.565   2.092  0.0706 -0.0827 -0.0352
30118W        W46302   8.453   1.084   0.488 -0.0687 -0.1853  0.2212
30119W        W46303   3.209  10.582   3.869 -0.0582  0.0803  0.1053
30120W        W46304   8.909  14.375   5.350 -0.3854  0.1758 -0.1825
30121W        W46305   3.167   8.588   5.311  0.0404 -0.1201  0.2150
30122W        W46306  11.414  14.314  14.018 -0.1221 -0.1092  0.0459
30123W        W46307   0.444   9.241  11.902 -0.4610 -0.2763 -0.1962
30124W        W46308   2.607   9.231  13.575  0.0536 -0.1882  0.0228
30125W        W46309  12.247   7.160  12.906 -0.0845  0.0399  0.2364
30126W        W46310   2.996  10.798   3.137  0.2996 -0.0372  0.0444
30127W        W46311  18.553  16.798  13.581 -0.0105 -0.1419 -0.3499
30128W        W46312   5.066  12.100  12.392 -0.0559  0.0480 -0.2628
30129W        W46313  10.570   7.326   2.119  0.1415  0.1247 -0.0937
30130W        W46314   6.491  10.611   3.749 -0.2834  0.1187  0.0718
30131W        W46315   0.705   7.873  12.193 -0.1564 -0.2519 -0.1657
30132W        W46316   5.135   9.245  14.773 -0.0049  0.2437 -0.1029
30133W        W46317   1.392   2.166   0.189  0.0250 -0.2226 -0.1691
30134W        W46318  18.690  16.236   4.637  0.3667  0.1301 -0.2217
30135W        W46319  14.775  12.356  12.987 -0.2507 -0.1118  0.2564
30136W        W46320   2.496   8.977  10.403  0.0247  0.1505 -0.1318
30137W        W46321   9.422  16.232   1.164 -0.1200 -0.3115 -0.1883
30138W        W46322  12.255  19.333   3.530 -0.1837  0.1175  0.0387
30139W        W46323   8.342   7.127  12.234 -0.3907 -0.1150  0.0981
30140W        W46324  16.918  15.283  12.771 -0.1812  0.1278 -0.0965
30141W        W46325   8.872   6.224   2.681  0.0045  0.1613 -0.0311
30142W        W46326   4.720   3.955   0.845  0.1087 -0.1195  0.0719
30143W        W46327   5.196   1.716   1.070 -0.1969 -0.1247  0.0188
30144W        W46328   2.590  14.415  12.388 -0.1588  0.0574 -0.1953
30145W        W46329   7.609  13.243  10.850 -0.2335 -0.1045 -0.1927
30146W        W46330   8.499  15.082   1.507  0.0946 -0.2626 -0.0526
30147W        W46331  14.357   6.898   0.163  0.1107 -0.1352 -0.5427
30148W        W46332   6.396   9.755  14.247  0.0803  0.3155  0.0928
30149W        W46333   6.575  16.413  14.561 -0.2418 -0.0629  0.2058
30150W        W46334  11.211  16.568  12.264 -0.1814  0.0529 -0.1727
30151W        W46335   8.945   0.490   1.298  0.0854  0.2932  0.0494
30152W        W46336  15.917  16.616   1.996 -0.1247 -0.0866 -0.0236
30153W        W46337  11.995  16.277  10.202  0.0842 -0.2874 -0.0073
30154W        W46338   2.739   6.355  12.844  0.1263 -0.2452  0.2136
30155W        W46339   0.161  15.089  10.891  0.0957 -0.0387 -0.1050
30156W        W46340  13.275   6.961  12.374 -0.4199  0.1926  0.1924
30157W        W46341   6.861   4.285   9.801 -0.2944 -0.2060 -0.0301
30158W        W46342   0.897  11.633   0.188 -0.1901  0.0706 -0.1497
30159W        W46343  17.031   3.177  14.015 -0.1375 -0.2555  0.2165
30160W        W46344   3.554  12.360  10.099  0.1290 -0.3039  0.1858
30161W        W46345  10.113  14.203   4.552  0.1677  0.0273  0.3033
30162W        W46346   4.318  16.260  12.671 -0.0278 -0.0700 -0.0901
30163W        W46347  11.342  12.470  13.028  0.2439 -0.2050 -0.0534
30164W        W46348  11.835   5.326   4.232  0.4174 -0.1182  0.2726
30165W        W46349   3.319   5.011   0.235  0.0057 -0.1091  0.0382
30166W        W46350   9.143   5.202   3.927  0.1707 -0.2015 -0.1561
30167W        W46351  18.903  17.341   2.892  0.1308 -0.0789 -0.2405
30168W        W46352   6.728  14.894  14.870  0.4106 -0.2068  0.1559
30169W        W46353   3.349   5.647   4.880 -0.0541  0.0259 -0.1314
30170W        W46354   1.951  15.183   1.220  0.1214 -0.5139 -0.2253
30171W        W46355   4.404   3.330  14.036 -0.5203 -0.0812 -0.2526
30172W        W46356  13.616   5.084   3.818 -0.3171 -0.0200 -0.5685
30173W        W46357   8.679  17.505  12.067 -0.1942 -0.3016  0.0758
30174W        W46358   6.734   9.929  13.127  0.2915  0.0025 -0.0557
30175W        W46359   7.788  10.689  14.269 -0.2169  0.1495 -0.2019
30176W        W46360  17.778   9.205  11.118 -0.1007 -0.0331  0.0956
30177W        W46361  11.104  15.902  10.292  0.1874 -0.2127  0.0853
30178W        W46362   4.978   2.116   3.876 -0.2147 -0.0094  0.0557
30179W        W46363   3.285   8.262  10.596 -0.0280 -0.1448  0.0624
30180W        W46364  10.347   6.629   9.650  0.0514 -0.1080 -0.0417
30181W        W46365   3.414  16.730  10.606 -0.1392  0.0855  0.2920
30182W        W46366  11.127  18.045  14.597  0.0472  0.0368  0.0953
30183W        W46367  15.683   9.597   3.876  0.3214  0.0650  0.1905
30184W        W46368   8.938   4.771  14.244  0.3061  0.1870 -0.2063
30185W        W46369  19.206   6.827   0.213  0.0814  0.0474 -0.1389
30186W        W46370  10.115  11.024  13.196  0.0054 -0.0550  0.3042
30187W        W46371  16.275   0.531   2.109  0.0631  0.0884 -0.0801
30188W        W46372  10.070   4.658   4.555  0.0086  0.0321 -0.0713
30189W        W46373   0.530   6.827  12.503 -0.0151  0.0655  0.1195
30190W        W46374   7.854  18.227   0.051 -0.2954  0.1889  0.1679
30191W        W46375  18.970  16.113   3.008  0.1790 -0.0199  0.0850
30192W        W46376  13.597  10.761   0.523 -0.0028 -0.3223 -0.0452
30193W        W46377   3.760  12.812   4.447  0.0465 -0.0740 -0.2343
30194W        W46378  13.897   7.245  14.543 -0.1913 -0.3245  0.0799
30195W        W46379  11.994   6.544   0.202 -0.2553  0.0226 -0.0111
30196W        W46380  12.685   3.747   3.911  0.2601 -0.1252  0.0992
30197W        W46381  18.069   4.679  10.951 -0.2878 -0.3432  0.1052
30198W        W46382   7.894  12.741  11.106  0.0393  0.1461  0.1443
30199W        W46383  16.780  18.059  14.553  0.1146  0.0478  0.1623
30200W        W46384   5.833   9.658   1.234  0.1803 -0.2703 -0.2778
30201W        W46385   2.594  10.633   3.714 -0.0861 -0.2200 -0.0322
30202W        W46386  15.564   1.570   0.715 -0.0300  0.1228 -0.0279
30203W        W46387  19.342  14.308   2.564 -0.2320 -0.0398 -0.2582
30204W        W46388   9.592   6.139   3.224  0.0228 -0.0948  0.0394
30205W        W46389  15.102  14.569   0.201 -0.3223  0.0653 -0.4401
30206W        W46390  18.469  11.497   5.529 -0.0548 -0.1131  0.2553
30207W        W46391   9.545  17.080   2.338 -0.0770 -0.1880  0.2714
30208W        W46392  10.152  17.107   2.538 -0.0248  0.0551 -0.1257
30209W        W46393   3.289   7.966   2.567 -0.2351  0.0029  0.0178
30210W        W46394  11.744   0.196  11.306 -0.2548 -0.0128  0.2557
30211W        W46395   3.416   7.894   1.787  0.1768  0.3633 -0.2397
30212W        W46396   1.610   0.735  12.938 -0.3824 -0.3329  0.0666
30213W        W46397   7.593  12.730  13.020  0.0617  0.1147 -0.2597
30214W        W46398   3.694   7.237   1.037 -0.1940 -0.2276 -0.1988
30215W        W46399   0.989  11.051   1.180  0.1341 -0.0868 -0.0406
30216W        W46400  11.487  15.448  13.476  0.1424 -0.3420 -0.1826
30217W        W46401  15.984  14.567   4.168  0.0208 -0.2657  0.0019
30218W        W46402  15.077  19.079   4.718 -0.2031 -0.0820 -0.1473
30219W        W46403   7.005   8.701   0.822 -0.0376  0.1200  0.0989
30220W        W46404  13.051   8.969   1.274  0.3011 -0.1614 -0.2685
30221W        W46405  14.881  16.460  11.188  0.1381 -0.0188 -0.2442
30222W        W46406   9.843  18.046  11.413 -0.1376  0.2195  0.1356
30223W        W46407   3.598  12.795  13.994  0.0499 -0.1054  0.1236
30224W        W46408  17.275  13.409   3.315  0.2166 -0.1228 -0.1733
30225W        W46409  13.199  18.304   1.483 -0.0309  0.0466 -0.0488
30226W        W46410  18.059  12.134  11.516  0.0594 -0.0311  0.1777
30227W        W46411   7.876  17.396  13.545 -0.1206  0.0923 -0.2811
30228W        W46412   9.673  15.585  14.968 -0.3030 -0.0664 -0.0231
30229W        W46413  16.224   7.413  12.676  0.0714  0.0510 -0.0927
30230W        W46414  10.016   2.115   2.475 -0.1456 -0.0420  0.1840
30231W        W46415  16.284   5.787   1.665 -0.0964  0.1328 -0.3269
30232W        W46416  16.729   9.707  13.304 -0.0967 -0.2327 -0.2556
30233W        W46417   2.104  18.467  10.680 -0.0237  0.2403  0.0250
30234W        W46418   7.381  17.266   2.090  0.1566 -0.2256 -0.2433
30235W        W46419   2.836  10.564   2.050  0.1768  0.1037 -0.1892
30236W        W46420   8.373  11.359   0.717 -0.1351  0.1384 -0.0442
30237W        W46421  15.716  15.275  13.190 -0.1386 -0.1247  0.0609
30238W        W46422   8.012  14.467  10.514 -0.1441  0.4193 -0.1689
30239W        W46423   6.818   3.927   4.235  0.2374  0.3050 -0.0297
30240W        W46424  16.924  10.932  13.522  0.3446  0.0949 -0.2165
30241W        W46425   5.462  12.233   3.508 -0.3683 -0.0668 -0.0123
30242W        W46426   8.180  10.431   5.350 -0.1174 -0.2907  0.3102
30243W        W46427  17.670  10.451  11.077 -0.2024  0.1324  0.0224
30244W        W46428   7.783   7.534   2.455  0.2389  0.0368  0.1340
30245W        W46429  18.795  18.574   1.096 -0.0635  0.0729  0.0946
30246W        W46430   1.804  17.596   4.644  0.0072 -0.2467  0.0752
30247W        W46431   7.553  17.063  11.340  0.1257 -0.1783 -0.0606
30248W        W46432   2.702  12.217  12.816  0.0441 -0.1790  0.0505
30249W        W46433  10.024   1.573  12.260  0.0885  0.0685 -0.2110
30250W        W46434  12.277   5.504   3.288 -0.3234 -0.2537 -0.1271
30251W        W46435   0.885   6.029  12.421  0.1925  0.0448  0.4780
30252W        W46436  17.807  12.129   4.526 -0.1772  0.0714  0.2150
30253W        W46437   8.488   8.713  13.876  0.0778  0.1056  0.1607
30254W        W46438   4.090  10.262   0.255 -0.0192  0.1346 -0.1012
30255W        W46439   9.613   5.167  13.867 -0.3900 -0.0638 -0.2201
30256W        W46440  12.563  12.359  10.431  0.1845 -0.0585  0.0857
30257W        W46441   8.133   7.456   1.315 -0.0286  0.3949  0.0157
30258W        W46442  13.716  18.163   5.752  0.1031 -0.0506 -0.0896
30259W        W46443   9.472   4.105  14.902  0.2165  0.3624  0.3186
30260W        W46444   5.069  18.417   5.682  0.2966  0.2492 -0.1014
30261W        W46445   3.030  12.450  14.674  0.1335  0.1381 -0.1072
30262W        W46446   7.924  15.844   2.930 -0.1068 -0.0660 -0.0471
30263W        W46447   5.072   6.455  10.351 -0.2309 -0.1189  0.2881
30264W        W46448   5.022  19.124   4.432  0.2920 -0.0797  0.0211
30265W        W46449   4.426  13.070   0.985  0.0989 -0.1577  0.1938
30266W        W46450   6.445   7.614   2.440  0.1270 -0.1222 -0.0975
30267W        W46451  18.745  17.271  13.402 -0.2104  0.4284 -0.0249
30268W        W46452   4.255  13.563   4.308 -0.0690 -0.2241  0.1929
30269W        W46453  10.607  15.516   1.527 -0.1031  0.2752 -0.3881
30270W        W46454   1.805   1.781  13.976 -0.1642 -0.0455 -0.2273
30271W        W46455  13.306   5.188   4.656  0.0221 -0.0164 -0.0731
30272W        W46456  17.459   8.001   2.312 -0.2355 -0.0495  0.2671
30273W        W46457   4.262  11.255   2.584 -0.4882 -0.4031  0.2931
30274W        W46458   4.612  14.198   2.639 -0.0612  0.0041  0.1999
30275W        W46459  18.676  13.013   2.350  0.0666  0.2607 -0.2143
30276W        W46460  11.409   7.752   0.696  0.3550 -0.0969  0.3138
30277W        W46461   4.658   2.874  13.323  0.1100  0.0503 -0.2045
30278W        W46462  17.488  18.111   4.692 -0.1539 -0.1445 -0.1109
30279W        W46463  18.764   1.029   5.155 -0.2721 -0.2879 -0.0529
30280W        W46464  16.599   5.484   4.359  0.0905  0.0880 -0.1594
30281W        W46465  17.179   7.898   1.809 -0.0822  0.0374 -0.0974
30282W        W46466   9.787  18.615   3.133 -0.0155 -0.1210  0.1440
30283W        W46467   4.305   9.100   5.104 -0.0303 -0.0838  0.0237
30284W        W46468   2.545   3.319  12.098 -0.2701  0.6013 -0.4038
30285W        W46469  13.608   8.081  14.867  0.1445  0.3933  0.1573
30286W        W46470   8.739  15.181  12.198  0.1478  0.3710 -0.0829
30287W        W46471  18.038  12.092  12.591 -0.1790 -0.0677  0.3215
30288W        W46472  10.691  19.281  13.291  0.1849  0.0440  0.2575
30289W        W46473  10.203   4.658  13.903  0.0420 -0.1211 -0.1686
30290W        W46474   3.200   0.266  13.886 -0.0029 -0.1382 -0.2991
30291W        W46475  10.481   6.878  11.642  0.1003  0.2620  0.0601
30292W        W46476  16.287   3.702   1.110  0.1912  0.1991  0.1642
30293W        W46477  12.571  14.611  13.994 -0.0898  0.1542 -0.1859
30294W        W46478  15.201  17.456   4.140  0.0627  0.0054 -0.1281
30295W        W46479  13.426  16.731   0.908  0.0743  0.0095 -0.0018
30296W        W46480  18.890   0.046  14.178 -0.1909 -0.1056  0.2256
30297W        W46481   2.380   5.294   0.120 -0.1710  0.0240  0.1219
30298W        W46482   3.894   4.160   5.702  0.0176 -0.2312 -0.0390
30299W        W46483  13.753  14.503  12.131 -0.3529 -0.1613  0.1493
30300W        W46484   4.128  10.208   2.283 -0.1729  0.0398  0.2264
30301W        W46485   7.987   7.600   0.198  0.1425 -0.0655  0.2614
30302W        W46486  14.043  19.072   0.497  0.1765 -0.2293  0.1900
30303W        W46487   7.928  14.828   1.907 -0.0488 -0.0100 -0.3040
30304W        W46488  15.668  18.777   2.559 -0.0666  0.0883 -0.0711
30305W        W46489  16.373   6.919  10.310  0.0449  0.1504  0.1069
30306W        W46490   9.428   0.431   1.418  0.1467 -0.0024  0.0266
30307W        W46491   7.202  11.199   9.579  0.1596  0.0034  0.0316
30308W        W46492  15.961  18.971   0.851 -0.2281  0.0143 -0.2152
30309W        W46493  11.612  15.878  13.840  0.0567  0.0239  0.1393
30310W        W46494  15.035   3.082  12.024  0.0336 -0.2206  0.3177
30311W        W46495   1.971   9.029   3.921  0.3147 -0.3330  0.1288
30312W        W46496   0.865   3.887   4.343  0.2151  0.1512 -0.0064
30313W        W46497  15.644  10.876  12.268 -0.2158  0.0546  0.0086
30314W        W46498   3.044  15.573   3.584 -0.2381 -0.1206 -0.3126
30315W        W46499  12.997   4.971  12.823  0.0790  0.1014  0.0967
30316W        W46500  15.976  18.154   0.110 -0.1691  0.1462  0.4666
30317W        W46501   3.636   4.358   5.255 -0.1287 -0.0781 -0.0593
30318W        W46502  12.574   5.966  14.480  0.1862  0.3631 -0.0607
30319W        W46503  11.744   1.530   4.217  0.1875  0.1758  0.5994
30320W        W46504  16.024  11.489   2.344 -0.5288 -0.1184 -0.0205
30321W        W46505   3.999  19.247  13.584  0.5326  0.1775  0.0693
30322W        W46506   2.825   5.751   0.638  0.0078 -0.0237  0.0858
30323W        W46507  17.895   1.132  12.039 -0.1816 -0.2195 -0.1532
30324W        W46508  13.054  19.260   4.196 -0.3014  0.0041  0.2532
30325W        W46509  16.773   4.436   2.426  0.0152  0.0767 -0.0846
30326W        W46510   3.304   6.799   4.100 -0.2896  0.3533  0.1571
30327W        W46511   8.877   6.879  14.159  0.0186  0.1530 -0.2377
30328W        W46512   9.298  17.810   1.637  0.0639  0.1144 -0.1902
30329W        W46513   5.611  13.594   3.203  0.3753  0.2381 -0.3325
30330W        W46514  13.107  11.992   1.948 -0.3047 -0.0095  0.0496
30331W        W46515  10.294   4.702  10.954  0.0913 -0.0536  0.1963
30332W        W46516  18.312   4.740   2.585  0.1133  0.1378  0.3089
30333W        W46517   4.828   5.396  14.159 -0.0920 -0.0653 -0.2200
30334W        W46518   8.482  12.556   4.052 -0.3967  0.2299 -0.2206
30335W        W46519  16.480   9.041  10.773 -0.1341  0.0190  0.1277
30336W        W46520   7.889   1.499  14.048 -0.1071 -0.1711 -0.0952
30337W        W46521   4.587  13.319  11.114  0.0379  0.2268  0.0834
30338W        W46522  11.639  14.633   3.235 -0.1119  0.1885  0.1324
30339W        W46523   4.455  13.681  12.547  0.1241 -0.2774 -0.0053
30340W        W46524  17.198   0.354  14.246  0.1435 -0.1732 -0.2175
30341W        W46525  17.993  19.146   5.013 -0.1030 -0.1429 -0.1836
30342W        W46526  16.785  13.727  11.083 -0.1125 -0.2461  0.1644
30343W        W46527  11.992   5.367  11.544  0.1797  0.2233 -0.1770
30344W        W46528  10.104   7.814   0.954  0.0797  0.0416 -0.2681
30345W        W46529  16.315   4.369   2.304 -0.0239  0.3558  0.3482
30346W        W46530   3.433   9.666   4.121  0.1551  0.0839 -0.0026
30347W        W46531   1.072   8.777  13.209 -0.1635 -0.2336  0.0004
30348W        W46532   2.813  10.584  12.517  0.1747  0.1574  0.0139
30349W        W46533   2.929  16.837   2.015  0.1199  0.1475 -0.0489
30350W        W46534   6.063  12.111   4.487  0.1380  0.0071  0.1409
30351W        W46535   1.134   8.503  14.667 -0.2368  0.6367 -0.3111
30352W        W46536   4.330   3.223   3.701  0.1312 -0.0930 -0.2642
30353W        W46537  15.050   8.063  14.558 -0.2651  0.0054 -0.0829
30354W        W46538   4.788   8.145  11.038  0.0329 -0.1969 -0.1515
30355W        W46539  15.559   3.087   0.148  0.2102  0.0128 -0.1717
30356W        W46540  12.027   9.173   4.648 -0.1095 -0.0066  0.1317
30357W        W46541  16.034  18.822   1.791 -0.0335 -0.3867  0.1074
30358W        W46542   3.636  14.758  14.692  0.4631  0.1614  0.3698
30359W        W46543  11.039  11.706   4.994 -0.1504 -0.0436  0.4454
30360W        W46544   6.222  15.211  11.788 -0.2299 -0.1468  0.2173
30361W        W46545   7.915  18.316   0.976 -0.0758  0.0398  0.3690
30362W        W46546  13.871   2.166   9.208  0.0074  0.2780 -0.1497
30363W        W46547   2.924   7.739   8.995 -0.1972  0.1031  0.1095
30364W        W46548   3.918   7.491  14.884  0.0831 -0.1594  0.0653
30365W        W46549  12.458  18.838   1.293  0.1850  0.0989  0.1428
30366W        W46550   4.556   7.551  10.080 -0.0620 -0.0696 -0.1105
30367W        W46551   5.875  15.848   1.561 -0.0713  0.0802  0.1771
30368W        W46552   8.793   2.476  14.892  0.1652 -0.0735  0.0316
30369W        W46553   3.441   6.457   2.753  0.0519  0.1060  0.0107
30370W        W46554  17.163   6.082  12.684  0.0149 -0.0857  0.0102
30371W        W46555  12.111  14.376   2.002  0.0655 -0.2707  0.1727
30372W        W46556  12.333   5.024   2.111 -0.0828 -0.0809  0.1171
30373W        W46557  11.201  13.318  14.267 -0.0896 -0.0233 -0.2641
30374W        W46558  12.783   4.444   2.926  0.1273 -0.0015 -0.0845
30375W        W46559   0.711   3.640   3.040 -0.0136 -0.0362  0.0847
30376W        W46560   7.956   5.375  12.254 -0.0270 -0.0773  0.1827
30377W        W46561   4.947  16.624   2.913  0.3060  0.0033  0.0041
30378W        W46562  18.905   4.437  11.128  0.0564 -0.1472 -0.0826
30379W        W46563   9.493   5.371   0.971  0.1415 -0.1566  0.2604
30380W        W46564  15.679  12.675  13.771 -0.1521 -0.3385  0.2024
30381W        W46565   5.756  17.728  14.830 -0.0446  0.3363 -0.0620
30382W        W46566   7.413  13.116   0.668  0.1041 -0.2745  0.0369
30383W        W46567   1.080   9.816   1.185 -0.0999 -0.1141 -0.1389
30384W        W46568   4.040   9.885   4.750 -0.1722 -0.1873 -0.0116
30385W        W46569   4.601   5.616  11.273  0.2055  0.0840  0.0835
30386W        W46570   9.181  19.384   0.935 -0.0319  0.0006 -0.0917
30387W        W46571   4.685  17.322  12.332 -0.1315 -0.1981 -0.3680
30388W        W46572  14.354   5.802   4.650 -0.0319  0.3509  0.0677
30389W        W46573  10.743   2.684   1.776 -0.3703 -0.0686  0.1293
30390W        W46574   5.848   6.205  10.079 -0.2125 -0.1989  0.1030
30391W        W46575  16.491  15.510   4.033  0.3465 -0.4793  0.0203
30392W        W46576   6.557  10.562   4.337 -0.0647 -0.0831  0.1415
30393W        W46577   6.781   7.132  14.280 -0.1167 -0.3121  0.0666
30394W        W46578   4.013  12.871   4.986 -0.0254  0.0963  0.0997
30395W        W46579   2.563  17.566  10.847  0.4188  0.4000 -0.1174
30396W        W46580   7.634   2.004   4.863 -0.1400  0.0958  0.0782
30397W        W46581   7.356  13.646  14.268  0.1570  0.0420  0.0972
30398W        W46582  18.803   9.262   3.100  0.1723  0.1145 -0.0348
30399W        W46583   1.385   3.897  12.389  0.1938  0.0552 -0.0560
30400W        W46584  11.039  13.455   3.578 -0.0344  0.0757  0.1264
30401W        W46585  16.976   3.674  14.456 -0.0685 -0.4056 -0.0500
30402W        W46586  16.731   5.272   2.901 -0.0276 -0.1162  0.2720
30403W        W46587  16.526   2.674  14.020 -0.2106 -0.1143 -0.0073
30404W        W46588  10.315  19.296   3.739 -0.1818 -0.0666  0.3205
30405W        W46589  13.985   4.928   9.357  0.1101 -0.3086 -0.1701
30406W        W46590  15.010   0.549   3.807  0.2125 -0.0607  0.2209
30407W        W46591   3.042   3.996  13.682 -0.0604 -0.1075  0.0052
30408W        W46592   4.098  15.190  12.247  0.1557 -0.1678 -0.0921
30409W        W46593   1.689   8.704   0.007 -0.0344 -0.2710  0.1614
30410W        W46594  12.733   8.375   0.327 -0.1526  0.0399 -0.2992
30411W        W46595  18.025   5.045  11.534 -0.4393  0.0774  0.1886
30412W        W46596  19.366   2.353  10.308  0.2157 -0.3641  0.2402
30413W        W46597   6.462  11.083   1.627 -0.5783  0.2175  0.0002
30414W        W46598   6.902   3.181  11.877 -0.1163  0.0746 -0.0384
30415W        W46599  16.091  17.124  14.628 -0.3102  0.1545 -0.1603
30416W        W46600   6.862  16.207  14.218 -0.1426  0.0154 -0.1130
30417W        W46601   2.171   5.180   0.576  0.1871  0.0403 -0.0226
30418W        W46602   6.189   9.359  13.955  0.0384  0.1207  0.0454
30419W        W46603   0.478  15.796   3.874  0.1475  0.2448 -0.2533
30420W        W46604   1.450  15.203  10.698 -0.1540 -0.0482  0.2049
30421W        W46605   9.812  13.233  14.553  0.2000  0.0851 -0.1679
30422W        W46606   6.231   5.888   2.049 -0.3262  0.0530  0.1489
30423W        W46607   3.079  19.268  12.265  0.1262  0.0824  0.1554
30424W        W46608  15.942  12.884  14.654  0.0108 -0.3598  0.0159
30425W        W46609   1.878  15.723  14.161 -0.2514  0.0274 -0.0316
30426W        W46610   8.377   3.562  12.882  0.2197  0.0171 -0.1487
30427W        W46611   6.913  16.866  12.782 -0.4862 -0.0948 -0.0065
30428W        W46612  13.020  14.982  12.247 -0.0288  0.1422  0.0048
30429W        W46613   5.976  15.634  11.586 -0.1222  0.2322  0.2717
30430W        W46614   0.378  11.296   1.377 -0.2390 -0.0602  0.1426
30431W        W46615  15.217  14.949   0.767  0.0231 -0.1742  0.0493
30432W        W46616  13.593   4.794   9.040 -0.1322 -0.1824 -0.1527
30433W        W46617  15.998  16.169  11.395  0.0228 -0.2101  0.0216
30434W        W46618  12.518  17.209   2.386 -0.1014 -0.1953 -0.1759
30435W        W46619   4.119  10.975   4.838  0.2646 -0.1572 -0.0281
30436W        W46620   6.612   6.428  10.892  0.2217 -0.2472 -0.0635
30437W        W46621  19.267  12.788   0.090  0.0628  0.0530 -0.0137
30438W        W46622   1.494   9.103   1.577 -0.0080  0.0443 -0.2259
30439W        W46623  13.630  12.809   2.902  0.0459 -0.3559 -0.1502
30440W        W46624   5.219  13.413   2.921 -0.4880 -0.2960 -0.1309
30441W        W46625  12.197   3.608   3.577  0.2378  0.3515  0.2166
30442W        W46626  15.226  16.615  14.518  0.2788  0.0980  0.2138
30443W        W46627   0.042   5.098  13.277 -0.2736 -0.2382  0.2363
30444W        W46628   3.883  14.745  10.677 -0.1610 -0.0982  0.2318
30445W        W46629  14.548  12.164   9.739 -0.1598 -0.1745  0.0640
30446W        W46630   2.672   0.281   4.734 -0.1128 -0.1305 -0.2763
30447W        W46631  16.234  17.157  11.753  0.2382 -0.0171 -0.2845
30448W        W46632   1.608  14.981   2.365 -0.4121 -0.2557 -0.2444
30449W        W46633   0.936  14.023   1.034  0.1666  0.1247  0.1463
30450W        W46634  18.657   4.220  11.886 -0.2059 -0.1759  0.2911
30451W        W46635   4.163   7.734   3.542 -0.2830 -0.1229 -0.0740
30452W        W46636   2.262   5.200  10.772 -0.1042 -0.3008  0.0384
30453W        W46637   6.031  14.349  10.613  0.0894 -0.0318 -0.0163
30454W        W46638  14.570  18.639   0.399 -0.2276 -0.4354 -0.1814
30455W        W46639   8.648  13.792  12.547  0.3948 -0.3622 -0.2357
30456W        W46640   7.206   2.695  13.524 -0.1324 -0.1871  0.3551
30457W        W46641   5.437   0.824   3.313 -0.0318 -0.2135  0.2747
30458W        W46642  17.954   6.305   4.358 -0.3124  0.4376 -0.0571
30459W        W46643  18.701   8.351  13.184 -0.4604  0.0987  0.0305
30460W        W46644  13.298  14.618   1.878  0.1726 -0.2352  0.2056
30461W        W46645   8.363  11.559  14.379  0.0146 -0.0159  0.2607
30462W        W46646   6.563   6.862   3.743  0.0753 -0.1210  0.0487
30463W        W46647  12.416  15.276   4.791  0.1242  0.0556 -0.0500
30464W        W46648  12.607   2.682   4.080 -0.0524  0.1338  0.2511
30465W        W46649  15.140  16.824   0.690 -0.0192 -0.1569 -0.2756
30466W        W46650   4.191   6.231  14.208  0.0178  0.1625 -0.1602
30467W        W46651   0.121  12.699  11.345  0.0136 -0.2765  0.2704
30468W        W46652  15.165   4.564   2.299  0.0679 -0.3240 -0.0733
30469W        W46653  17.448  11.143   3.674  0.0957 -0.3986  0.0664
30470W        W46654   2.897   6.718   2.719 -0.1172  0.2173 -0.1996
30471W        W46655   0.828   5.953  11.156  0.0819 -0.1432  0.2754
30472W        W46656  13.828   2.080   2.874 -0.3569 -0.2661 -0.3661
30473W        W46657   7.119  11.256   3.343 -0.1036 -0.0244  0.3247
30474W        W46658   4.930  16.488  13.925 -0.0365  0.0569  0.3461
30475W        W46659   6.188  18.265  14.389  0.2171 -0.1546 -0.1019
30476W        W46660   5.784  14.473  12.424  0.2661  0.1190  0.1203
30477W        W46661  10.447   5.139  12.268 -0.1309  0.1447 -0.0442
30478W        W46662   7.545   3.848   5.371 -0.0507  0.2910 -0.2100
30479W        W46663  12.818  19.074   1.083  0.0769 -0.2828 -0.1527
30480W        W46664  17.898   7.301   0.728  0.0181 -0.1386 -0.3535
30481W        W46665  14.127   3.583   2.828 -0.0491 -0.0271 -0.0579
30482W        W46666  11.999   8.980   0.089  0.3594 -0.1584 -0.1914
30483W        W46667  11.347   2.359   0.126 -0.2078  0.2779 -0.0923
30484W        W46668   6.907  18.231  13.807 -0.0726 -0.5402 -0.0616
30485W        W46669   5.381  14.423   1.215  0.0920  0.1748  0.1635
30486W        W46670  11.705   4.135   2.999 -0.0098 -0.0019 -0.1546
30487W        W46671  19.113   7.126   0.569  0.0615 -0.1141 -0.1669
30488W        W46672  14.962  11.017   0.784 -0.1025 -0.1834 -0.0242
30489W        W46673   3.248   1.851   3.709  0.3052  0.0627 -0.1566
30490W        W46674   5.434   5.883   0.548  0.0935  0.4592 -0.0198
30491W        W46675   2.097  12.240   0.609  0.1041 -0.2461 -0.1194
30492W        W46676  11.252  16.119  12.005  0.1978  0.2796 -0.1857
30493W        W46677  12.967  11.940   2.428  0.2705 -0.0277 -0.2535
30494W        W46678  14.739   4.676  10.888  0.0489  0.1489  0.1216
30495W        W46679  14.753  18.282   3.753 -0.2371  0.2075 -0.1811
30496W        W46680   7.251   8.654  13.606 -0.0449 -0.0142 -0.0976
30497W        W46681  15.775   6.108  13.605  0.2536 -0.2531  0.2640
30498W        W46682   0.828  10.849  10.675  0.0668  0.3868 -0.1064
30499W        W46683   0.942  14.974  10.939  0.1718  0.2087 -0.2643
30500W        W46684   9.762   3.611  12.467 -0.0481  0.1143  0.1827
30501W        W46685  13.746  11.200   1.628 -0.1577  0.0342 -0.0061
30502W        W46686  11.489   0.923  10.317 -0.1204 -0.2042  0.1879
30503W        W46687  18.896  16.348  12.387  0.2017  0.2086 -0.1817
30504W        W46688  18.399   4.649   9.457  0.3008 -0.2900  0.1230
30505W        W46689   1.120  13.536   1.137 -0.0979 -0.0745  0.0826
30506W        W46690  16.019   1.245   2.916 -0.3145 -0.1350  0.0102
30507W        W46691  10.065  18.357   4.516  0.2298  0.2142 -0.1199
30508W        W46692   5.705  11.272   3.427  0.0136 -0.1939 -0.1752
30509W        W46693  17.067   1.586   0.260 -0.3278 -0.0611 -0.0059
30510W        W46694   6.939  17.098  10.595  0.5437  0.3944  0.2640
30511W        W46695   0.935   3.916   3.403  0.0637 -0.2199 -0.2068
30512W        W46696  13.821   3.656   9.789 -0.1576 -0.3748 -0.1564
30513W        W46697   0.170   1.812  13.435  0.0734  0.1846 -0.3685
30514W        W46698   7.954  16.921   1.077  0.1416  0.0565 -0.1629
30515W        W46699  11.532   6.366   0.083 -0.0230  0.0725  0.1676
30516W        W46700  14.874  12.017   0.679 -0.1494  0.1489 -0.0856
30517W        W46701  19.063   1.864   9.581  0.0315 -0.1228  0.2731
30518W        W46702  13.880   9.519   3.818 -0.1061  0.0545  0.1466
30519W        W46703  19.187   0.711   5.101 -0.3175  0.0694 -0.2152
30520W        W46704  19.332   2.098   0.776  0.3133  0.2125  0.1089
30521W        W46705   0.931  15.697  12.721  0.0452  0.2382  0.0398
30522W        W46706   6.091  17.949  13.383 -0.2169  0.0712 -0.0558
30523W        W46707   5.577   5.083  13.504  0.4392 -0.1231  0.1189
30524W        W46708  13.566   5.197   0.555  0.0372  0.0807  0.0615
30525W        W46709   4.051  19.208   5.224 -0.1383  0.0377  0.1949
30526W        W46710  18.965  19.081  13.810  0.4241 -0.0866 -0.2546
30527W        W46711  11.299  12.330   0.737  0.1500  0.0794  0.0161
30528W        W46712   1.216  13.700   3.571  0.1632 -0.3237 -0.2996
30529W        W46713   6.754  15.854  12.321 -0.1311  0.0753  0.2242
30530W        W46714   2.770   6.381  13.866  0.0137 -0.0596  0.1987
30531W        W46715   0.875  15.371   5.100  0.0344 -0.0055 -0.0407
30532W        W46716   0.481  14.864  12.729  0.1530  0.2713  0.0389
30533W        W46717   1.086  17.005  13.069  0.0778  0.0030  0.1558
30534W        W46718   5.054  12.197   5.257  0.0725  0.1542  0.0324
30535W        W46719  12.812  17.288  14.199 -0.3092 -0.0443 -0.5057
30536W        W46720   4.495  13.633   9.973 -0.2119  0.1576  0.1028
30537W        W46721   2.574   5.114   0.996 -0.2773  0.0047 -0.2716
30538W        W46722   1.147  11.775  11.880  0.2043  0.2239 -0.2409
30539W        W46723  14.585  12.762  14.015  0.0699 -0.2700  0.1196
30540W        W46724   6.911   1.319   3.235 -0.1063  0.1741 -0.0748
30541W        W46725  13.998  14.571   0.078  0.0403 -0.0523 -0.0590
30542W        W46726  17.191   7.123  11.782  0.2298  0.3478  0.3093
30543W        W46727  17.532  13.814   0.221  0.1455  0.0589 -0.3084
30544W        W46728   0.207   3.083   1.033 -0.0738  0.0614  0.1888
30545W        W46729   6.718  11.047   3.520  0.0446  0.2929  0.0834
30546W        W46730   3.627  10.351   1.640 -0.1218  0.4350  0.0935
30547W        W46731   5.174   8.350   4.226  0.0798 -0.0662  0.2174
30548W        W46732   0.118   6.829  14.294  0.4160  0.0689 -0.0202
30549W        W46733  11.006  17.183   0.110 -0.0882  0.2584  0.4357
30550W        W46734  18.621  13.214   4.446 -0.1705 -0.0517  0.1228
30551W        W46735   4.342   6.807   3.068 -0.1765  0.1983  0.1770
30552W        W46736   0.540  12.943   5.653  0.2308 -0.1134 -0.2843
30553W        W46737   2.819  12.080  10.362 -0.1544  0.3215 -0.2005
30554W        W46738   3.346  17.806   3.003  0.0641  0.2815 -0.0143
30555W        W46739  13.898   5.918  14.039  0.2726  0.0534  0.0744
30556W        W46740   4.972  15.836   4.293  0.2499 -0.3053 -0.1025
30557W        W46741   2.865   4.497  10.906  0.1595 -0.0087 -0.2103
30558W        W46742   5.412   9.160   0.667 -0.0554  0.3970  0.0981
30559W        W46743  10.871   6.148  10.755 -0.0673 -0.0946 -0.1623
30560W        W46744   5.612  18.038   1.172 -0.0527  0.0635  0.1528
30561W        W46745  15.112  18.332   1.565  0.1792 -0.4841 -0.0225
30562W        W46746   7.000   1.521  13.432 -0.0069  0.0961 -0.4992
30563W        W46747  13.288   1.685  11.228 -0.1950 -0.2866 -0.0256
30564W        W46748  17.137   8.356  10.707 -0.0414 -0.0072  0.2198
30565W        W46749   9.311  12.682   5.849 -0.1661  0.1902  0.0630
30566W        W46750   3.580  19.187  12.050  0.0782 -0.0567  0.3811
30567W        W46751   1.404   0.660   2.802  0.0224  0.0031  0.2853
30568W        W46752   4.128   3.371   5.106  0.0411 -0.1245  0.0054
30569W        W46753   8.546  15.169  14.488 -0.1282  0.0468 -0.0456
30570W        W46754   1.099   3.374   4.281  0.0976 -0.0037  0.1267
30571W        W46755   5.688   9.583  12.194  0.1887  0.3384 -0.3188
30572W        W46756  16.918  17.918  10.711 -0.1771 -0.0960 -0.0931
30573W        W46757   7.714   4.437   4.236  0.0178  0.0614  0.0173
30574W        W46758   1.651   1.493  10.943 -0.0929 -0.1294  0.4382
30575W        W46759   9.973   5.670   1.790 -0.0345  0.3439 -0.3592
30576W        W46760   2.739  14.970  10.373 -0.4159 -0.1442 -0.1249
30577W        W46761  11.954  19.010  12.093  0.1701  0.1009  0.0965
30578W        W46762   1.836  18.425   2.455  0.0017 -0.1269  0.0573
30579W        W46763   9.415  16.011   0.347  0.0283  0.0033  0.1545
30580W        W46764  18.074  15.179   0.482  0.0465 -0.1487 -0.0357
30581W        W46765   8.806  12.911  10.780 -0.0416  0.0795  0.3897
30582W        W46766  15.446   1.232   3.720 -0.3552  0.2089  0.3220
30583W        W46767  13.909  12.583  13.355  0.1581 -0.3285 -0.0752
30584W        W46768   1.407  18.580   2.641  0.0330 -0.0788  0.0195
30585W        W46769  10.004  14.953  11.215  0.0580  0.1115  0.0786
30586W        W46770  10.508   7.438   4.859  0.2695 -0.3034  0.0175
30587W        W46771   9.559   0.117  10.531 -0.2608 -0.0045 -0.1120
30588W        W46772   1.151  18.272  10.825  0.1528  0.0915 -0.1343
30589W        W46773   3.811   1.555   2.508  0.3840 -0.3402 -0.0305
30590W        W46774  13.226   7.757   0.013 -0.0020  0.0578  0.0701
30591W        W46775   4.468   4.028  10.187 -0.0455  0.0398  0.0669
30592W        W46776  14.170  11.154   1.820 -0.0907 -0.0293  0.3688
30593W        W46777  13.560   7.553   3.475 -0.2748  0.0837  0.1011
30594W        W46778   0.068  16.401  12.155  0.1789  0.3086 -0.1921
30595W        W46779   6.856   7.777  14.926  0.2936 -0.1978  0.1033
30596W        W46780  15.599  10.651   1.244  0.1659  0.0194 -0.0314
30597W        W46781  12.922   4.740  10.420 -0.2856  0.0537  0.2309
30598W        W46782  19.334   5.464  13.675 -0.1757 -0.1590  0.1579
30599W        W46783  14.806   7.163  10.048 -0.2884 -0.0910 -0.1688
30600W        W46784   1.795   1.800  12.833  0.2435  0.0512 -0.1118
30601W        W46785  19.199  10.178   9.692 -0.1350  0.1194 -0.1358
30602W        W46786  17.152  12.784   9.877 -0.0229 -0.1326  0.1367
30603W        W46787  15.678  15.114   6.314 -0.2500  0.0466 -0.1313
30604W        W46788  13.413  12.279   0.812 -0.0519  0.4072 -0.1951
30605W        W46789  14.413  10.129  10.689 -0.2610  0.1075 -0.1238
30606W        W46790   9.789   4.470   1.895  0.0375 -0.1663  0.3008
30607W        W46791   2.902   7.959   3.272 -0.2675  0.0254  0.0559
30608W        W46792  14.783  16.910  12.070 -0.2692 -0.0183 -0.2928
30609W        W46793  15.220  18.278   4.255  0.0890 -0.1642  0.0004
30610W        W46794   6.604  12.510  10.991 -0.2264 -0.0008  0.1878
30611W        W46795   8.802  11.572   3.130  0.0015 -0.4974 -0.0588
30612W        W46796   8.825   8.036   1.700  0.0985 -0.0928  0.1535
30613W        W46797  12.052  18.791  14.009 -0.0978  0.3802  0.1137
30614W        W46798   7.082  12.117   5.853  0.2117 -0.0745  0.2204
30615W        W46799  13.312  14.479  14.528 -0.2673  0.0297  0.2234
30616W        W46800   1.064  11.509   1.084 -0.2935 -0.0860 -0.1349
30617W        W46801   8.324   8.127   2.949  0.0972  0.0690 -0.0328
30618W        W46802  17.589   2.703  13.169 -0.0703  0.2287 -0.1992
30619W        W46803  17.557  17.808   2.254 -0.0127  0.1223 -0.0553
30620W        W46804   2.840  13.456   4.708 -0.0721  0.0985  0.2297
30621W        W46805   8.960  13.710   2.941  0.0860 -0.2231  0.0802
30622W        W46806   4.752   4.042   2.308  0.3449 -0.0162 -0.2199
30623W        W46807   8.886   2.713  13.035 -0.3549 -0.0840  0.2631
30624W        W46808   2.056  18.879   4.676  0.2721  0.0591 -0.1726
30625W        W46809  16.646  12.599  12.612  0.0352 -0.0220 -0.0443
30626W        W46810   0.071  15.543   1.369  0.1616  0.0635  0.1889
30627W        W46811  11.178  17.316  11.545  0.3518  0.2308 -0.0351
30628W        W46812   9.851  15.555   4.606 -0.1939  0.2710 -0.1640
30629W        W46813   7.104  11.753   3.470  0.0365  0.2587 -0.1207
30630W        W46814  16.848   1.579   3.796  0.0336  0.1491 -0.4848
30631W        W46815  17.359   5.081  10.357 -0.3057 -0.0325  0.2937
30632W        W46816   6.514  14.991  14.147 -0.1690 -0.0104  0.0395
30633W        W46817  14.015   4.480   2.536  0.2018 -0.1930  0.2118
30634W        W46818  11.906   3.044   4.754 -0.0081 -0.1219 -0.1949
30635W        W46819   5.484  14.647   4.437 -0.3877  0.3722 -0.1394
30636W        W46820   6.165   6.255  10.607 -0.3776 -0.0792 -0.0872
30637W        W46821  17.425   3.872  13.568 -0.0113 -0.2293  0.0044
30638W        W46822  16.935   7.222   0.595 -0.3066 -0.1515  0.2978
30639W        W46823  15.313  11.452  12.261 -0.0672  0.1981  0.0985
30640W        W46824   1.694  18.715   4.295 -0.1339  0.0199  0.0803
30641W        W46825   9.706  15.488  10.927  0.0437 -0.0448  0.2347
30642W        W46826   2.966  17.212   4.481  0.1594  0.0172  0.2252
30643W        W46827  14.845   2.875  11.549  0.0632  0.1356  0.3428
30644W        W46828  10.009  13.011  12.463 -0.1905  0.1721  0.0404
30645W        W46829  17.229  12.892  13.841 -0.0988 -0.1101 -0.3571
30646W        W46830   3.293   5.152  11.895  0.0300 -0.0449 -0.0792
30647W        W46831  15.614  10.501  12.713  0.2709  0.0945  0.0696
30648W        W46832  10.787   1.897   4.425  0.0209 -0.0344  0.0730
30649W        W46833  18.354  10.101   0.965  0.0177  0.2561  0.1337
30650W        W46834   7.523   6.820  14.877  0.1032 -0.1928  0.1141
30651W        W46835  11.588   3.751  10.625 -0.0632 -0.0601 -0.7166
30652W        W46836   2.535   5.802  10.234 -0.4545  0.0854  0.1819
30653W        W46837   5.092   1.339   2.547 -0.0165  0.2633  0.1569
30654W        W46838  18.865  10.977  12.878 -0.2588 -0.1780 -0.1234
30655W        W46839  12.891  12.677  13.405 -0.3068  0.1619 -0.2053
30656W        W46840  16.608  15.181   2.676 -0.2038 -0.0736 -0.3334
30657W        W46841  16.778   5.724   4.800 -0.2596  0.1734 -0.1067
30658W        W46842  15.254   9.853   5.145  0.1300 -0.1881 -0.1943
30659W        W46843  17.378  13.887   1.454 -0.2389 -0.2582  0.1693
30660W        W46844   1.453   0.899   2.312 -0.0699 -0.0752 -0.4944
30661W        W46845   1.818   6.654   1.979  0.0996  0.2894  0.0392
30662W        W46846   5.809   3.403   2.943 -0.0464 -0.0709 -0.0189
30663W        W46847  16.201   6.775   1.573 -0.0937 -0.3040 -0.0984
30664W        W46848   8.255   4.627   3.177  0.3182 -0.0883  0.2614
30665W        W46849   9.943   6.718  13.050  0.2296 -0.1628  0.1650
30666W        W46850   6.901   9.134   2.812 -0.1235 -0.0043  0.2381
30667W        W46851  12.648  18.325   5.492 -0.2252 -0.1547 -0.2647
30668W        W46852   7.658  17.298  12.858  0.2672  0.2362 -0.1999
30669W        W46853  17.387  11.355   1.006 -0.0574  0.2048 -0.2097
30670W        W46854  18.996  11.996  13.085 -0.3348 -0.0525 -0.0154
30671W        W46855  17.460   9.498  14.680 -0.2438  0.0901 -0.0718
30672W        W46856   0.309   8.703  10.533 -0.1888  0.1297 -0.4888
30673W        W46857  13.802   5.657   4.599  0.2542 -0.3638 -0.1439
30674W        W46858   1.728   2.572   4.030  0.0523  0.0421 -0.1837
30675W        W46859  19.311   8.323  11.845 -0.2903 -0.1863  0.0776
30676W        W46860   6.130   9.646  11.573 -0.0257  0.3585  0.2827
30677W        W46861  11.292  10.823   4.990 -0.0503  0.2973  0.0904
30678W        W46862  15.684   0.969   4.071  0.1780 -0.2149 -0.0827
30679W        W46863   9.979  18.842   4.488  0.0863  0.1039 -0.3298
30680W        W46864   8.259   3.880   3.659  0.1639  0.1763  0.0032
30681W        W46865   4.920   7.123   1.329 -0.1946  0.1150 -0.0184
30682W        W46866  13.212   5.317   4.086  0.0308  0.0759  0.3481
30683W        W46867  18.703  18.435  12.633  0.0618 -0.2409  0.3153
30684W        W46868  17.955  18.913  14.670 -0.0086  0.1873 -0.0485
30685W        W46869   1.854   8.088  13.907  0.0190  0.0725  0.3642
30686W        W46870  17.518   0.366  13.122 -0.0363 -0.0698 -0.1999
30687W        W46871  10.733  17.426  14.268 -0.2147 -0.0621 -0.1883
30688W        W46872  15.675  13.442   0.426 -0.1806  0.0749  0.1226
30689W        W46873  16.535  13.991  11.943  0.0590 -0.1095 -0.2442
30690W        W46874   2.316  19.070  14.521  0.0785 -0.1199  0.2546
30691W        W46875  13.076  16.208  10.940 -0.1826  0.1302 -0.0084
30692W        W46876   5.171   0.063   0.309 -0.1699 -0.0917 -0.1349
30693W        W46877  12.876  18.804  10.583 -0.4051 -0.0142 -0.0780
30694W        W46878  18.775   9.375   3.996 -0.1201 -0.0432  0.1841
30695W        W46879   6.931  10.808   0.602  0.0711  0.2164  0.2371
30696W        W46880  15.520  11.700  14.215  0.0982  0.1218 -0.2026
30697W        W46881   5.267   5.887  13.447 -0.0780  0.3014 -0.0607
30698W        W46882  12.583   5.417  12.190 -0.1306  0.0524  0.4835
30699W        W46883  14.429   6.458   2.850  0.0869  0.2590 -0.0149
30700W        W46884   1.203  10.601  10.938  0.0187 -0.1994 -0.1318
30701W        W46885   8.822   3.194   2.972  0.0261 -0.0112 -0.1807
30702W        W46886  18.563   5.683   4.628 -0.1835 -0.2321  0.0860
30703W        W46887  14.423   2.455   2.219 -0.0898  0.0697  0.6310
30704W        W46888   9.243   3.929  12.930  0.1760  0.0666 -0.1822
30705W        W46889   1.518  18.517  13.570  0.2229 -0.0147 -0.0394
30706W        W46890   9.810   8.220   3.013  0.1844  0.2859  0.2865
30707W        W46891   5.356   1.833  13.940  0.1257  0.0857  0.1811
30708W        W46892  14.548  14.707  13.733 -0.0248 -0.1941  0.0300
30709W        W46893   8.130   3.420   9.056 -0.0702  0.0068 -0.1824
30710W        W46894   7.551  12.646   3.946  0.1442  0.0948 -0.0910
30711W        W46895  13.121   6.324  13.196  0.0588  0.1858 -0.1728
30712W        W46896   0.322   9.947   1.773  0.2197 -0.1562 -0.0215
30713W        W46897   7.380   2.628  14.520  0.1258  0.2117  0.1219
30714W        W46898  14.682   3.792  14.975 -0.0425  0.0579  0.0546
30715W        W46899  15.724   8.208  11.663  0.0826  0.2538  0.1328
30716W        W46900  17.845  12.573  14.357 -0.0661  0.0275 -0.1772
30717W        W46901   2.498  16.416  11.533  0.1295 -0.0060 -0.3015
30718W        W46902  15.928   0.551   0.481 -0.1074 -0.2266 -0.1340
30719W        W46903  13.079   4.682   9.928 -0.0248  0.0680 -0.2353
30720W        W46904  19.229  12.109   2.241  0.0340  0.4291 -0.2042
30721W        W46905   9.274   2.120  14.840 -0.2075  0.0824 -0.0327
30722W        W46906  15.434   6.821   4.839 -0.0991 -0.1091  0.2616
30723W        W46907  10.697  15.590   2.473  0.1644 -0.0283 -0.0726
30724W        W46908   1.022   4.966  14.480 -0.3187 -0.1738  0.1393
30725W        W46909   1.058  16.815  14.564  0.0870 -0.3350  0.1160
30726W        W46910  15.339  14.840   5.004  0.1685  0.0881  0.4428
30727W        W46911  15.955  12.334   1.740 -0.0698  0.0037  0.0046
30728W        W46912   1.900   0.142   2.988 -0.1405 -0.1293 -0.3101
30729W        W46913   5.814  15.372  14.139  0.1601  0.1924  0.1267
30730W        W46914  10.940   0.821  13.566 -0.0430 -0.2779  0.1873
30731W        W46915  10.001  19.351   3.232 -0.3817 -0.1424 -0.5892
30732W        W46916  19.071  17.547  12.507  0.0115 -0.2029 -0.5445
30733W        W46917   4.873   7.725  10.512  0.0664 -0.0258  0.0872
30734W        W46918  19.262   6.321  12.124  0.0884 -0.3544 -0.0811
30735W        W46919   4.384   9.614   3.605 -0.0127 -0.3679  0.2419
30736W        W46920  15.164   8.963  14.660  0.1375 -0.1448 -0.0010
30737W        W46921  14.643  16.455   1.562 -0.1511 -0.4139 -0.1423
30738W        W46922  17.599  16.100   3.857 -0.0290  0.2902  0.3762
30739W        W46923   1.343   1.760   3.295 -0.2182 -0.0513  0.1385
30740W        W46924  12.255   5.488  10.137  0.0134  0.0918  0.0506
30741W        W46925  15.608   5.026   0.992  0.1333 -0.2473  0.3306
30742W        W46926   6.380  19.121   0.714  0.1744 -0.0367 -0.1042
30743W        W46927   2.611  12.945  12.173  0.0423 -0.2824 -0.3973
30744W        W46928   9.864  10.873   0.006 -0.0405 -0.1124  0.2306
30745W        W46929   3.383   1.700  11.712 -0.0463  0.1144 -0.0516
30746W        W46930  13.354   5.133  14.808 -0.2379 -0.0514 -0.2132
30747W        W46931  18.728  15.864   0.982 -0.1361 -0.1123  0.1344
30748W        W46932   4.102  12.504  11.138 -0.1041  0.0236 -0.1078
30749W        W46933  12.551  14.961   0.723 -0.1505  0.1909 -0.0233
30750W        W46934   7.595  13.199  12.945 -0.2382 -0.2423 -0.0274
30751W        W46935   4.687   5.102   1.457 -0.0834 -0.0951  0.0502
30752W        W46936   7.856  13.898   4.162  0.0075 -0.0313  0.0814
30753W        W46937  16.883  13.448   2.054 -0.0070  0.0569  0.0317
30754W        W46938   0.472  10.637   3.748  0.0584  0.0102  0.3111
30755W        W46939  11.455  10.225  14.720  0.0138 -0.1165  0.0403
30756W        W46940  10.167  13.669  10.998 -0.2286 -0.1821 -0.3616
30757W        W46941   1.006  12.420   9.808 -0.0735 -0.4939 -0.1656
30758W        W46942   4.033   6.854   2.298  0.0443 -0.1765 -0.2051
30759W        W46943   3.235  15.293  13.413  0.1894 -0.0899 -0.2351
30760W        W46944  19.137  12.309   0.783  0.2296 -0.4170  0.1755
30761W        W46945   0.550  17.174  12.944 -0.2814  0.0439  0.1874
30762W        W46946  12.332  17.108  14.162  0.2489  0.1129  0.0514
30763W        W46947  14.456   4.479  12.997  0.2384 -0.0144 -0.2264
30764W        W46948   3.472   0.893  13.022  0.1259 -0.2683  0.0775
30765W        W46949   8.930  13.587   1.226  0.0532  0.1022  0.2537
30766W        W46950   3.216   3.258   0.021 -0.1932 -0.1341  0.0247
30767W        W46951   5.766   6.202  13.778 -0.0566  0.1794  0.0157
30768W        W46952  11.647   2.217   3.198  0.2127  0.1377 -0.3492
30769W        W46953  10.833   4.613   0.043 -0.3139 -0.3535 -0.0372
30770W        W46954   1.906   5.272   4.002 -0.2482 -0.0849  0.2687
30771W        W46955   9.230   2.039   5.733  0.0549 -0.0267  0.1649
30772W        W46956   3.008   5.998   3.398  0.0327  0.0324 -0.3308
30773W        W46957  15.253  19.157   1.526  0.0712  0.0839  0.0761
30774W        W46958   0.621  12.855   0.836 -0.0935  0.1883 -0.3255
30775W        W46959  13.184  16.956   3.297 -0.0214 -0.0758 -0.1538
30776W        W46960   1.449  11.596  13.645  0.1472 -0.1035 -0.0087
30777W        W46961   0.022  11.703   3.052 -0.4194 -0.2182  0.2086
30778W        W46962   5.111   9.328   1.577  0.1030 -0.0064 -0.1725
30779W        W46963   3.660  15.653   0.399 -0.0894  0.0536  0.1451
30780W        W46964  14.857  10.192   3.456  0.0136 -0.0871  0.1416
30781W        W46965  18.495  14.672   2.679  0.0363 -0.1747  0.1056
30782W        W46966  11.918   4.715   1.158  0.1464  0.1796  0.3357
30783W        W46967   1.417   3.463   1.293  0.0061  0.2787  0.2781
30784W        W46968   8.548  10.098  13.915 -0.1957 -0.0653 -0.2054
30785W        W46969   7.925  17.742   0.103  0.0544 -0.0520  0.0277
30786W        W46970   2.585  13.442   0.267  0.2869 -0.0481  0.1982
30787W        W46971  16.820   5.696  14.725 -0.0363 -0.3052 -0.0633
30788W        W46972  16.352  13.376   2.822 -0.1754  0.1975 -0.0738
30789W        W46973   5.113  10.589   1.465  0.0014 -0.2092  0.3552
30790W        W46974   4.246   7.232   0.206 -0.0187 -0.2531  0.2409
30791W        W46975   2.244   8.386  11.291  0.0269 -0.0089  0.0223
30792W        W46976   7.800   8.637  10.402  0.1507  0.1306  0.0933
30793W        W46977  10.633   6.027   9.036  0.0831  0.1444 -0.2411
30794W        W46978   2.352  15.864   1.935  0.1115  0.1688  0.0962
30795W        W46979  18.501   7.379  11.378  0.0115  0.1096 -0.1458
30796W        W46980   7.592  18.989  14.239  0.0233 -0.0790  0.4555
30797W        W46981  16.186   7.312  13.791  0.1421  0.0142  0.0824
30798W        W46982   5.059  16.501   5.334  0.1201 -0.2351 -0.0118
30799W        W46983   4.336  17.304  14.292  0.2128  0.2795 -0.2325
30800W        W46984  14.561   9.059  13.959 -0.0087 -0.3908  0.1552
30801W        W46985  11.249   2.916   0.722 -0.0951 -0.0392 -0.0758
30802W        W46986  15.872   1.166   2.208  0.0221 -0.0293  0.2777
30803W        W46987   6.860  17.400  11.198 -0.1286 -0.3350  0.1557
30804W        W46988  18.427   7.860  11.169  0.0210 -0.0326  0.0912
30805W        W46989   1.501  11.695   1.106 -0.0980  0.1063 -0.0524
30806W        W46990  17.898  10.854   3.679 -0.0030 -0.1406  0.3813
30807W        W46991   6.028  11.287   0.889  0.1300 -0.0283  0.0753
30808W        W46992  18.986   5.292   4.242 -0.1939  0.0946 -0.3022
30809W        W46993  15.233  16.327  14.068 -0.0174 -0.3541  0.1022
30810W        W46994   0.348  14.076  14.712  0.1363 -0.1204  0.1872
30811W        W46995  18.327   9.854   0.513 -0.1189  0.0908  0.1790
30812W        W46996   4.263   7.067   1.055  0.3905 -0.2606  0.4616
30813W        W46997  10.368   3.132  11.444  0.1161 -0.0661  0.3790
30814W        W46998   7.061   0.531  12.837 -0.0442 -0.0907  0.2226
30815W        W46999  17.219   0.920  14.122  0.0909 -0.2486  0.1701
30816W        W47000   7.466  16.662   2.260 -0.0910  0.1633 -0.1808
30817W        W47001   0.707  13.527   4.662  0.3235 -0.3113  0.1084
30818W        W47002  13.341   3.561  11.020 -0.2031 -0.0544 -0.1696
30819W        W47003   9.899  16.100   2.571 -0.0386  0.1346  0.1069
30820W        W47004   5.154   1.816   1.534 -0.0429 -0.0514 -0.2958
30821W        W47005   7.398   7.355  10.546 -0.1074  0.1864 -0.1684
30822W        W47006  12.244  12.536  12.190  0.2424  0.1229 -0.0738
30823W        W47007   0.752   4.608   1.128  0.1981  0.0184 -0.1054
30824W        W47008  12.129   8.307   0.899  0.5710 -0.0259  0.0964
30825W        W47009  14.177  12.414  11.732 -0.1150 -0.0427  0.1395
30826W        W47010   8.412   9.246   3.750 -0.0559 -0.1996 -0.0536
30827W        W47011   6.763  15.358  10.411  0.1909 -0.1342  0.0583
30828W        W47012  19.071  10.371  10.721  0.1402  0.2308 -0.4745
30829W        W47013   1.617   1.932  11.235 -0.2248  0.2262 -0.2588
30830W        W47014   0.440  12.372  11.749 -0.4202 -0.7373  0.2670
30831W        W47015  12.624   0.762   2.309 -0.2507 -0.0360  0.2028
30832W        W47016   5.210  13.436   3.584 -0.1744  0.1173 -0.0176
30833W        W47017   8.617  11.101   6.037 -0.2160  0.0891  0.2168
30834W        W47018  15.287  11.394  14.651 -0.0845  0.2521  0.0036
30835W        W47019  16.773  12.252   4.373 -0.0187 -0.1565  0.2733
30836W        W47020   1.492   8.305  11.876  0.1442 -0.0258  0.0901
30837W        W47021  19.036   7.228  11.661 -0.3516  0.1174 -0.1672
30838W        W47022   7.263  12.384  12.655 -0.1516 -0.0891  0.0697
30839W        W47023   5.943   6.777  12.198 -0.3699 -0.0702 -0.2647
30840W        W47024   7.177  14.904   0.180 -0.1507  0.1192 -0.0610
30841W        W47025   7.779   1.681  12.072  0.1230  0.0078  0.1999
30842W        W47026   4.023  11.550   4.209  0.0488  0.0665 -0.1088
30843W        W47027   5.749   8.711  13.308  0.1122  0.0402 -0.0499
30844W        W47028   2.768  10.147   4.518  0.3747  0.2591 -0.0988
30845W        W47029  17.188  11.802  14.579  0.2958  0.0324  0.0752
30846W        W47030   2.701  15.590   0.619 -0.1114  0.1483 -0.1823
30847W        W47031   0.905   1.341   0.962  0.2149  0.1707  0.1465
30848W        W47032   7.678  15.010  14.974  0.0586  0.3218  0.0124
30849W        W47033   2.077   6.630  12.314  0.0635 -0.3439  0.2229
30850W        W47034   2.912   3.019   2.807 -0.2351  0.0219  0.3239
30851W        W47035  18.864   3.746   2.200 -0.4628 -0.1298 -0.4601
30852W        W47036  18.217  12.221   2.687 -0.2056 -0.0166 -0.1516
30853W        W47037  19.114  16.080   4.843  0.0713 -0.3111  0.1392
30854W        W47038  13.204  16.691   4.722 -0.0444 -0.1559  0.0761
30855W        W47039  19.106  13.908  11.547 -0.2102 -0.1139 -0.0835
30856W        W47040  14.127   5.430  10.959  0.1589  0.3595  0.0940
30857W        W47041  16.211  15.211  13.904 -0.0686  0.1529  0.2581
30858W        W47042   0.812  19.006   5.834 -0.0314  0.0692 -0.5221
30859W        W47043  16.790  15.458   0.307  0.2233  0.1506 -0.1273
30860W        W47044  16.776   2.144   5.255 -0.0791 -0.0041 -0.1225
30861W        W47045   5.103  17.304   0.717 -0.0300  0.0244  0.0802
30862W        W47046  13.135  13.602   0.080  0.0896 -0.1538  0.2723
30863W        W47047  12.278   4.249  12.569 -0.0916  0.0620  0.2884
30864W        W47048   2.374   8.668   1.290 -0.2203 -0.4164  0.3810
30865W        W47049   5.224  10.521  14.422  0.0503  0.3370  0.0453
30866W        W47050   2.038   3.880  14.828  0.0038 -0.1441 -0.1964
30867W        W47051   2.956   3.001  11.381  0.0229  0.2090 -0.2271
30868W        W47052   9.065   9.574  13.736 -0.0868 -0.1996  0.0216
30869W        W47053   8.448   8.323   9.693 -0.0546  0.0540  0.1165
30870W        W47054   9.574  10.018   2.355 -0.1189  0.1944 -0.1303
30871W        W47055  12.866  13.880  13.418  0.1859 -0.1154 -0.3122
30872W        W47056  16.554  10.939  12.430 -0.0121 -0.1649  0.0917
30873W        W47057  17.781   9.781   0.120  0.2098 -0.0374  0.0218
30874W        W47058   2.183   7.300   2.900 -0.0391  0.0672  0.3351
30875W        W47059  19.216   5.797  12.129  0.1152  0.1248  0.1449
30876W        W47060  15.940  10.229  10.928 -0.0426 -0.0856 -0.1909
30877W        W47061   5.529  14.551  13.822  0.2439  0.0721  0.2249
30878W        W47062  11.223   4.795   4.395 -0.0129  0.1626 -0.2192
30879W        W47063  17.646  10.682  13.940 -0.1313 -0.1073  0.1449
30880W        W47064   6.085   7.695  12.326  0.1188  0.1378  0.0927
30881W        W47065   7.155   6.526  13.572  0.0984  0.4612 -0.2032
30882W        W47066   0.865   9.364  12.311  0.0132 -0.0712 -0.0777
30883W        W47067  16.616   8.586   2.536 -0.0525 -0.3935  0.1774
30884W        W47068   9.364  17.968  12.673  0.2109 -0.0735  0.1560
30885W        W47069  18.969   5.058  14.641 -0.3719  0.0281  0.0151
30886W        W47070   9.164   4.102   0.479  0.1990 -0.0578 -0.2429
30887W        W47071   7.326   9.762   9.396  0.1924 -0.3129  0.1768
30888W        W47072   0.072   0.705   1.688  0.1530  0.0727 -0.1121
30889W        W47073   8.750  17.124  11.208  0.0829 -0.0925  0.0040
30890W        W47074   3.015  17.525  12.956  0.1088  0.0001 -0.3767
30891W        W47075  19.131  14.893  11.313 -0.1813  0.2558  0.0587
30892W        W47076   6.618   8.153   0.243  0.1170 -0.4122  0.1735
30893W        W47077  15.044   1.596   0.192  0.2726 -0.1796  0.3129
30894W        W47078  16.287   1.245  12.896  0.2115  0.0351 -0.2292
30895W        W47079  13.172   0.898   1.969  0.0568 -0.0952  0.2080
30896W        W47080  14.431   0.720   0.846  0.0134  0.0247  0.0656
30897W        W47081  12.467   1.376  10.535  0.0469 -0.0746 -0.0419
30898W        W47082   6.059  15.868   4.018 -0.0832  0.1739  0.0110
30899W        W47083  13.744  14.883  13.237  0.0453  0.1656  0.0855
30900W        W47084   7.824  11.578  14.388  0.0689 -0.1761 -0.0759
30901W        W47085  18.316  14.201   2.838 -0.1912 -0.1513 -0.3403
30902W        W47086  13.407  15.692  14.289 -0.1393 -0.1940 -0.2267
30903W        W47087   4.465   0.110   1.065 -0.0237  0.3527 -0.0395
30904W        W47088  15.725   0.143  14.372  0.2098  0.0606 -0.0035
30905W        W47089  16.974   3.477   4.466 -0.2256 -0.2784 -0.0771
30906W        W47090   7.841   4.585  14.617 -0.1911 -0.2032 -0.0828
30907W        W47091   6.743   5.443   3.631  0.1390 -0.0558  0.0541
30908W        W47092   9.130  13.290   2.564  0.0389  0.1768 -0.0269
30909W        W47093  10.275   5.982  10.669  0.1607  0.1018  0.1008
30910W        W47094  10.046  15.745  10.268  0.1504  0.0261 -0.0101
30911W        W47095   1.638  12.117  12.135  0.2020  0.0978 -0.2312
30912W        W47096   4.626  15.658   2.560  0.1900  0.0727 -0.2733
30913W        W47097   1.541  12.079  10.972 -0.2664 -0.0130 -0.1317
30914W        W47098   4.225   5.017  14.775  0.1298  0.1299  0.2829
30915W        W47099  11.295   1.493   3.408  0.1304 -0.0998 -0.2323
30916W        W47100   8.550   2.372  13.572  0.0891  0.1522  0.3170
30917W        W47101  11.929  13.027   1.887  0.1719  0.0375 -0.5524
30918W        W47102   1.830   6.805  11.199  0.2415 -0.0609 -0.0398
30919W        W47103  11.047   1.696  13.093 -0.3999  0.0646 -0.0144
30920W        W47104  14.652  15.854   2.105 -0.5342 -0.4619 -0.2352
30921W        W47105   0.994   9.802  14.619 -0.0370 -0.2303 -0.0405
30922W        W47106   4.522   0.266  10.440 -0.0294  0.1616 -0.0962
30923W        W47107  14.423   2.132  13.719  0.0420 -0.1153 -0.0051
30924W        W47108  15.937  12.507  14.236 -0.1554  0.1309 -0.4391
30925W        W47109  15.046   9.153  13.656  0.0740  0.0819 -0.2848
30926W        W47110  18.943   2.119   1.843  0.0883  0.1871  0.1827
30927W        W47111   9.491   8.089  13.399 -0.0002  0.0525 -0.3448
30928W        W47112   3.118   7.160  14.689 -0.0658 -0.0443  0.2781
30929W        W47113   0.656   9.496   0.446  0.3699 -0.1964 -0.1757
30930W        W47114  10.598   0.728  10.614 -0.0556  0.3805  0.1270
30931W        W47115  17.432  11.223   4.781  0.1490 -0.1945  0.0150
30932W        W47116  18.857   0.618   2.281 -0.1469  0.2928  0.0457
30933W        W47117   9.208  11.538   0.267  0.1664 -0.2948 -0.0457
30934W        W47118   6.239  11.650   0.109  0.4605 -0.0725  0.0722
30935W        W47119  10.078  17.693   1.715 -0.1200  0.3478 -0.1711
30936W        W47120  17.355  17.509   0.976 -0.0807 -0.2078 -0.2197
30937W        W47121  10.206   0.590  11.171  0.1117  0.1695  0.2154
30938W        W47122   0.306  10.944   5.184  0.0198  0.0289  0.0161
30939W        W47123  17.119   6.704   4.271 -0.0263  0.3245 -0.1249
30940W        W47124   7.712   9.156  12.994  0.0868 -0.0229  0.0427
30941W        W47125   1.589   0.262  13.177  0.1972 -0.0238 -0.0138
30942W        W47126   1.281   8.014   2.418  0.4939 -0.1162 -0.0362
30943W        W47127   2.111  19.345  12.530  0.1527  0.1523  0.0617
30944W        W47128   4.291   9.854   4.129 -0.3475 -0.3476  0.2989
30945W        W47129   7.184   7.088   0.290  0.2683  0.1912  0.2917
30946W        W47130   3.941   3.644  14.780 -0.0386 -0.0144 -0.1544
30947W        W47131   6.086  13.388  10.847 -0.1613 -0.0671 -0.0253
30948W        W47132  12.198  11.602  12.632  0.0086 -0.0913  0.0923
30949W        W47133  14.846   5.196  10.182  0.1337  0.0563  0.1015
30950W        W47134  11.041  12.397   1.169  0.1877 -0.0889  0.0409
30951W        W47135   2.381  15.231  13.758 -0.4551 -0.2081 -0.0196
30952W        W47136   6.101   9.211  11.170 -0.3290  0.2309  0.1598
30953W        W47137   0.507   1.954  11.059 -0.3895 -0.1559  0.0209
30954W        W47138  13.927  17.471   1.209 -0.1991  0.0630  0.1321
30955W        W47139   6.978   6.038  13.599  0.1516  0.0347  0.3516
30956W        W47140   7.508  15.628  13.531  0.1307  0.2818 -0.1296
30957W        W47141  15.750  11.279  14.815  0.0616 -0.2895 -0.1279
30958W        W47142  15.087   4.994   0.467  0.0825  0.0810  0.1548
30959W        W47143   7.765   5.344   1.276 -0.1735  0.2302 -0.2591
30960W        W47144  10.503   2.600  11.577  0.2088 -0.2920 -0.0309
30961W        W47145  17.034  14.426   1.064 -0.2526 -0.3518 -0.2768
30962W        W47146   3.204  16.746   1.017  0.0667  0.2330 -0.1553
30963W        W47147  14.307   1.077   5.143  0.4613 -0.1397 -0.2968
30964W        W47148  12.322   6.244  14.892  0.1495  0.1484 -0.5578
30965W        W47149   6.356  14.840   3.353 -0.1750 -0.2240  0.1189
30966W        W47150   0.780  15.931  12.274  0.3362  0.2546  0.3191
30967W        W47151  11.825  19.025   0.436 -0.1698 -0.0485  0.0586
30968W        W47152  10.803  11.091  13.902 -0.1540  0.2750  0.0475
30969W        W47153  10.411  15.207  10.468 -0.0294  0.0213 -0.0918
30970W        W47154  16.362   5.503   5.635 -0.0923  0.2833  0.0687
30971W        W47155  15.996  18.458  14.082 -0.1512 -0.3192  0.1907
30972W        W47156  16.707  17.598   4.894 -0.1206 -0.2262  0.2225
30973W        W47157   5.065   7.987  13.418 -0.0175  0.0527  0.1426
30974W        W47158  18.354   0.446   0.689  0.0551  0.1582 -0.1110
30975W        W47159  17.109   7.542   3.078 -0.2633 -0.0400 -0.3159
30976W        W47160   4.964  11.265  10.358 -0.3220 -0.1683 -0.1382
30977W        W47161   0.666   0.916  14.625 -0.0601  0.1010  0.1818
30978W        W47162   8.980   5.590  10.499  0.1283  0.0013 -0.3544
30979W        W47163   4.265   8.280  13.383 -0.1942  0.0058  0.0443
30980W        W47164   4.716   9.665  11.119  0.0869 -0.0237 -0.2726
30981W        W47165  13.853  12.069  13.442  0.0221  0.1395 -0.0429
30982W        W47166  17.179   6.105   3.654 -0.2400  0.0826  0.1856
30983W        W47167   3.713  12.192   3.707  0.0479 -0.0376  0.2234
30984W        W47168   8.928  11.575  12.516  0.1105  0.1854 -0.2150
30985W        W47169   0.782  15.538   3.004  0.2231  0.3369  0.1326
30986W        W47170   0.918   0.205   2.531 -0.0378  0.3161 -0.3774
30987W        W47171  16.067   8.631  10.514  0.1101  0.1949 -0.0048
30988W        W47172   7.647   7.135   1.640  0.4231 -0.0758  0.1323
30989W        W47173  18.435  19.004  13.846  0.0024  0.0418  0.2810
30990W        W47174  12.606  11.320   1.581  0.2347 -0.3505 -0.0197
30991W        W47175   7.013   5.802   0.095  0.0746  0.1192  0.2103
30992W        W47176  15.052  13.613   0.228  0.2064  0.1733  0.2284
30993W        W47177   0.625   5.646  12.573 -0.2409  0.2178  0.3096
30994W        W47178  13.991   3.563  11.259  0.0429  0.1912  0.0844
30995W        W47179  18.999   4.956  10.675  0.1032 -0.0060  0.0684
30996W        W47180  18.978   4.106   3.725 -0.1238  0.0402  0.0951
30997W        W47181   8.688   7.907   2.578  0.0783  0.3154 -0.5713
30998W        W47182  14.018  15.752   4.153 -0.1624  0.0539  0.1199
30999W        W47183  17.410   3.842   0.073  0.1169  0.1429  0.1684
31000W        W47184  19.117   8.623  10.448  0.1855 -0.1136 -0.0301
31001W        W47185  14.170   6.123  10.601  0.1479 -0.0571  0.0819
31002W        W47186  12.330   0.170  13.339  0.2995 -0.2934  0.2539
31003W        W47187   2.742  11.076  10.693  0.3329  0.0045 -0.1112
31004W        W47188   4.884  11.521   9.358  0.2981 -0.0447 -0.1789
31005W        W47189   3.571  10.517  11.374 -0.3524  0.5198 -0.0657
31006W        W47190   4.731   8.076   1.135  0.1858  0.4471  0.0569
31007W        W47191  16.117   9.748  12.377 -0.1842 -0.3068  0.2793
31008W        W47192   2.703   3.625   9.771  0.0230  0.1639  0.3291
31009W        W47193   1.458  11.249   0.891  0.2414 -0.1124 -0.0837
31010W        W47194   2.923  14.374   2.888 -0.3575  0.2897  0.0678
31011W        W47195  15.988   7.092  13.095  0.0798 -0.2771  0.1046
31012W        W47196  14.849   9.724   2.079 -0.0197 -0.1408 -0.3379
31013W        W47197   7.804  16.178   4.216  0.3845 -0.4829 -0.1750
31014W        W47198  13.582  18.336   1.175 -0.3341 -0.1233  0.3196
31015W        W47199  14.555   0.217   0.963 -0.3577 -0.4133  0.0959
31016W        W47200   4.277   8.545  12.471  0.3025 -0.3334  0.0272
31017W        W47201   9.986   0.584  12.407  0.0581  0.1108  0.2153
31018W        W47202  14.536  18.160   0.475  0.1629 -0.2244 -0.0063
31019W        W47203   4.694  18.986  11.343 -0.1026 -0.0387 -0.1612
31020W        W47204  11.190   7.243   3.820 -0.1322  0.1894 -0.2405
31021W        W47205  13.147  18.456   4.022 -0.2208  0.1218 -0.0912
31022W        W47206   0.564  16.804   4.626  0.1380 -0.1058  0.1181
31023W        W47207  10.631   0.446   4.585  0.2247 -0.1364 -0.2448
31024W        W47208  14.153   1.091  14.306 -0.0272 -0.1780  0.0646
31025W        W47209  18.507   6.231  14.313  0.0318  0.0258 -0.2183
31026W        W47210   5.329  16.575  11.622  0.0052  0.3865 -0.3014
31027W        W47211   2.153   6.289   1.696 -0.0108 -0.2385 -0.0537
31028W        W47212  10.708   7.795   0.134 -0.0696  0.3101  0.1371
31029W        W47213   4.893  13.316   5.235 -0.0525  0.2558  0.1172
31030W        W47214  12.751   5.118  11.280  0.5000 -0.0572 -0.1718
31031W        W47215   6.919   1.689  14.392 -0.2572 -0.2908  0.2042
31032W        W47216  16.345   0.985   3.654  0.1720 -0.0566  0.0133
31033W        W47217  17.327  12.156  14.924  0.3186 -0.0130  0.1395
31034W        W47218  17.022   5.267   2.479  0.1937  0.3820  0.1114
31035W        W47219  13.233  10.145  12.111 -0.2694 -0.1293  0.1979
31036W        W47220  14.222  18.634   3.024  0.4572 -0.1529  0.0377
31037W        W47221  18.115   1.820   4.757  0.3025 -0.0719 -0.2632
31038W        W47222   8.977   7.145   3.126 -0.0267  0.0041  0.3734
31039W        W47223   9.091   4.177   1.280  0.0649 -0.2882  0.0136
31040W        W47224  13.107  16.986   0.092  0.0186  0.3350 -0.1338
31041W        W47225  10.847  13.938  12.437 -0.0955  0.2698 -0.2825
31042W        W47226   9.928   2.988  14.681  0.1590  0.0984  0.0495
31043W        W47227  15.588   9.188   3.153 -0.0364  0.2327 -0.5128
31044W        W47228   7.672   9.678   0.726  0.0516 -0.3012  0.0080
31045W        W47229  16.938   9.543   2.246  0.0280 -0.0283 -0.0672
31046W        W47230   7.186   2.716   2.107  0.0313  0.0905  0.0730
31047W        W47231   2.941   2.159   0.815  0.0721 -0.2846  0.0904
31048W        W47232   4.960   7.326  10.828 -0.0649 -0.1241  0.0631
31049W        W47233   3.391   7.090  11.843  0.2365  0.0627 -0.1615
31050W        W47234   1.680   8.709   4.147  0.3254  0.3335 -0.0183
31051W        W47235   5.405   6.619   2.424 -0.0776 -0.0382  0.0933
31052W        W47236   5.710  11.238  11.424  0.1335  0.1394  0.2270
31053W        W47237  10.167   6.715   0.566  0.2217  0.1377  0.1469
31054W        W47238  18.656  17.083  12.344  0.2005  0.1861  0.0360
31055W        W47239   5.002   3.203   4.536  0.1806  0.6965  0.2161
31056W        W47240   7.262   2.300   3.016  0.2385  0.0727  0.1906
31057W        W47241   1.385   2.036  10.426  0.0672  0.2712 -0.2068
31058W        W47242  19.160  13.707  13.482 -0.0154 -0.2057  0.0849
31059W        W47243   3.266  18.137  11.539  0.1618 -0.3193  0.0106
31060W        W47244  11.009   7.753  13.936  0.0446 -0.1439 -0.0040
31061W        W47245  16.953  12.171   1.950  0.0400 -0.2069 -0.3299
31062W        W47246   4.270   5.004   4.249 -0.1144 -0.0793  0.0145
31063W        W47247  18.610  14.299   1.668  0.2393  0.0151  0.3297
31064W        W47248  15.532  14.604   3.038  0.0033  0.2416 -0.1368
31065W        W47249   3.360   5.215  11.348  0.1508  0.0688  0.0872
31066W        W47250   2.786   9.030   3.945 -0.1306  0.4664 -0.0187
31067W        W47251  12.162   8.941  12.032  0.0415 -0.0751 -0.1231
31068W        W47252  10.664  17.841  12.538 -0.4007  0.0187  0.0819
31069W        W47253   3.530  15.364   3.484 -0.0170  0.2489  0.3150
31070W        W47254  10.764  10.524   5.498 -0.1558 -0.0748 -0.0742
31071W        W47255  10.762  13.578  12.076  0.0722  0.2197 -0.0084
31072W        W47256  12.928  14.159   0.863 -0.0356 -0.1270  0.1495
31073W        W47257  14.825  14.979   3.684 -0.2013  0.0463 -0.0742
31074W        W47258   1.289  14.169   1.896  0.0187  0.4458 -0.0926
31075W        W47259   5.536   9.960   3.399 -0.3072 -0.0185  0.1868
31076W        W47260  18.149  12.179  14.614  0.0777 -0.2387 -0.0693
31077W        W47261  12.568   1.942  11.316 -0.4174  0.4665 -0.1891
31078W        W47262   4.636   6.985  13.801 -0.1649 -0.0921  0.1531
31079W        W47263   6.387   8.670  10.451  0.1613 -0.1112  0.1174
31080W        W47264   8.881   8.409   4.015 -0.1501 -0.0320 -0.0922
31081W        W47265  12.247  15.193  10.785  0.1307  0.0117 -0.4118
31082W        W47266  10.004  17.392  14.108  0.1029 -0.1931  0.0293
31083W        W47267  15.051  18.181   3.312  0.2801  0.1562  0.2240
31084W        W47268   1.226  12.400  10.688  0.2464  0.0306  0.1049
31085W        W47269  18.878   2.330  11.211  0.1613 -0.1631 -0.2181
31086W        W47270   6.963   2.445   9.927 -0.1035  0.1345 -0.1773
31087W        W47271   7.405  14.602   3.335  0.0160  0.1504  0.0046
31088W        W47272  11.355   8.263  12.307 -0.0700 -0.1045 -0.1950
31089W        W47273   3.232   8.721  14.090 -0.0527  0.0338 -0.0436
31090W        W47274  11.469  10.439   4.701 -0.0276  0.2290 -0.0103
31091W        W47275  11.548   7.569   3.810  0.2461  0.2409  0.0604
31092W        W47276  10.084   0.412   3.931  0.1258  0.0553 -0.0144
31093W        W47277   5.585  18.661  13.963  0.1640 -0.1945  0.0020
31094W        W47278   5.264  16.979   3.784 -0.1077 -0.0018 -0.3775
31095W        W47279   7.253  15.553   2.106  0.1677 -0.1673 -0.1869
31096W        W47280  16.787   3.054   4.869 -0.2779  0.3845  0.1511
31097W        W47281   3.395  12.827   3.505  0.2283  0.0724 -0.3162
31098W        W47282  12.515   7.662   2.072 -0.0644 -0.1430 -0.2210
31099W        W47283  12.416   1.191  13.205  0.0095  0.1504  0.0819
31100W        W47284  18.612  17.935  13.342 -0.0925  0.1607  0.2996
31101W        W47285  13.407  18.360  11.996  0.3298  0.0086  0.4745
31102W        W47286  17.912   7.380   2.750  0.4996 -0.2698 -0.0211
31103W        W47287  13.533   9.830  11.021 -0.2916 -0.0232  0.0159
31104W        W47288   7.122  18.712  14.119  0.0920  0.0452 -0.1627
31105W        W47289  14.815   2.505  12.553  0.2215  0.1096 -0.0725
31106W        W47290   8.611  11.245   1.753 -0.1383 -0.1633  0.0792
31107W        W47291   4.416  19.305  14.013  0.0080 -0.0864 -0.0814
31108W        W47292   6.979   6.038   1.517 -0.0787  0.0049  0.4344
31109W        W47293  10.592  11.837   3.691  0.0726  0.2793 -0.1701
31110W        W47294   1.696   7.555  11.978 -0.2031  0.1279 -0.0849
31111W        W47295  17.718  15.802   4.759 -0.0033  0.3678 -0.1797
31112W        W47296   1.910  13.126  14.179 -0.2288 -0.0704  0.4175
31113W        W47297   4.599  13.772  13.799 -0.1036 -0.0347  0.0573
31114W        W47298  18.544  18.478   4.396 -0.1935  0.3043 -0.1901
31115W        W47299   2.443  16.808  11.880  0.2248 -0.1093 -0.1339
31116W        W47300  11.657   3.357   4.207  0.5032 -0.3170  0.1578
31117W        W47301   3.706   6.583  10.660  0.0408  0.3394 -0.2699
31118W        W47302   6.091  12.447   2.084  0.0969 -0.2836 -0.0902
31119W        W47303   0.184  12.563  13.485 -0.1126  0.1906  0.2869
31120W        W47304   7.820   8.886  10.869 -0.0686 -0.3960 -0.1526
31121W        W47305  10.123  17.167  14.512 -0.1447  0.1925 -0.1214
31122W        W47306  17.919  17.552   2.081  0.1141 -0.2016 -0.1972
31123W        W47307  15.930  18.989   3.155 -0.1868 -0.0226 -0.3011
31124W        W47308   7.081  10.477  13.096  0.5439 -0.2282 -0.2323
31125W        W47309  10.583  12.424   0.782 -0.1922 -0.0876 -0.1949
31126W        W47310  18.877  15.255  11.081 -0.2580 -0.2395 -0.0640
31127W        W47311   0.185  17.169   5.143 -0.0879 -0.0473  0.0275
31128W        W47312  14.683  11.678   0.374  0.0164 -0.5545  0.1188
31129W        W47313  14.136   7.280  12.678  0.0862 -0.4470 -0.0372
31130W        W47314  12.608  18.653  11.454  0.2640 -0.0306  0.1060
31131W        W47315   9.401  17.177  12.869 -0.0692 -0.2290 -0.3017
31132W        W47316  11.084   2.530  14.356  0.0461 -0.3559  0.2730
31133W        W47317   2.136  19.378   3.856  0.1245 -0.2384  0.1973
31134W        W47318   3.770  12.493   5.268  0.0041  0.3140 -0.0305
31135W        W47319  11.518  15.313   0.679 -0.2848  0.0001  0.0800
31136W        W47320   9.763   9.635  12.751 -0.5005 -0.0127 -0.0914
31137W        W47321   3.836   0.699   4.384 -0.3559 -0.0549  0.4926
31138W        W47322   5.088  16.151  12.161 -0.2427 -0.0550 -0.1023
31139W        W47323   6.200  12.799   3.370 -0.0717 -0.5828 -0.0959
31140W        W47324  10.840  18.253  12.876 -0.4078  0.2213  0.1162
31141W        W47325  11.747  18.385   1.883  0.0594 -0.0587  0.0967
31142W        W47326   3.633   5.428  14.012 -0.1177 -0.4030  0.1829
31143W        W47327   1.817   3.200   1.160 -0.5006 -0.2274  0.3002
31144W        W47328  16.087   7.903   3.254 -0.3528  0.0404  0.0772
31145W        W47329   4.065   0.781   2.162 -0.3362  0.1095 -0.1077
31146W        W47330  13.720   0.423  11.069  0.4039  0.3417 -0.1920
31147W        W47331   2.747   4.074   1.294 -0.1001  0.2620  0.0577
31148W        W47332   4.048   5.149   3.690  0.0463  0.2400  0.2915
31149W        W47333  16.742   2.853  13.044  0.1542  0.0837  0.1593
31150W        W47334  15.076   6.607  10.681 -0.0008 -0.1803  0.0426
31151W        W47335  10.824   0.020   2.259  0.2395 -0.1212  0.2383
31152W        W47336  12.571   5.512  13.278  0.1293 -0.0474  0.2792
31153W        W47337   0.945  13.086  14.798  0.3974 -0.1789 -0.0852
31154W        W47338  18.580  13.466   3.532  0.1980 -0.3065 -0.1900
31155W        W47339   1.120   7.566   3.566 -0.0904 -0.0665 -0.1405
31156W        W47340  15.847   5.988   1.759 -0.2244 -0.1969 -0.0730
31157W        W47341   3.009   7.035   2.362  0.4475 -0.0580  0.0182
31158W        W47342   3.844   3.147  13.898 -0.0233  0.2103 -0.1984
31159W        W47343   2.905  14.807   2.065  0.2847  0.2594 -0.3395
31160W        W47344  13.772   6.350   0.819  0.2509 -0.3011 -0.0527
31161W        W47345  10.049  17.887   2.867 -0.2487 -0.3558 -0.1940
31162W        W47346  10.844  12.566   3.297 -0.0797  0.2601  0.3441
31163W        W47347  17.572  18.074  14.949  0.1974 -0.1132 -0.2964
31164W        W47348   4.077   5.962   9.898 -0.0892 -0.3017  0.1326
31165W        W47349   0.502  11.930   2.439 -0.0679 -0.0370  0.0348
31166W        W47350  15.519   7.738   2.104  0.0971 -0.0864  0.0350
31167W        W47351  14.175   3.721  13.433  0.0507  0.1838  0.0481
31168W        W47352  18.092   7.607   1.828  0.3832  0.2706 -0.2350
31169W        W47353  11.227  13.429  12.892 -0.0455 -0.2344  0.1122
31170W        W47354   2.174  11.752   4.403  0.1725  0.2239  0.1091
31171W        W47355  16.405  18.913  14.953  0.0647 -0.0776 -0.2182
31172W        W47356  14.349   4.030  13.077  0.0016  0.1446  0.3035
31173W        W47357   1.411   5.912   3.759  0.2114 -0.1981 -0.0961
31174W        W47358  10.712  13.798   2.690 -0.0905 -0.2815 -0.1038
31175W        W47359   1.441  14.650   2.058 -0.0476 -0.0408  0.0602
31176W        W47360   1.924   2.212   1.457 -0.1994  0.1793 -0.1577
31177W        W47361  16.139   3.103   0.430  0.0390 -0.2483 -0.1764
31178W        W47362   4.072  10.701  13.029  0.0028 -0.1471 -0.1530
31179W        W47363   4.907   3.243  11.967 -0.0792  0.0604  0.1202
31180W        W47364  17.472   4.929  12.293  0.0059  0.0878  0.0674
31181W        W47365  13.010   5.935   3.118  0.3875 -0.1988 -0.1428
31182W        W47366  19.112   9.095   2.213 -0.1500  0.1976 -0.3939
31183W        W47367   4.442   0.982  12.447  0.1650 -0.1494 -0.2177
31184W        W47368   2.967  16.755  11.564  0.1336 -0.4828  0.2096
31185W        W47369   2.066  17.708   1.700  0.3641 -0.1016 -0.3943
31186W        W47370  16.789  14.154   1.454 -0.0060  0.1940 -0.0129
31187W        W47371   5.048  12.959  14.947  0.2249 -0.2106 -0.3394
31188W        W47372   6.690  18.083   3.800 -0.3348 -0.2478  0.1271
31189W        W47373  12.474  13.031   4.964 -0.2584  0.1024 -0.0221
31190W        W47374   9.054  11.315   2.171 -0.3933 -0.1900 -0.0752
31191W        W47375   5.200   3.337   0.675  0.3983 -0.0879  0.1325
31192W        W47376  15.095  18.358  14.010  0.3187 -0.1699 -0.0562
31193W        W47377   0.003   2.106   3.395 -0.1055 -0.0264  0.2952
31194W        W47378   2.320   3.397  14.164  0.0947  0.1003 -0.2550
31195W        W47379   3.181   9.451   3.763  0.1863 -0.0916 -0.1808
31196W        W47380   2.425  13.769  12.876  0.4698 -0.1614  0.4879
31197W        W47381  12.952  17.247   1.600 -0.0501 -0.1058 -0.0300
31198W        W47382   8.231   2.498  12.040 -0.0819 -0.0505 -0.0468
31199W        W47383   0.672  18.072   4.250 -0.4510  0.2784 -0.0505
31200W        W47384  17.225   8.858  13.657 -0.1274 -0.1509 -0.1819
31201W        W47385  18.985  10.576   1.553  0.0635 -0.3527 -0.0532
31202W        W47386   2.567  18.838   0.204 -0.0405  0.2592 -0.2831
31203W        W47387   6.886  14.255   1.411  0.0236  0.3042  0.1742
31204W        W47388   8.578   7.878  13.978  0.1939 -0.0743 -0.3876
31205W        W47389   1.583  11.596   5.753 -0.1430  0.1012  0.1114
31206W        W47390   2.534   7.709  12.543  0.2839 -0.1288  0.0069
31207W        W47391   3.867   5.144  12.616 -0.1210  0.2107 -0.2005
31208W        W47392  18.854   7.970  14.138 -0.0660  0.1799 -0.0731
31209W        W47393   7.029   3.699  10.818  0.0524 -0.1175  0.0826
31210W        W47394  16.746  11.833   1.585  0.0925  0.1412  0.1156
31211W        W47395  14.314   3.000   1.988  0.0751  0.0868 -0.0370
31212W        W47396  12.089  15.555  14.968  0.0030 -0.0915 -0.1705
31213W        W47397   1.450  11.696   0.096  0.0930  0.1090 -0.0220
31214W        W47398  16.910  18.657   9.743 -0.2304  0.1589  0.0872
31215W        W47399   3.362  16.448  11.201  0.2010 -0.4608 -0.0761
31216W        W47400  14.331  16.133  13.320 -0.0853  0.0233  0.2116
31217W        W47401  11.126  10.275  11.005 -0.0221 -0.0414  0.1495
31218W        W47402   3.676   6.169  14.337  0.0741  0.0247 -0.0882
31219W        W47403   2.637  12.563  12.499  0.1448 -0.1302 -0.0264
31220W        W47404   8.034   1.949  13.786 -0.0573 -0.0424 -0.3114
31221W        W47405  11.762  15.250   1.167 -0.0439 -0.0982 -0.3683
31222W        W47406   4.344  15.007  10.750  0.0538  0.1057  0.1704
31223W        W47407  17.873  16.406   1.752 -0.3362 -0.0822  0.0417
31224W        W47408   0.295  11.506   0.908  0.0300 -0.0019  0.0645
31225W        W47409  12.471   7.124   2.066 -0.4158  0.0056 -0.0029
31226W        W47410   3.661  16.170   4.966  0.1057 -0.0630 -0.2658
31227W        W47411   4.716   5.839   4.047 -0.1278  0.1760 -0.1755
31228W        W47412  12.271   5.259  11.017  0.5510 -0.2554 -0.1136
31229W        W47413  12.925  17.454   5.283  0.1900  0.1726 -0.0763
31230W        W47414   1.312   9.568   4.782  0.2378 -0.0203  0.0496
31231W        W47415  13.186  12.241  12.827 -0.0804 -0.3245  0.3723
31232W        W47416   4.419   8.108  11.482 -0.2169 -0.0130 -0.0647
31233W        W47417   9.723   1.200   4.823 -0.0314  0.3224  0.3070
31234W        W47418  14.524  10.392  14.894  0.0241  0.3062 -0.3764
31235W        W47419  13.580   5.970   4.928  0.1100 -0.4580 -0.0300
31236W        W47420   8.255   0.296   1.924 -0.0919  0.0583 -0.0877
31237W        W47421  16.127  18.902   9.967  0.4846 -0.2628  0.2252
31238W        W47422   4.915  13.084   0.787  0.0944 -0.0721 -0.3846
31239W        W47423  10.805   4.847  14.514  0.0341 -0.0149  0.0840
31240W        W47424  10.878   4.761   3.108 -0.1268  0.0252  0.0695
31241W        W47425  19.127   9.956   1.679 -0.2551 -0.1981  0.2747
31242W        W47426  15.771   5.183   2.848  0.3953 -0.1074  0.1513
31243W        W47427   0.699  15.952   0.089 -0.0492 -0.0573  0.0889
31244W        W47428   6.727   0.842   3.971  0.0693  0.0169 -0.1672
31245W        W47429   0.890   7.686   4.273 -0.0672  0.1909 -0.4069
31246W        W47430  10.077   4.195  13.718  0.1183  0.1836 -0.0810
31247W        W47431  10.967  10.242  14.905  0.1469  0.0090  0.1176
31248W        W47432  15.950   5.785   2.318  0.1973 -0.3878  0.0568
31249W        W47433  12.724  18.485   3.003 -0.1601  0.0168  0.0208
31250W        W47434  15.597   2.399  11.982 -0.2594  0.1471  0.1522
31251W        W47435   8.719   8.301   0.445 -0.1871 -0.0143 -0.1642
31252W        W47436   6.102  17.144  12.310 -0.0790  0.2257  0.0889
31253W        W47437   5.952  18.607  12.112  0.2532  0.0963 -0.3245
31254W        W47438  17.028  10.678  12.305 -0.0253  0.1467 -0.0558
31255W        W47439   0.620  13.813   0.492 -0.3398 -0.4911 -0.0390
31256W        W47440   5.553  14.221   0.748  0.3031 -0.1142 -0.0537
31257W        W47441   9.417   2.506  12.673 -0.1819 -0.1621 -0.1052
31258W        W47442   9.358   0.685  13.125  0.0653  0.2725  0.1634
31259W        W47443   2.871   8.184  14.143 -0.0815  0.0055 -0.1754
31260W        W47444  11.484   9.205   3.576 -0.1180  0.1344 -0.1224
31261W        W47445  12.572   4.751  10.945 -0.0651 -0.1754 -0.1374
31262W        W47446   1.984  15.119   2.752 -0.3591 -0.0177 -0.0388
31263W        W47447   2.607   0.121   3.010  0.1395 -0.2921  0.1077
31264W        W47448   4.479  12.260   2.970  0.2463  0.0019 -0.0188
31265W        W47449   7.584   8.519   4.472 -0.1097 -0.2702  0.0745
31266W        W47450   5.591  19.296   1.858 -0.0453  0.0621  0.2075
31267W        W47451  13.348   8.584   1.465  0.1030  0.1547 -0.1521
31268W        W47452  14.515   9.897   0.057  0.0944 -0.1910  0.3572
31269W        W47453  12.284   4.796  13.421 -0.1264  0.0442 -0.4567
31270W        W47454   0.090  10.657   3.207 -0.3318  0.0390  0.3588
31271W        W47455  16.870  10.509   3.647 -0.1788 -0.1468  0.2340
31272W        W47456  18.188   1.411  10.793 -0.1353 -0.0322  0.2569
31273W        W47457  14.832  17.302  14.136  0.2534 -0.0423  0.1225
31274W        W47458  10.745  18.056   1.252  0.0607  0.0429  0.1782
31275W        W47459   4.405  11.508  12.403  0.3262 -0.0811  0.0857
31276W        W47460   2.665  17.304   2.030 -0.2891  0.1726 -0.1310
31277W        W47461  11.386  11.286   3.465  0.0117  0.0364 -0.2905
31278W        W47462  11.333   6.726  11.214 -0.0378 -0.0457 -0.0452
31279W        W47463   3.516   0.310  14.270  0.0134  0.0650  0.0040
31280W        W47464   6.506  17.014  13.939 -0.2306  0.5137  0.2423
31281W        W47465   3.383   4.763  11.593  0.0275  0.0335  0.0707
31282W        W47466   2.667  11.837   1.711 -0.0666  0.2687  0.2670
31283W        W47467   9.837  15.388  11.474  0.0825  0.0911 -0.1690
31284W        W47468  16.654  11.841   2.246 -0.1586  0.1808  0.2917
31285W        W47469  18.191  15.669  13.702  0.0940  0.1061 -0.0391
31286W        W47470  12.958   1.152  14.012 -0.1088 -0.0280  0.0017
31287W        W47471   3.839   9.405   1.261 -0.0053  0.0908  0.2512
31288W        W47472  10.895   5.067  11.182  0.2523  0.0057  0.1340
31289W        W47473   7.643   4.972   4.286 -0.0432 -0.2387 -0.2864
31290W        W47474  17.557  19.194  12.211 -0.0280  0.0186 -0.0197
31291W        W47475  17.872  14.798   1.727 -0.1952 -0.2610  0.1786
31292W        W47476   7.001  13.532   5.451 -0.3033  0.4055  0.4253
31293W        W47477   4.539   3.849   1.414  0.0646 -0.0139  0.0681
31294W        W47478   8.311   6.087  12.938  0.0801 -0.2234  0.0385
31295W        W47479   5.166  11.133   1.349  0.0169 -0.2173 -0.2353
31296W        W47480   5.632   9.164   5.372 -0.3695  0.1193  0.1780
31297W        W47481   5.005  13.865   2.736  0.2140  0.0430 -0.1915
31298W        W47482  17.559   8.917  12.815  0.2070  0.0777 -0.1131
31299W        W47483   9.632   3.100   2.189  0.3389 -0.0478  0.0800
31300W        W47484  11.435   6.774   3.820 -0.1923 -0.0017 -0.2126
31301W        W47485   4.545   3.408   4.860  0.2056  0.1883 -0.3788
31302W        W47486   8.058   2.366   2.400  0.0383  0.1493  0.4564
31303W        W47487  16.048   8.346  12.259  0.0158 -0.4004 -0.0847
31304W        W47488  15.191   7.812   5.080 -0.2422  0.0677 -0.0035
31305W        W47489   5.511  15.413   1.483 -0.2473  0.1073 -0.0077
31306W        W47490  12.684   2.869  11.775 -0.1273  0.1382 -0.0956
31307W        W47491  13.629  12.928  13.930 -0.0151 -0.1079 -0.3610
31308W        W47492   0.589   1.401  14.721 -0.3341  0.0521 -0.0517
31309W        W47493   8.755   6.482  10.646  0.1186  0.1523  0.3641
31310W        W47494  11.967  16.492  12.932 -0.2068 -0.1221  0.0555
31311W        W47495  10.906  19.339   4.399 -0.1764 -0.2179  0.0715
31312W        W47496  17.994   4.562  13.053 -0.1216  0.0424 -0.1384
31313W        W47497  11.629  15.310  11.994  0.0589  0.0040  0.0469
31314W        W47498   9.888   3.313  12.093  0.2601  0.1901 -0.2069
31315W        W47499   5.953   5.893   1.628  0.0337  0.2784  0.1376
31316W        W47500  18.493   5.404   3.826  0.0780  0.1054 -0.0325
31317W        W47501   0.725   1.952  12.231  0.1182  0.3493  0.2533
31318W        W47502  10.371  13.176   0.190 -0.3253  0.4356 -0.1378
31319W        W47503   5.978  18.747   0.993 -0.0233 -0.2755  0.0587
31320W        W47504   9.719  11.094   0.410 -0.1695 -0.0318  0.0101
31321W        W47505   2.194  13.897   3.246  0.3534  0.1365 -0.3444
31322W        W47506  12.934  15.777   1.789  0.3396 -0.1802  0.0352
31323W        W47507  16.480   0.257   1.262 -0.1040  0.1602 -0.2356
31324W        W47508  13.918  11.163   4.849 -0.0009  0.1745  0.1846
31325W        W47509   3.793  14.911   4.286 -0.0599 -0.1108  0.1729
31326W        W47510  12.988  14.801  13.154  0.0407  0.2322 -0.0827
31327W        W47511   5.336   7.471   1.048 -0.0977 -0.3232  0.1814
31328W        W47512  13.170  11.039  10.642  0.2461 -0.1295 -0.1293
31329W        W47513   7.378  14.862   4.458  0.1554 -0.1864  0.3093
31330W        W47514   3.189   2.598  13.653 -0.0821  0.0353 -0.0968
31331W        W47515  18.421   8.823  10.939  0.4104 -0.0544  0.3193
31332W        W47516  18.901   3.113  13.769 -0.0579 -0.1108  0.2125
31333W        W47517   2.787   2.582  11.118  0.1572 -0.0337  0.1068
31334W        W47518  12.259   1.245  13.794  0.0927 -0.0545 -0.0250
31335W        W47519  12.992   7.096   3.645  0.4369  0.1821 -0.1194
31336W        W47520  15.868  17.786   2.365 -0.0806 -0.1189  0.1393
31337W        W47521   1.640   5.022  13.306  0.1975 -0.1649 -0.3457
31338W        W47522   1.259   0.627  12.570  0.4430  0.1057 -0.0927
31339W        W47523  15.974   7.567   4.600 -0.2662 -0.1559  0.0339
31340W        W47524  17.805   4.648  11.919 -0.1208  0.0977 -0.1141
31341W        W47525   9.735  15.697   2.299  0.0347 -0.2173 -0.1951
31342W        W47526   2.589   2.817   5.473 -0.0725  0.1112  0.0158
31343W        W47527   5.087  15.720   2.188 -0.0631  0.0907  0.1949
31344W        W47528  12.805  19.351   4.647  0.0269  0.1432  0.0763
31345W        W47529  15.914   0.023  12.369  0.0104 -0.1523  0.0346
31346W        W47530   2.569   4.855  10.513 -0.1269 -0.0335  0.1155
31347W        W47531   2.920   5.827   4.389 -0.1755  0.1097  0.3323
31348W        W47532   2.579  12.913   4.768 -0.0388 -0.1214  0.1793
31349W        W47533  18.327   6.336   2.423 -0.1027  0.3035 -0.3207
31350W        W47534  11.164   8.839   2.852 -0.3002  0.1214 -0.1100
31351W        W47535   3.981   9.724   2.313  0.1925  0.1039 -0.2464
31352W        W47536  14.067   4.618   1.118 -0.1033  0.0528  0.0782
31353W        W47537   6.869   3.583  14.730 -0.0011  0.0031  0.0352
31354W        W47538   0.854   7.461  12.473 -0.0750  0.0033  0.1560
31355W        W47539  16.342  13.624  14.279 -0.0728  0.0581  0.1386
31356W        W47540   2.350   5.992   3.821  0.2818  0.0927 -0.2682
31357W        W47541  14.477  12.122   4.482  0.0553  0.1219 -0.2363
31358W        W47542  18.299   1.661   2.361 -0.2083  0.1885  0.1927
31359W        W47543   9.920  18.997   3.572 -0.1344 -0.0414 -0.1908
31360W        W47544   0.966   5.897  13.335 -0.2468  0.0010  0.0161
31361W        W47545   9.447   6.380   4.770 -0.3621  0.2071 -0.1488
31362W        W47546   5.777  13.677   4.163  0.0995 -0.0322  0.0375
31363W        W47547  11.472   0.646  14.278 -0.1036 -0.0634  0.0576
31364W        W47548   1.169  14.259  11.662 -0.0619 -0.1487 -0.0477
31365W        W47549  13.768   6.359  14.854 -0.0820 -0.2951  0.1040
31366W        W47550   6.615  12.429   1.036 -0.0243 -0.3345  0.3483
31367W        W47551   2.383   6.384   1.213  0.0823 -0.3355 -0.0712
31368W        W47552  15.329   2.656   4.089 -0.2756 -0.1467 -0.0109
31369W        W47553   8.554   3.090   3.510  0.2567 -0.1856  0.2598
31370W        W47554   7.961   6.397  11.105 -0.0396 -0.3398  0.2858
31371W        W47555  15.021   4.401  14.672  0.0555 -0.2062 -0.0769
31372W        W47556  12.405  17.732   2.752  0.2991  0.0315  0.2153
31373W        W47557  12.606   8.156   1.738 -0.2680  0.2049 -0.0111
31374W        W47558  18.454  16.370  13.831  0.3532  0.3374 -0.0597
31375W        W47559  12.597   7.777  13.393  0.1424 -0.0800 -0.0992
31376W        W47560   6.874  18.049   0.677 -0.1446  0.0011 -0.2144
31377W        W47561   3.049  17.612   0.627 -0.1028  0.0916  0.0384
31378W        W47562   2.144  18.839  11.059  0.1553 -0.0462  0.1607
31379W        W47563  11.814  16.016   0.361  0.1318 -0.4046  0.4055
31380W        W47564   4.432   1.029  11.049  0.2399 -0.1278 -0.0419
31381W        W47565  18.044  16.909  14.496 -0.2399 -0.1046  0.1943
31382W        W47566   7.383  10.122   4.353 -0.1556 -0.2669  0.3146
31383W        W47567   2.391  15.813  12.784 -0.3031  0.1688  0.1887
31384W        W47568  10.988  13.518   0.263  0.3198 -0.2142  0.3320
31385W        W47569  14.249  13.729   0.271 -0.0059 -0.4767 -0.0620
31386W        W47570  18.089  12.355  10.370  0.0700  0.0827  0.0307
31387W        W47571  10.968  10.416   3.162  0.2103  0.2267  0.2119
31388W        W47572   5.342  17.896  12.335 -0.0892  0.4462 -0.2844
31389W        W47573  13.625  17.916  12.129 -0.0818 -0.1832  0.2900
31390W        W47574   9.561   9.389  13.714  0.2969  0.0605  0.1697
31391W        W47575   5.457   5.570  12.324  0.1361 -0.1813 -0.1739
31392W        W47576  17.197   8.425   1.033 -0.3230  0.1995  0.1189
31393W        W47577   4.905  11.458  12.564 -0.0215  0.0304  0.2080
31394W        W47578   7.761  10.406   4.516 -0.2336 -0.1922  0.2392
31395W        W47579   2.178  18.723   1.495 -0.3006  0.0464 -0.0188
31396W        W47580  10.970  12.745  13.954 -0.0125  0.1541  0.2090
31397W        W47581   1.369  13.549   2.965 -0.0878  0.0848 -0.1005
31398W        W47582   9.163   5.956  10.815 -0.1129  0.1222  0.1397
31399W        W47583   2.996   1.431   2.804 -0.0761  0.0335 -0.1673
31400W        W47584  11.723  12.560   5.410  0.2176 -0.0237  0.3568
31401W        W47585  14.224   4.660   0.121 -0.1108  0.0614  0.0332
31402W        W47586  18.221   0.144   0.346 -0.1863 -0.0001 -0.0435
31403W        W47587   8.427   6.017  14.588 -0.1616  0.0961  0.1861
31404W        W47588  13.604   9.276   4.143  0.0513 -0.3065  0.2011
31405W        W47589   4.815  17.332   4.597  0.0568  0.0951  0.0673
31406W        W47590   2.315   0.061  11.597  0.4167 -0.2802 -0.0415
31407W        W47591   5.442  15.113   3.607 -0.0042 -0.1853  0.0003
31408W        W47592  17.546  14.307   1.078  0.2752  0.0610 -0.4119
31409W        W47593   1.230  11.380  14.711  0.2835  0.0418 -0.0924
31410W        W47594  17.745   3.445   0.337 -0.2528  0.0493  0.1848
31411W        W47595   2.979  17.595  13.453  0.2286  0.0835 -0.0756
31412W        W47596  17.172   8.429   2.528 -0.2941  0.0904  0.1512
31413W        W47597   4.847   5.828  14.866 -0.1226 -0.1240  0.0282
31414W        W47598   2.470  11.407   4.719  0.2242 -0.2556  0.2506
31415W        W47599  15.796   8.876   2.857 -0.3304  0.2939  0.1004
31416W        W47600  17.762   8.168  10.253 -0.1412  0.0483  0.2781
31417W        W47601  10.059  16.237  13.273  0.3016 -0.2119 -0.0650
31418W        W47602   4.724  11.791   4.838 -0.1722  0.0700 -0.2112
31419W        W47603   7.823  12.973   0.398 -0.1581  0.3989 -0.2127
31420W        W47604   5.959  13.240   3.383 -0.0232 -0.2916 -0.0572
31421W        W47605  10.936   5.778   3.632  0.4532 -0.2715 -0.0825
31422W        W47606  15.247  16.307  11.461 -0.0466 -0.3805  0.0822
31423W        W47607  11.119   5.376   5.673 -0.3131 -0.1435 -0.0270
31424W        W47608   9.013   6.371  11.766 -0.2115 -0.0453 -0.0508
31425W        W47609  12.157  10.929   2.935  0.4926  0.4515  0.0379
31426W        W47610  13.090  19.024   1.883  0.1859  0.2093  0.2474
31427W        W47611   0.357   6.497   4.478  0.1312 -0.0298  0.2748
31428W        W47612   1.019   0.884   3.793 -0.3536  0.0416 -0.0133
31429W        W47613  11.170  15.597   2.480 -0.0512 -0.0053  0.1025
31430W        W47614  14.952  16.546   5.103  0.1017  0.0389  0.0439
31431W        W47615   7.437   3.756  14.139  0.0407  0.1758  0.1041
31432W        W47616   8.323   5.255  10.018  0.0074  0.0719 -0.2233
31433W        W47617   4.331  11.007   0.856 -0.1202 -0.1749 -0.0162
31434W        W47618   3.926   7.395  13.155  0.2561  0.0853  0.0016
31435W        W47619   3.028  18.693   2.971 -0.1172 -0.3026 -0.0179
31436W        W47620   9.087   3.242   4.998  0.0376 -0.1768  0.3274
31437W        W47621   5.029   6.699  14.042  0.1459 -0.1742 -0.0173
31438W        W47622   8.747  15.471   0.115  0.1541 -0.2717  0.0861
31439W        W47623   7.170  18.301   3.919 -0.0053 -0.1020  0.3145
31440W        W47624  16.563   3.174  11.240 -0.0043 -0.1084 -0.1150
31441W        W47625  15.927  17.940  14.167  0.1331 -0.2816  0.2675
31442W        W47626  12.489   6.275  12.572 -0.0612 -0.0653 -0.2104
31443W        W47627  12.734   9.948  12.762 -0.1859  0.0037  0.1729
31444W        W47628   5.447  11.365  10.462  0.1316  0.0148  0.1693
31445W        W47629   5.656   4.620   4.867 -0.3155 -0.2953 -0.0180
31446W        W47630  14.394  13.803  10.527 -0.1967 -0.2065  0.0798
31447W        W47631  17.003   1.564  11.815  0.1383  0.1253  0.1190
31448W        W47632  12.515   9.050  10.644  0.0893  0.1274  0.1508
31449W        W47633   9.361  11.719   1.060  0.1642 -0.2039  0.0723
31450W        W47634  13.532   0.150  13.506  0.2476 -0.2599  0.0375
31451W        W47635   0.011   1.483   3.361 -0.0328  0.2186  0.0619
31452W        W47636   6.316  12.562   1.374  0.1620  0.0309 -0.0799
31453W        W47637  18.629  18.268   5.297 -0.2247 -0.1031  0.0901
31454W        W47638  13.500   5.508   4.972 -0.2005  0.2460 -0.0166
31455W        W47639  13.894   1.868   3.949  0.1999  0.1328  0.0468
31456W        W47640  18.751   0.106  13.635  0.0971  0.0505  0.1379
31457W        W47641  10.279  12.434  12.305  0.1468  0.1298 -0.1047
31458W        W47642   7.783  15.726   2.040  0.0551 -0.1150  0.1099
31459W        W47643   6.628  17.804   2.440 -0.0448 -0.0056  0.1343
31460W        W47644  18.263   2.780   3.860  0.0834 -0.1784 -0.1726
31461W        W47645  18.185  16.919   4.195  0.1725  0.1139 -0.0411
31462W        W47646   2.678  12.608  14.946  0.1256  0.3126 -0.0890
31463W        W47647   3.518  14.533   0.733  0.0999 -0.0332  0.0319
31464W        W47648   2.248  14.369  13.744  0.0606  0.0859 -0.1921
31465W        W47649   7.025  15.855   2.485 -0.3437 -0.0127 -0.0672
31466W        W47650   6.480   1.083   0.882  0.2234  0.0071 -0.2192
31467W        W47651   7.945   6.288  13.252 -0.4420 -0.1405  0.3891
31468W        W47652  15.760  13.862   2.515 -0.1683 -0.1152 -0.0727
31469W        W47653  13.335   3.261   4.276  0.1765 -0.0228 -0.2563
31470W        W47654   5.719   3.754  13.433 -0.0883 -0.1275 -0.2683
31471W        W47655   5.035  15.749   1.105 -0.1194 -0.2176  0.0388
31472W        W47656   5.490  14.997  14.185  0.0557 -0.1926  0.0188
31473W        W47657  16.340  10.616   9.686  0.1732 -0.1645  0.1231
31474W        W47658   8.447  16.379   5.465 -0.2402  0.2299  0.1467
31475W        W47659  17.879   1.725   0.888 -0.0527 -0.0109  0.0408
31476W        W47660   8.810   9.924   2.245 -0.0545  0.0226 -0.0426
31477W        W47661  11.375  13.711   3.360 -0.0179  0.1633  0.1503
31478W        W47662   4.163   4.739   0.496 -0.0454  0.2487 -0.0684
31479W        W47663  12.800  10.247   4.167 -0.1701 -0.1441  0.0608
31480W        W47664   2.652  12.686  14.187 -0.1270 -0.0825 -0.0925
31481W        W47665   7.620   9.098   0.506  0.0034 -0.0173  0.2727
31482W        W47666  11.855   4.226  12.288 -0.2318  0.1379 -0.1236
31483W        W47667   4.474   6.079   0.076 -0.1682  0.0844  0.0012
31484W        W47668  12.196  17.346   0.840 -0.0236  0.1799  0.5145
31485W        W47669  15.273  18.383   2.071  0.0841  0.0254 -0.2517
31486W        W47670  10.661   6.170  12.103 -0.1953  0.1875 -0.3564
31487W        W47671  16.623   3.987   4.186 -0.1462  0.0292 -0.0135
31488W        W47672  12.664   8.587   1.395 -0.1578  0.1509 -0.1739
31489W        W47673   2.467   8.770  10.888  0.3863 -0.1882 -0.2295
31490W        W47674  12.632   6.665  10.087 -0.1596 -0.1261 -0.2265
31491W        W47675  12.395  18.878   2.961  0.1155  0.1102  0.0634
31492W        W47676   5.017   6.407  10.876  0.0778 -0.0596  0.2862
31493W        W47677   2.031   8.406   3.983 -0.1030  0.2990 -0.3355
31494W        W47678  11.175   4.780   2.528  0.4078 -0.0341  0.0545
31495W        W47679  12.534   2.218  13.806  0.0082 -0.2767 -0.2136
31496W        W47680  11.946  12.057   2.275  0.0680  0.1819 -0.1640
31497W        W47681  14.883   3.910   1.083 -0.0577  0.1549 -0.0113
31498W        W47682  10.654  17.923  10.332 -0.0477  0.0269  0.0608
31499W        W47683   7.703   2.110   3.278 -0.0238  0.2350 -0.2880
31500W        W47684  15.255   6.419   4.453  0.4948 -0.2889  0.2887
31501W        W47685   6.893  13.942  11.226 -0.4819  0.2712  0.2803
31502W        W47686  19.243   2.885  12.372  0.0093 -0.3825  0.0873
31503W        W47687  11.901   1.995  10.708 -0.1751 -0.2279 -0.5612
31504W        W47688   2.185   8.986   0.813 -0.1225  0.2302  0.0055
31505W        W47689   1.924  17.305  11.608 -0.2254 -0.1751  0.2756
31506W        W47690  14.892  19.190   1.049  0.3551  0.4319 -0.5795
31507W        W47691  11.067  11.342  14.873  0.2591  0.1599 -0.2810
31508W        W47692   4.663  11.273  11.887 -0.2995  0.1110  0.0035
31509W        W47693  16.033   4.117   0.933  0.1687  0.0090  0.3698
31510W        W47694   6.790   8.260  13.855  0.0729  0.0061  0.2042
31511W        W47695  16.870   2.471  12.739 -0.4403 -0.3920 -0.3353
31512W        W47696  13.572   1.209   0.760 -0.1220  0.2779 -0.0790
31513W        W47697   2.479   8.782   1.772  0.3149 -0.1277  0.2481
31514W        W47698  16.902  18.035   2.309 -0.1853 -0.0933 -0.0039
31515W        W47699   6.594  19.044   4.039 -0.0646  0.1390 -0.2683
31516W        W47700   3.679  10.529   0.111  0.2423 -0.3359  0.0624
31517W        W47701  16.789   7.527  13.083 -0.3863  0.0809 -0.1801
31518W        W47702   5.226  17.882   1.527  0.1492  0.4468  0.1233
31519W        W47703  13.884   0.947  13.930 -0.0853  0.1495  0.1328
31520W        W47704   6.071   4.281  12.150  0.2443 -0.1248 -0.2550
31521W        W47705   9.446  18.553  14.822 -0.0666 -0.4188 -0.3697
31522W        W47706   7.578   7.418   1.131 -0.0905 -0.0754  0.0023
31523W        W47707  15.293   3.914   4.139  0.1366 -0.2194  0.0061
31524W        W47708   2.954  10.409   5.870 -0.3650 -0.0611 -0.1473
31525W        W47709   7.944   4.954  13.913 -0.0872  0.1132 -0.0289
31526W        W47710  13.686  10.195  10.121  0.0884 -0.2290  0.1257
31527W        W47711   8.885  10.777   4.152  0.0661  0.3789  0.0352
31528W        W47712   3.024  18.225  10.330  0.1300 -0.0507  0.3229
31529W        W47713   1.376  15.645   3.894 -0.0072  0.2242  0.1483
31530W        W47714  15.147  13.860   4.792 -0.1476 -0.2878 -0.0329
31531W        W47715   5.907  10.100   2.413 -0.1544  0.1499 -0.1258
31532W        W47716   5.026   4.419  12.325 -0.2085  0.0024  0.1694
31533W        W47717  15.102   6.807   9.835  0.0176 -0.0268 -0.1597
31534W        W47718   3.968  14.542   3.980  0.2053  0.1633 -0.1602
31535W        W47719  12.229  18.227   0.574  0.2783  0.1610 -0.0227
31536W        W47720   8.808   8.721   2.354 -0.3015  0.1683 -0.2445
31537W        W47721   1.324  11.387   4.562 -0.0969 -0.2038  0.4349
31538W        W47722   1.119  11.716  14.268 -0.3248 -0.1262  0.0062
31539W        W47723   2.570   7.814  14.367 -0.0946  0.2504 -0.1217
31540W        W47724  14.412   7.845  10.904  0.4481  0.1806 -0.0459
31541W        W47725   6.422  17.820   0.903  0.1822 -0.1404 -0.2289
31542W        W47726  13.362  14.029  11.423  0.0925  0.1638 -0.1465
31543W        W47727   2.487  17.096   3.244 -0.1256  0.1940  0.0036
31544W        W47728   1.061   8.663  13.969 -0.0978 -0.0485  0.0327
31545W        W47729  14.641   3.102  10.047  0.0254 -0.0565  0.5326
31546W        W47730   1.357  13.124  11.089  0.0231 -0.0903 -0.3799
31547W        W47731  11.032  16.793  13.087 -0.0872 -0.1412 -0.1162
31548W        W47732   9.773  16.447   4.249  0.1812 -0.2553  0.2755
31549W        W47733   1.026   1.215  11.552 -0.0221 -0.1913 -0.1926
31550W        W47734  17.083  10.432  14.724  0.3639 -0.1058 -0.0695
31551W        W47735   8.003   5.804   3.647 -0.2199 -0.2085  0.0897
31552W        W47736  16.055   4.202  13.535 -0.1343  0.2076 -0.1254
31553W        W47737   1.755   1.136  12.674 -0.1135 -0.1052  0.0291
31554W        W47738  14.108   6.655   3.151 -0.0011 -0.0150  0.0441
31555W        W47739  15.100   2.621  13.422 -0.3501  0.1395  0.0143
31556W        W47740  16.374  19.113   2.942 -0.0577 -0.1089  0.3234
31557W        W47741   1.524   8.396  11.187 -0.1010  0.1938  0.0832
31558W        W47742  13.144   0.299  11.758  0.1858 -0.2697  0.1796
31559W        W47743  13.389  14.524   2.873  0.2525 -0.1634 -0.0754
31560W        W47744  17.966  10.262  14.106 -0.1974 -0.2302 -0.0235
31561W        W47745  17.346   6.591   4.992 -0.0435 -0.1234 -0.2784
31562W        W47746   6.869  13.201   4.976 -0.1332 -0.2526 -0.1941
31563W        W47747  18.301   7.623  13.213  0.3177  0.1241  0.1677
31564W        W47748  16.189   6.328   2.387  0.0069  0.2275  0.1744
31565W        W47749  18.661  16.007  14.676  0.1702 -0.3745  0.1959
31566W        W47750   2.135  11.826  14.464 -0.0815  0.2409  0.2295
31567W        W47751  14.470   3.795   4.025 -0.2225 -0.1633 -0.0191
31568W        W47752   5.933   5.223   0.600  0.1097  0.1375 -0.1052
31569W        W47753   1.104   2.167  14.177 -0.0884 -0.0761 -0.2235
31570W        W47754   2.029   9.274   1.213  0.0897  0.1187 -0.1097
31571W        W47755   6.632  11.256   2.552 -0.0214  0.1636  0.1045
31572W        W47756   5.583   8.687   2.311 -0.3822 -0.2416  0.0614
31573W        W47757  18.145  15.234  13.433  0.1117 -0.0015  0.2817
31574W        W47758  18.579  15.912  13.880 -0.1612  0.1700 -0.1064
31575W        W47759   9.807  17.274  13.617  0.1433 -0.0740 -0.1609
31576W        W47760  10.751  10.204   2.719  0.0084  0.2001  0.3070
31577W        W47761  14.451  12.719  13.032  0.0266 -0.0693 -0.3129
31578W        W47762   1.485  18.250   4.098  0.1701 -0.2526 -0.1232
31579W        W47763   9.226  10.682   1.566 -0.1314  0.2070 -0.0608
31580W        W47764   4.080   0.849   0.565  0.2636  0.2025  0.3309
31581W        W47765   4.098  11.298  13.339 -0.2002  0.0346 -0.1444
31582W        W47766   9.621   7.826  11.328  0.0722 -0.1369  0.2704
31583W        W47767   2.328  13.608  14.097  0.2883  0.0972 -0.2473
31584W        W47768  11.809   8.743  14.059 -0.0503  0.1646 -0.1590
31585W        W47769   1.480  12.242   1.851  0.1801 -0.0215  0.1835
31586W        W47770  10.474  15.687  12.829  0.0041  0.0947  0.0956
31587W        W47771   9.345  12.386  12.803  0.0582 -0.0872  0.0337
31588W        W47772  15.829   4.634   4.969 -0.0531 -0.0459 -0.0503
31589W        W47773  14.952   0.040  12.785  0.0397 -0.0270 -0.0591
31590W        W47774   8.754   7.769   4.041  0.1172 -0.1403  0.3037
31591W        W47775   5.557   7.857  12.238  0.1464 -0.0425  0.4186
31592W        W47776   5.934   8.654  14.673  0.0719  0.1148 -0.1290
31593W        W47777  17.524   8.221   3.929  0.2191  0.0681 -0.1200
31594W        W47778   5.293  11.894  14.080  0.0756 -0.0518  0.0431
31595W        W47779  18.655  19.167  11.608  0.0393 -0.1811 -0.1760
31596W        W47780  13.739   0.565  12.634 -0.1724  0.1583  0.2517
31597W        W47781  18.243   7.485   3.670  0.0738 -0.2257  0.0244
31598W        W47782  11.786   8.023  12.401  0.1727  0.0100 -0.1677
31599W        W47783  18.925   4.253   4.963  0.2494 -0.2826 -0.1068
31600W        W47784   3.262  17.374  10.979  0.1987  0.0081 -0.1479
31601W        W47785  14.033   6.779  10.316 -0.0940  0.4703  0.3202
31602W        W47786   8.293  12.222   2.019 -0.0618 -0.0328  0.1947
31603W        W47787   9.904   3.789  10.844  0.0411 -0.0016 -0.4424
31604W        W47788  16.207  13.365   3.310 -0.1270 -0.2155  0.1416
31605W        W47789  17.463  16.411  12.866 -0.0096  0.0274  0.0213
31606W        W47790   6.165  17.612   1.469  0.1687  0.1040 -0.0483
31607W        W47791  11.631  19.188   1.770 -0.1260 -0.3560 -0.1612
31608W        W47792   7.083  18.550  12.509 -0.2203 -0.1412 -0.1422
31609W        W47793  12.709   5.307   4.015 -0.0538  0.1437  0.3131
31610W        W47794  18.873  13.957   2.812 -0.0702 -0.1608 -0.0950
31611W        W47795  16.220  10.865   0.065  0.0609 -0.1135  0.0597
31612W        W47796   7.019   1.447   2.514 -0.1417 -0.1376 -0.4017
31613W        W47797  17.922   0.097  12.129 -0.2620  0.2761 -0.1240
31614W        W47798   2.211  17.340   0.273 -0.3039  0.1779  0.4143
31615W        W47799  16.322   7.989   4.505  0.2098  0.1057  0.1778
31616W        W47800   2.527   6.299  14.834  0.1787 -0.1479  0.2094
31617W        W47801   3.470   0.019   0.350  0.0065  0.0715 -0.0550
31618W        W47802  12.893   9.365   0.496  0.1445  0.2543  0.1572
31619W        W47803   2.353   7.642  13.469  0.2199  0.0250 -0.2752
31620W        W47804   7.550   8.728  12.450  0.3762  0.1396 -0.1463
31621W        W47805  12.888  12.264   4.843  0.1054 -0.0719  0.1041
31622W        W47806  15.056   6.682   0.889  0.0932  0.0215 -0.1265
31623W        W47807  11.102  14.200   1.523  0.2037  0.0826  0.0720
31624W        W47808   8.952   4.188  14.969  0.0739 -0.1567 -0.1506
31625W        W47809   1.520  13.776  12.651  0.2050  0.0394  0.2147
31626W        W47810  18.702  15.253   1.984  0.4541  0.4174  0.1602
31627W        W47811   5.399  10.708   1.002  0.1741  0.3142 -0.2856
31628W        W47812   9.116   3.820  14.585  0.0019 -0.1203 -0.2811
31629W        W47813  10.253  16.582   3.421  0.1328  0.3949  0.0653
31630W        W47814   1.874   3.901  12.425  0.0459  0.1328  0.2529
31631W        W47815  10.771  16.672   2.467  0.3102 -0.0340 -0.1498
31632W        W47816  14.759   8.542  13.656 -0.2711  0.1461 -0.3352
31633W        W47817   7.289   8.547   0.068 -0.1128  0.1426  0.3224
31634W        W47818  12.736   3.898   2.552 -0.1752 -0.0618  0.0352
31635W        W47819   2.942  18.395   4.830  0.2496 -0.0226 -0.1509
31636W        W47820   6.932  18.132   4.322  0.0324  0.1199  0.4287
31637W        W47821  14.170   0.283  11.914 -0.2314 -0.3330  0.1387
31638W        W47822  13.766  17.895   0.937 -0.1296 -0.0057 -0.0136
31639W        W47823   2.756   5.010   1.509  0.1391 -0.0758  0.3592
31640W        W47824  18.602   2.760   2.446 -0.1141 -0.0798  0.1584
31641W        W47825   3.497  16.270  10.286  0.2545  0.2671  0.0129
31642W        W47826  11.314   8.688   0.756  0.2787 -0.1901 -0.0366
31643W        W47827  17.692   9.312  12.226 -0.0875 -0.0877  0.0554
31644W        W47828   1.106  11.912  14.747  0.0161  0.2742 -0.1692
31645W        W47829  13.959  11.221   4.362 -0.3823  0.2823  0.0349
31646W        W47830   7.354  12.467   0.379  0.2934 -0.2047  0.2945
31647W        W47831   8.282  18.995   0.486  0.0664  0.2536 -0.2049
31648W        W47832  10.515   0.758   1.605  0.1721  0.4872 -0.2772
31649W        W47833   0.996  15.689  13.792 -0.0027  0.0809  0.1712
31650W        W47834   7.976   1.018   0.324 -0.2194 -0.2115 -0.0565
31651W        W47835   8.653   8.771   1.166 -0.4560 -0.0972  0.0731
31652W        W47836   8.108  14.839  12.542 -0.2374 -0.1013 -0.0913
31653W        W47837  16.464   5.338   4.795  0.0732  0.1933  0.1206
31654W        W47838  14.792  16.014   4.517  0.0041  0.1837 -0.0206
31655W        W47839   4.176   0.035   4.421  0.2107  0.1624 -0.1707
31656W        W47840  17.562   3.815  12.983  0.1358 -0.0606 -0.0493
31657W        W47841  14.196   5.574   2.551  0.2895 -0.0576 -0.0196
31658W        W47842   8.520  14.687  14.007 -0.0230  0.1836 -0.0729
31659W        W47843   3.355   9.635  11.587 -0.1645  0.4111  0.0904
31660W        W47844  17.114   1.058   1.054  0.2788 -0.5051  0.0217
31661W        W47845   7.230  18.145  14.511  0.0036  0.0616  0.1215
31662W        W47846  19.066  13.447  12.210  0.0249 -0.1572 -0.0699
31663W        W47847  12.286  14.204  10.708 -0.1807  0.3401  0.0800
31664W        W47848  10.620  18.344  13.870 -0.1180  0.2801 -0.0594
31665W        W47849   4.957  16.617   3.854 -0.0377  0.3424  0.0468
31666W        W47850   3.101   9.713   4.484  0.2336 -0.3420  0.2234
31667W        W47851  14.909   4.412   4.710  0.1354 -0.1202 -0.1431
31668W        W47852   5.459  14.664   0.538 -0.1972 -0.2827  0.2255
31669W        W47853   3.959  13.083   3.113 -0.1710 -0.0080 -0.1327
31670W        W47854   5.064  18.128   4.149 -0.2771 -0.0971 -0.1301
31671W        W47855   4.116  16.497  13.306  0.0580 -0.1093  0.0182
31672W        W47856  15.915   5.554  13.288 -0.0276 -0.0903 -0.0154
31673W        W47857   4.171  13.683   1.854  0.0679 -0.1525 -0.0382
31674W        W47858  11.928   8.556  13.585  0.1836  0.1167  0.0904
31675W        W47859   4.910   7.686   0.827 -0.1063 -0.0249 -0.2895
31676W        W47860  17.716  18.370   3.169 -0.1231 -0.1397  0.0347
31677W        W47861  16.795   3.880   0.202 -0.1164 -0.1342  0.1456
31678W        W47862  19.065   7.640  12.786  0.2365  0.0421  0.1237
31679W        W47863  11.844   9.046  10.414 -0.1729  0.1513 -0.1934
31680W        W47864   4.132   2.362   1.930 -0.0068 -0.0108  0.4134
31681W        W47865  14.364   7.815  10.115  0.0036  0.2622  0.0714
31682W        W47866   1.985   3.595   4.199 -0.0407  0.1017 -0.0737
31683W        W47867   5.990  14.895  14.065  0.0021 -0.1661 -0.0723
31684W        W47868   5.039   7.651   1.464  0.3635 -0.1431  0.0800
31685W        W47869  10.143  14.612   3.584  0.0268 -0.2337 -0.2823
31686W        W47870   2.556   9.443  10.650 -0.1537 -0.0282  0.0184
31687W        W47871  14.590  18.741   9.842  0.2383 -0.5894 -0.2501
31688W        W47872  18.002   5.512   3.774 -0.2253 -0.1966 -0.0413
31689W        W47873   2.726  18.522   0.698  0.3378  0.4407  0.2728
31690W        W47874   1.051  18.270   0.120  0.1054 -0.1746  0.0617
31691W        W47875  13.202  16.186   1.542 -0.1138 -0.0894 -0.0545
31692W        W47876   5.741  13.120  12.187  0.1468  0.0148  0.1457
31693W        W47877  14.274   6.053  12.617 -0.0742  0.1052 -0.0496
31694W        W47878   7.520   4.261  13.508 -0.1850 -0.0116  0.2296
31695W        W47879  12.614  15.104   3.094  0.2211  0.2091  0.4026
31696W        W47880   2.619   2.735   1.547  0.1873  0.2663 -0.1691
31697W        W47881  10.795  17.277  12.346 -0.1525  0.1060 -0.3599
31698W        W47882  11.131  11.811   3.836 -0.0810 -0.0569  0.3101
31699W        W47883  14.268  15.996   3.749  0.1171  0.0213  0.4136
31700W        W47884   6.740  16.843   5.047  0.1618  0.3013 -0.0374
31701W        W47885   6.641   2.233  10.725  0.0266  0.1147 -0.1648
31702W        W47886  16.377   8.405   0.610  0.2936 -0.0819  0.1093
31703W        W47887   4.656  13.459   3.540 -0.4435 -0.2861  0.1009
31704W        W47888  16.184  16.817   4.417 -0.0572 -0.2384 -0.1039
31705W        W47889  18.794   5.114  12.560 -0.2631 -0.2256 -0.2093
31706W        W47890  18.773  16.315   2.289  0.0248  0.2567 -0.0038
31707W        W47891   2.608   4.890  13.423  0.1330  0.0699  0.1629
31708W        W47892  12.976   7.929   2.049 -0.1190 -0.1524  0.1378
31709W        W47893  17.938   3.969   4.703 -0.0652  0.0097  0.0679
31710W        W47894   0.659  14.382  12.739  0.3788  0.1602 -0.2251
31711W        W47895   9.571   8.180  10.966 -0.0491  0.3039 -0.2328
31712W        W47896   6.311   4.271  10.525  0.1550 -0.2703 -0.1696
31713W        W47897   7.659   9.566   2.769  0.1917  0.0765 -0.0282
31714W        W47898   4.269   2.010   4.402 -0.0101  0.2322  0.1413
31715W        W47899  12.738   8.245  13.343 -0.1257 -0.2058 -0.2405
31716W        W47900  10.100   0.012   2.463  0.2277  0.3810  0.1278
31717W        W47901   0.007   0.742  12.967  0.0546  0.3073 -0.1008
31718W        W47902  13.821  14.927   0.711  0.3121 -0.0616  0.3606
31719W        W47903   5.325   5.746   3.332 -0.0326 -0.1734 -0.1172
31720W        W47904  16.606  14.688   2.459 -0.0489 -0.0737 -0.1901
31721W        W47905   1.716   1.208  14.942  0.0051  0.0928 -0.0598
31722W        W47906   4.557   8.984  13.230 -0.1583  0.1477  0.0488
31723W        W47907  15.754  17.292  11.533  0.3941  0.1816 -0.2709
31724W        W47908   2.829   4.040  10.542 -0.0798  0.1117  0.2170
31725W        W47909   0.696  10.166   1.017 -0.1893 -0.3637 -0.0135
31726W        W47910  12.340   0.336  10.567 -0.1086 -0.1592 -0.2969
31727W        W47911   2.769   7.527  10.445 -0.1184 -0.2562  0.1924
31728W        W47912  10.404   7.119   0.329 -0.0364  0.3860  0.1022
31729W        W47913  16.992   9.755   1.195  0.0265  0.2853 -0.2259
31730W        W47914  15.910  13.605   0.922  0.1809  0.2746  0.0265
31731W        W47915   3.961  18.475   5.139 -0.0651  0.1094 -0.2464
31732W        W47916  11.714   0.106   3.824 -0.0643  0.1355  0.1996
31733W        W47917   6.058   8.494   2.477 -0.0865  0.0077  0.0180
31734W        W47918  10.663  16.809  11.646  0.2651 -0.1231 -0.0362
31735W        W47919   5.416   3.806  14.382 -0.1675 -0.0719  0.3244
31736W        W47920   9.827  12.396  12.560  0.2240 -0.0902  0.1888
31737W        W47921   3.374  17.003   0.562 -0.1127 -0.0320  0.3926
31738W        W47922   0.165   7.558   5.285  0.1673 -0.2815 -0.0180
31739W        W47923   2.841   6.616   2.241 -0.1715 -0.0375  0.2309
31740W        W47924   4.318   0.497   1.350 -0.4526 -0.1540 -0.0496
31741W        W47925  19.187  17.858   4.479  0.3246  0.1299  0.0882
31742W        W47926  18.216  17.832  14.285 -0.1096 -0.4890  0.2236
31743W        W47927  14.536   1.348   3.867 -0.0160  0.1854 -0.0729
31744W        W47928  16.992  16.466  11.411 -0.1500 -0.2903 -0.1061
31745W        W47929  10.163  15.039  13.412 -0.0231  0.1302  0.0781
31746W        W47930  13.662   8.544   2.106 -0.0351  0.0771 -0.2151
31747W        W47931  13.754  16.280   3.586  0.2211 -0.1817  0.1327
31748W        W47932   6.711  14.675  13.527  0.1180 -0.1810  0.4249
31749W        W47933  16.935  13.409   1.052 -0.2193  0.0614 -0.0468
31750W        W47934   0.429   8.480   3.806 -0.1984  0.0148 -0.1607
31751W        W47935   9.791  14.689   1.036  0.1259 -0.0474  0.2746
31752W        W47936   3.672  11.372   1.615 -0.1522  0.0260 -0.1309
31753W        W47937   6.005   7.443   2.285  0.0785 -0.1184 -0.0028
31754W        W47938  11.530  15.226   2.491 -0.1650  0.0542  0.0147
31755W        W47939  14.892   5.840  13.032 -0.3653  0.2596  0.0633
31756W        W47940  15.625   2.816   2.932 -0.4457 -0.0092 -0.3368
31757W        W47941   7.244  16.381  12.906 -0.0734  0.3167 -0.1219
31758W        W47942   9.818  17.793  13.536  0.2613  0.0683 -0.3990
31759W        W47943  18.491  17.262  11.419  0.0448 -0.1308 -0.1737
31760W        W47944  10.846  11.110  12.451  0.0506  0.3054 -0.1082
31761W        W47945   7.293   0.976   3.157  0.0164 -0.2064  0.0428
31762W        W47946   2.914  15.729  14.698  0.0584  0.3721 -0.2601
31763W        W47947   8.021  12.846   3.083 -0.3205 -0.4087  0.1091
31764W        W47948  17.445   2.195   1.579 -0.1959  0.1343 -0.0412
31765W        W47949   6.575  14.196   1.922  0.1791 -0.0721 -0.1556
31766W        W47950   8.528  14.411  11.861  0.1414 -0.2887 -0.0204
31767W        W47951  11.345   5.081  12.656  0.1687 -0.3779  0.2181
31768W        W47952   6.666   2.281   0.021  0.1497 -0.1994  0.1269
31769W        W47953  12.608   0.300   4.923  0.1738  0.0176  0.3228
31770W        W47954   0.335   1.478   0.738  0.0234  0.0801 -0.0164
31771W        W47955  10.349   7.555   4.006  0.0953 -0.0347 -0.2246
31772W        W47956   7.874  13.563  13.236  0.0876  0.0106  0.0950
31773W        W47957   1.338  14.598  13.845  0.0261 -0.2777  0.0833
31774W        W47958   0.380   9.711   3.290  0.3307  0.6796  0.1270
31775W        W47959   6.709  17.353   1.634  0.2244 -0.0916  0.2061
31776W        W47960  13.821  14.027   0.129 -0.0113 -0.1054 -0.0290
31777W        W47961  14.906  11.367   4.168  0.1787  0.2547 -0.3242
31778W        W47962  11.745   7.205   2.158 -0.1437 -0.0229 -0.1270
31779W        W47963   9.389   1.068  11.565 -0.2687  0.0433  0.1892
31780W        W47964  18.085   9.651  11.372  0.0524  0.1137  0.0658
31781W        W47965  14.058   0.474   1.048  0.1285 -0.0160  0.7136
31782W        W47966  17.333   6.063  10.840  0.3019 -0.1828 -0.1451
31783W        W47967  16.070  14.660   0.848  0.3940  0.1133 -0.1379
31784W        W47968  14.707  12.998  12.207  0.0181 -0.0213 -0.1952
31785W        W47969   1.950   9.260   2.301  0.2334 -0.2595 -0.2688
31786W        W47970  17.915   0.332  13.837  0.1384 -0.2298  0.0765
31787W        W47971  14.813   6.285  11.771  0.3666 -0.1026 -0.0417
31788W        W47972  12.490   6.147   2.574  0.1536  0.1531  0.0638
31789W        W47973  13.810   8.536  13.534 -0.0370 -0.2810 -0.0962
31790W        W47974  10.220  18.758  14.188  0.0886 -0.2960  0.1761
31791W        W47975  14.863  13.890   3.789 -0.3933  0.2655  0.3352
31792W        W47976   1.040  15.879   0.610  0.0767 -0.3883  0.3530
31793W        W47977   8.163   6.952   1.622  0.0536  0.0584  0.1414
31794W        W47978  15.224   2.681   0.519  0.1613  0.1967  0.0654
31795W        W47979   6.807   5.264  12.309 -0.2388  0.0363  0.0731
31796W        W47980  15.350   5.211  10.074  0.1643 -0.1823 -0.0801
31797W        W47981   9.675   7.081  12.813 -0.0440  0.4894  0.1115
31798W        W47982  13.373  12.613   2.043 -0.3028 -0.0974  0.0281
31799W        W47983   9.566  18.546   0.870 -0.1889  0.3720  0.1012
31800W        W47984   5.157   9.254   3.744 -0.0274  0.0492 -0.0349
31801W        W47985  19.351   9.588  12.265  0.1276  0.1269 -0.2975
31802W        W47986  11.416   7.191  13.365 -0.2682 -0.1341 -0.2872
31803W        W47987  18.847   3.087   1.513 -0.3762  0.0259  0.1608
31804W        W47988   3.730   4.929   2.573 -0.1654 -0.2052 -0.0987
31805W        W47989   8.183   6.162   9.849 -0.2948 -0.0065 -0.1789
31806W        W47990  17.483   5.867   0.446 -0.0338  0.2888 -0.2362
31807W        W47991  13.409  18.942   3.297  0.4039 -0.2336  0.0152
31808W        W47992  12.097   8.358  13.157  0.2088 -0.1076  0.2132
31809W        W47993   9.697   5.636  11.681  0.2507  0.0148  0.1320
31810W        W47994  12.119   8.494   2.716  0.1078 -0.0914  0.1863
31811W        W47995   0.623   9.551  12.802 -0.1024  0.0820 -0.1101
31812W        W47996  16.418  11.006  13.691  0.2269 -0.0475  0.3602
31813W        W47997   2.085  17.856   4.326 -0.0487  0.0140 -0.0313
31814W        W47998   9.315   9.677  11.685  0.2485 -0.0735  0.2404
31815W        W47999  12.254   7.593   0.525  0.0011  0.0170  0.2037
31816W        W48000  10.629  13.175   2.846  0.1765 -0.2235 -0.1640
31817W        W48001   6.192  10.418  12.553 -0.0761 -0.2976  0.0674
31818W        W48002  13.338  17.434   4.852 -0.0727  0.0005 -0.0588
31819W        W48003  15.015   8.058   2.145  0.0732  0.2745 -0.0834
31820W        W48004   6.744   3.652   2.466 -0.0772 -0.1622 -0.0225
31821W        W48005   9.258   9.668   4.988 -0.1330 -0.0353  0.2435
31822W        W48006  16.682  16.245   9.999  0.2993 -0.0409 -0.1196
31823W        W48007   9.765  15.977  13.569 -0.1156  0.0292  0.0248
31824W        W48008   8.483  13.468   4.396  0.3212  0.0804 -0.3133
31825W        W48009  13.756   5.629  13.589 -0.1446 -0.2477  0.0259
31826W        W48010   5.559  17.039  13.440 -0.4061  0.0595 -0.0107
31827W        W48011   6.142   5.194   4.329  0.0727  0.4187  0.0728
31828W        W48012   4.832   7.683  13.043 -0.3259 -0.0580  0.0306
31829W        W48013  13.048   3.751   1.739  0.0425 -0.2474  0.2843
31830W        W48014   8.664  11.190  12.597 -0.2030  0.1327 -0.0453
31831W        W48015   1.562   3.929  12.850 -0.0889  0.3643 -0.2148
31832W        W48016   7.815  11.765   0.150  0.0487 -0.1065  0.0762
31833W        W48017  11.935  14.877   1.515  0.0402  0.0490 -0.0856
31834W        W48018   6.329   8.877  13.132  0.0480 -0.1303 -0.3280
31835W        W48019  17.076  14.415  14.719  0.3313 -0.2901 -0.2926
31836W        W48020   9.471   6.653  13.125  0.2022 -0.0909  0.0461
31837W        W48021  15.489  15.079   2.897 -0.0878 -0.1144 -0.2360
31838W        W48022   4.919   1.890   9.300 -0.0326  0.0076  0.2492
31839W        W48023   0.387  17.487   2.343  0.0647  0.3238 -0.0113
31840W        W48024  14.456   5.200  13.738  0.1874  0.1046 -0.1015
31841W        W48025  14.464   6.665  14.510  0.0408  0.1087  0.2088
31842W        W48026  17.728  15.395   1.984 -0.2926 -0.1441  0.1115
31843W        W48027   0.032  13.730  11.958  0.3155 -0.2631 -0.2541
31844W        W48028   1.686   1.586   0.335 -0.0616  0.2752  0.0074
31845W        W48029   8.961  16.237  12.671  0.1827 -0.0468  0.1160
31846W        W48030  17.858  12.412   2.210 -0.0074 -0.2442 -0.2680
31847W        W48031   6.572   3.169   0.772  0.2561 -0.4316 -0.2173
31848W        W48032  12.321   4.246   1.036  0.5480  0.1671  0.1705
31849W        W48033   8.691   2.492  10.825 -0.0699 -0.5114 -0.0011
31850W        W48034   0.040   7.549  11.573 -0.2040 -0.0633 -0.2229
31851W        W48035  17.869  17.742   4.494  0.2529 -0.0447 -0.0109
31852W        W48036   0.073  16.602  10.728 -0.1446 -0.2668  0.0394
31853W        W48037   5.302   4.118  12.609 -0.2002  0.3204 -0.2070
31854W        W48038   1.450   2.861   1.553 -0.2242 -0.3076 -0.1895
31855W        W48039   1.851   8.762  11.032 -0.1338 -0.1689  0.1006
31856W        W48040   7.067  10.961   4.986  0.2977  0.1702 -0.2334
31857W        W48041  11.869   7.514   3.440 -0.2909  0.1564 -0.0322
31858W        W48042  14.133  13.977   4.395 -0.2295  0.0052  0.2486
31859W        W48043   8.050  10.484  11.752 -0.4330  0.3470  0.1972
31860W        W48044   1.732   8.235   1.587 -0.0140 -0.2427  0.0766
31861W        W48045  17.324  19.097   0.965  0.3818 -0.0496 -0.0276
31862W        W48046   0.141   1.664  14.330  0.0044  0.0547 -0.1311
31863W        W48047   3.290  15.186  10.666 -0.1688 -0.0361 -0.0152
31864W        W48048  11.485  14.871  12.786  0.1052  0.1678  0.2497
31865W        W48049  15.971  13.821   3.436  0.5290 -0.0035  0.1165
31866W        W48050  10.327  14.162   2.710  0.1880  0.2786 -0.2802
31867W        W48051  15.752  12.766  11.407  0.3403 -0.3104 -0.0305
31868W        W48052   3.479   4.317   2.317  0.1854  0.0015 -0.1266
31869W        W48053  10.777  14.242   4.220  0.0208  0.1131  0.1203
31870W        W48054   7.795   5.432  10.937 -0.0159  0.1459 -0.1454
31871W        W48055   0.979   0.367  12.250  0.2268  0.1859 -0.0642
31872W        W48056  14.552  16.856   0.944 -0.0628 -0.1870  0.0204
31873W        W48057  17.697  11.689  14.305  0.1713 -0.0905  0.1379
31874W        W48058  13.676   7.561  14.818  0.0232 -0.0112  0.1441
31875W        W48059   7.847   4.913   3.575  0.3238 -0.4327  0.3152
31876W        W48060  16.642   7.489  14.245 -0.0106 -0.4362  0.1910
31877W        W48061  15.445   1.688  10.726 -0.0907 -0.0303  0.1636
31878W        W48062  19.256  17.433  10.791 -0.1080  0.1315 -0.0887
31879W        W48063   6.756  11.805  12.957  0.0440 -0.1881  0.1730
31880W        W48064   7.437   1.604  12.424  0.0669 -0.1409  0.0163
31881W        W48065   2.613  10.200  14.268  0.1041 -0.0183  0.0707
31882W        W48066   9.154   5.271  14.167 -0.1197 -0.1328 -0.0838
31883W        W48067   5.421   0.666  10.892 -0.1390 -0.1287  0.0167
31884W        W48068   9.514  17.756   4.098 -0.1413 -0.1386  0.2573
31885W        W48069  14.868   1.936  13.890  0.3752  0.1854  0.1965
31886W        W48070   4.645  15.839  11.134 -0.0037 -0.1454 -0.1512
31887W        W48071   8.972  15.070   1.353  0.0023 -0.0146  0.0124
31888W        W48072  10.709   9.339   4.080  0.1695 -0.0005  0.2235
31889W        W48073   9.595  18.645  12.058  0.0738 -0.1413 -0.0292
31890W        W48074  12.745  11.850   9.304  0.0294  0.0236  0.1995
31891W        W48075  16.696  13.900  14.005  0.2782  0.0303  0.1281
31892W        W48076   4.380   3.356  11.499 -0.1616 -0.4610 -0.0286
31893W        W48077  11.455   8.636  14.917  0.1076  0.3312  0.0664
31894W        W48078   8.485   1.137  11.702  0.0689  0.0099 -0.0816
31895W        W48079  10.616   7.142   3.819 -0.0081  0.2731  0.0572
31896W        W48080  14.039  19.342   2.300  0.0314  0.1667 -0.0955
31897W        W48081   9.631  11.827   2.058 -0.1365  0.0317  0.0620
31898W        W48082   5.788  10.061   1.731 -0.2033  0.0005 -0.2043
31899W        W48083   9.270  14.905  11.561  0.4977 -0.0654  0.0440
31900W        W48084   5.694  15.017  13.702 -0.1057 -0.1760 -0.0356
31901W        W48085  19.192   9.360  11.289 -0.0100  0.1635  0.0073
31902W        W48086  12.429  13.814   5.716  0.0725  0.0474 -0.2449
31903W        W48087   1.606   1.131   2.815 -0.0366 -0.1495  0.0005
31904W        W48088   9.751   6.114  11.888  0.0434 -0.1975 -0.1895
31905W        W48089   3.947  16.984  14.565  0.0781 -0.0189 -0.0814
31906W        W48090   5.173   9.969   0.691  0.0788  0.0456 -0.0410
31907W        W48091  12.928  16.351  12.978 -0.2624 -0.3375  0.1490
31908W        W48092  14.146  17.049  13.287 -0.2298  0.1881  0.1326
31909W        W48093   1.163  17.995   4.362  0.1514  0.1383 -0.1224
31910W        W48094  16.944  10.111  13.621 -0.0155  0.0619 -0.1022
31911W        W48095   7.047   7.414  13.907 -0.0676  0.0470 -0.3672
31912W        W48096   5.320   0.951  14.981  0.2528  0.4162  0.0008
31913W        W48097  11.330  19.031   2.907 -0.0812 -0.3513  0.2916
31914W        W48098   6.017  13.168  11.758 -0.1464 -0.1601 -0.3053
31915W        W48099   5.155   2.853  13.566 -0.2007  0.0073  0.0603
31916W        W48100   3.560   0.561   4.815 -0.2405 -0.2169  0.0183
31917W        W48101   1.053  17.592  11.440  0.2743 -0.0154  0.1902
31918W        W48102   9.850   1.734   3.401  0.0109  0.0105  0.1104
31919W        W48103   4.212  18.322  13.827 -0.0459 -0.3562  0.0900
31920W        W48104   0.274   5.252   1.429 -0.0487 -0.2677 -0.0140
31921W        W48105  15.685   4.204  12.299  0.0095 -0.0855 -0.0549
31922W        W48106   8.850   3.126  11.933 -0.2634  0.2607 -0.1969
31923W        W48107  14.326  11.539   2.224  0.0984  0.1752  0.1347
31924W        W48108  13.247  10.322  12.625 -0.2144  0.2123 -0.1467
31925W        W48109   1.527   5.455   1.259 -0.1475  0.1892  0.1077
31926W        W48110   2.087  17.400  13.869  0.1274  0.0883  0.0473
31927W        W48111  19.099   0.629   0.664 -0.1839 -0.0495 -0.0210
31928W        W48112   4.379   5.568  13.388  0.0858  0.1403  0.1925
31929W        W48113  13.103  11.342   1.731 -0.0228 -0.0720  0.0617
31930W        W48114   8.040   3.152   0.051  0.1328  0.3581 -0.1198
31931W        W48115   4.472   9.866   2.143  0.2853 -0.2496  0.0741
31932W        W48116   2.982   2.129   4.968  0.0691 -0.0080  0.0002
31933W        W48117   6.017   0.950   2.107 -0.0731 -0.1849  0.3572
31934W        W48118  16.353  18.161   3.260 -0.0051 -0.1516 -0.0969
31935W        W48119   8.715  18.543  14.087  0.1660  0.0705 -0.2369
31936W        W48120  17.209   3.716   5.297  0.1002 -0.1962  0.1568
31937W        W48121   5.606   2.380   0.490 -0.1492 -0.2306  0.1649
31938W        W48122   1.369  15.199   3.575 -0.0370 -0.1242  0.0824
31939W        W48123  10.227   6.118  11.131  0.2672  0.1760 -0.1286
31940W        W48124   4.177   3.232   2.327 -0.1447  0.0721  0.0295
31941W        W48125  15.342   1.001  11.157  0.0026 -0.3288  0.0852
31942W        W48126   2.995  11.495  14.576  0.2898 -0.1949  0.3522
31943W        W48127   2.379  12.174  10.507  0.0555 -0.0101 -0.1900
31944W        W48128   5.321   6.366  13.631 -0.1702  0.0618 -0.0725
31945W        W48129  15.324  15.785  12.026  0.4824 -0.1061  0.1577
31946W        W48130   8.894  15.961  13.684  0.0739  0.1240 -0.2315
31947W        W48131   9.928  11.206   4.667 -0.0601 -0.3257  0.1970
31948W        W48132   4.622   7.897   3.324  0.3636 -0.3400 -0.0457
31949W        W48133   7.941  13.512   1.506  0.2278  0.1994  0.2533
31950W        W48134   1.941  12.011  13.082  0.1035  0.0384  0.0297
31951W        W48135  17.513   3.216  10.965  0.2692 -0.1326  0.3301
31952W        W48136   7.886  18.978  13.388 -0.1058 -0.1947  0.0197
31953W        W48137   7.826  18.604   0.351  0.2085 -0.0861 -0.1984
31954W        W48138   1.038  14.620  11.308  0.0144 -0.0627  0.0914
31955W        W48139   1.680   5.773  14.027  0.1717  0.1581 -0.0004
31956W        W48140   4.844  13.269  12.380  0.0650 -0.0678  0.2191
31957W        W48141   7.488   1.496   4.864 -0.1177  0.1988  0.2138
31958W        W48142   1.514  14.822   4.433 -0.2169  0.1793  0.2398
31959W        W48143  10.780   7.205   3.295 -0.1811 -0.0145  0.2321
31960W        W48144   2.770   4.481  14.672  0.0690  0.4719  0.1795
31961W        W48145  14.938   8.664   2.444 -0.0823 -0.0325 -0.1128
31962W        W48146  12.966  14.804   1.120 -0.3031 -0.0181  0.0864
31963W        W48147  17.554   4.281  13.213  0.2231  0.0136  0.2172
31964W        W48148  13.510   0.050  14.528  0.0975 -0.0479  0.2368
31965W        W48149  10.541   5.185   1.440  0.3248 -0.0564 -0.0899
31966W        W48150   0.186   1.876  11.664  0.2473  0.2667  0.2425
31967W        W48151   1.371   1.387   1.689 -0.2290  0.2857  0.2400
31968W        W48152  15.034  17.796  11.966  0.0745  0.1729  0.1308
31969W        W48153   0.258  14.669   2.739  0.0760 -0.0223 -0.0409
31970W        W48154   8.816  10.193  12.283  0.0111  0.0583 -0.1041
31971W        W48155   0.702   2.785  10.931  0.0327 -0.1165  0.2968
31972W        W48156  15.434  18.105  12.095 -0.3543  0.4351  0.0315
31973W        W48157   2.925  14.323  12.013  0.2439 -0.0544  0.2135
31974W        W48158   8.080   0.181   2.398 -0.0091 -0.2161  0.2293
31975W        W48159   6.384  14.685  10.624 -0.0791  0.1567  0.1166
31976W        W48160   4.579  16.288  14.590  0.0195  0.0843  0.0510
31977W        W48161  18.355   3.255  11.268  0.1076  0.1873 -0.0206
31978W        W48162  16.099   0.336   2.554  0.2462  0.0298  0.2884
31979W        W48163   7.361  16.141   0.658 -0.1714  0.3453 -0.1122
31980W        W48164   7.085  18.132  10.347  0.0500 -0.2684 -0.3384
31981W        W48165  17.632  18.138  11.766  0.1323  0.2040  0.3646
31982W        W48166   6.123   6.171  13.023 -0.0307  0.2338  0.2810
31983W        W48167   4.231   1.634  13.318 -0.1705  0.0785  0.0588
31984W        W48168   8.719   4.270   3.979  0.0237 -0.2027  0.2879
31985W        W48169   5.855   6.479  13.388  0.0179 -0.0578  0.1292
31986W        W48170   4.769  12.874   3.645  0.0230  0.1167 -0.2401
31987W        W48171  18.173  14.131   1.440 -0.1232  0.2145  0.0384
31988W        W48172   0.450  10.901  13.298 -0.0499 -0.1084 -0.0247
31989W        W48173  18.887   5.400  11.237  0.4049 -0.0502 -0.0596
31990W        W48174   7.638  13.023  14.069 -0.3414 -0.2633  0.1920
31991W        W48175   9.337   9.324   4.197 -0.2494 -0.1654 -0.3089
31992W        W48176  11.625   6.508   2.829  0.2127  0.3357  0.2779
31993W        W48177  18.829  12.284   5.758  0.1485  0.1040  0.0668
31994W        W48178   9.262   2.652   1.444 -0.0199 -0.0704  0.1764
31995W        W48179   0.031   4.245   3.376  0.3441  0.0322 -0.0972
31996W        W48180  12.756  11.510  10.905  0.0932 -0.3334  0.0917
31997W        W48181   3.922   0.168   0.593  0.2100 -0.0562 -0.0582
31998W        W48182   6.060  16.824  14.120  0.3035 -0.0977 -0.0450
31999W        W48183   3.249   2.719   3.542  0.2145 -0.2534  0.3118
32000W        W48184  12.957  15.246   0.919  0.1171  0.3185  0.3937
32001W        W48185   4.729  11.812  12.098  0.0395  0.0431  0.2688
32002W        W48186   2.642   2.869  10.412  0.1310  0.2445  0.0091
32003W        W48187  19.176  19.158   1.291  0.0985  0.2517  0.0624
32004W        W48188   5.427   1.851  11.836  0.0314  0.2346  0.1681
32005W        W48189   9.000  17.129   4.360  0.0856  0.1878  0.3687
32006W        W48190   5.731  16.261  12.243 -0.1879 -0.3493  0.1293
32007W        W48191   0.615  19.044  10.964 -0.1111  0.2201  0.0389
32008W        W48192   4.711  10.906   1.614  0.3143 -0.1169  0.3134
32009W        W48193   0.324  18.962  11.658 -0.1103 -0.3059 -0.2705
32010W        W48194   2.690  10.121  10.919 -0.1668  0.0296 -0.1024
32011W        W48195  10.844  10.015   1.304 -0.2420 -0.1631 -0.1465
32012W        W48196   2.090   1.259   0.482  0.0943 -0.3677 -0.2052
32013W        W48197  13.273  15.319  13.973 -0.1373 -0.1700 -0.2929
32014W        W48198  17.149  18.309   0.190 -0.2466 -0.2221  0.2625
32015W        W48199   3.631   9.310   2.249  0.4883 -0.2913 -0.0977
32016W        W48200   0.827  12.629   4.086 -0.0943  0.0056 -0.1759
32017W        W48201   4.509   1.892   0.725 -0.0561 -0.0272 -0.0362
32018W        W48202   1.769   5.852   4.705 -0.0234  0.3106 -0.0120
32019W        W48203   1.477  14.623   5.431 -0.1006 -0.0905 -0.1416
32020W        W48204   5.298  11.990  13.531 -0.1751  0.2835 -0.1912
32021W        W48205   3.165  11.218   4.623  0.0200 -0.0751  0.1585
32022W        W48206  13.352   2.611  12.397  0.2490  0.0867  0.2713
32023W        W48207   7.052  13.418   3.860  0.0115  0.1583 -0.1743
32024W        W48208   3.645   7.571  11.448 -0.0063 -0.1411 -0.2320
32025W        W48209   8.979   0.887   5.642 -0.1850  0.0295  0.0945
32026W        W48210   9.859   8.183  11.558 -0.1487  0.0442 -0.1379
32027W        W48211  10.250   4.291   2.742 -0.2781 -0.2949 -0.0098
32028W        W48212  15.711  17.180  10.236 -0.1427  0.1790 -0.0184
32029W        W48213   7.257   2.097  14.424  0.1320 -0.1443  0.0784
32030W        W48214   9.095  10.280  13.143 -0.1188 -0.5027 -0.3793
32031W        W48215   0.933  10.917  11.718  0.1397  0.0954  0.0462
32032W        W48216   9.151   6.340   3.136 -0.0321  0.1789 -0.2297
32033W        W48217   2.911   4.856   1.983  0.0849 -0.1014  0.2373
32034W        W48218  10.522   1.528   4.077 -0.0812 -0.0578 -0.1582
32035W        W48219   3.547  10.375  11.898  0.0377 -0.1359  0.2393
32036W        W48220  10.964   5.163   4.644  0.0441  0.1417  0.1832
32037W        W48221  15.881  11.255   5.121  0.2494 -0.1785  0.1745
32038W        W48222   9.817   3.760  13.411  0.0220  0.1032  0.0211
32039W        W48223  11.674   5.906  13.522 -0.2110  0.0887 -0.6457
32040W        W48224  16.957   9.147   1.869  0.0475 -0.3510  0.0012
32041W        W48225   1.120  16.459  13.732  0.1851  0.3132 -0.1278
32042W        W48226   6.196  17.071  11.737  0.1258 -0.1305 -0.1024
32043W        W48227  10.712   2.285  12.463  0.0554 -0.1321 -0.0988
32044W        W48228   9.981  11.374   2.797  0.1530  0.0719 -0.0099
32045W        W48229  13.939  13.960  12.337  0.0650  0.0756 -0.0217
32046W        W48230  10.012   7.496  12.714  0.1216  0.0054 -0.2150
32047W        W48231  12.443  19.097  14.756 -0.1138  0.1519 -0.0607
32048W        W48232   2.055   1.337   3.568  0.0912 -0.1388  0.1798
32049W        W48233  13.525  10.896  12.742  0.0047  0.1222 -0.1038
32050W        W48234  11.509  16.490  11.239 -0.0951 -0.0141  0.1301
32051W        W48235   3.735  14.083  14.224  0.0739 -0.0929  0.3499
32052W        W48236  16.982  13.530  12.801 -0.2069  0.1588 -0.0182
32053W        W48237   5.439   2.360  13.365  0.1576 -0.3346  0.3721
32054W        W48238  15.509  10.991   1.638  0.0737 -0.1127  0.0867
32055W        W48239   4.723   9.006   1.304  0.1495 -0.0473 -0.0389
32056W        W48240   7.486  14.854  11.356 -0.1165  0.0331  0.0393
32057W        W48241   4.657  14.655  10.947  0.1534  0.0326  0.2894
32058W        W48242  12.820  13.114   4.408 -0.5577  0.1016  0.2726
32059W        W48243  12.077  16.687   4.829 -0.0743  0.4224 -0.0813
32060W        W48244  17.888   0.570   0.315  0.2297 -0.1629 -0.1790
32061W        W48245   7.656  15.010   2.640 -0.1738  0.0299  0.0027
32062W        W48246   9.265  18.693  10.890 -0.2072  0.3524  0.1378
32063W        W48247   4.217   5.411  14.402  0.1043  0.2774 -0.2242
32064W        W48248   2.834  12.920  13.726  0.1289  0.1562 -0.0672
32065W        W48249   9.633  16.284   5.000 -0.2033  0.2680  0.0795
32066W        W48250  16.453  12.474   3.459 -0.3352 -0.0255  0.2021
32067W        W48251   0.819   7.550   0.779  0.1341  0.1176 -0.2355
32068W        W48252  18.579   2.036  12.467  0.1465 -0.0269 -0.2299
32069W        W48253  17.971   2.659  12.689 -0.1633  0.2317  0.0284
32070W        W48254  16.141   1.796  11.370 -0.0251  0.3649 -0.3478
32071W        W48255  14.890   3.813  10.551  0.0933  0.2139  0.0335
32072W        W48256  18.010  12.559   4.068  0.2827  0.1882 -0.2731
32073W        W48257   8.928   5.216  14.577  0.4687  0.0018  0.0193
32074W        W48258   3.399  13.059   0.769  0.1535 -0.3374 -0.2162
32075W        W48259   8.692  11.065   3.347 -0.1093 -0.1668  0.1316
32076W        W48260   1.378   9.444   3.468 -0.1025  0.0263 -0.1447
32077W        W48261   5.994  17.453   0.318  0.0419 -0.1948  0.3261
32078W        W48262  14.891   1.657   5.238  0.0510 -0.2708  0.2110
32079W        W48263  17.633   1.421   5.869  0.0734 -0.0682  0.0783
32080W        W48264   9.426   5.956   4.136  0.4249  0.0693 -0.0488
32081W        W48265  14.197  18.850   0.053  0.1379 -0.1381 -0.2506
32082W        W48266   4.849   5.552  10.873 -0.3544 -0.0083  0.0795
32083W        W48267   1.228   1.242   0.227  0.0479 -0.2819  0.3012
32084W        W48268   2.895   3.450   0.348  0.2880 -0.2349  0.0179
32085W        W48269   6.814   3.162   2.330 -0.0993  0.1757 -0.0697
32086W        W48270  14.532   6.368  13.650  0.2357  0.0222 -0.1009
32087W        W48271   5.265   8.637   2.813  0.2521  0.0083 -0.4381
32088W        W48272   6.128   4.117  11.613 -0.4174 -0.2913  0.0233
32089W        W48273   4.349   4.508   3.221  0.2029  0.3147 -0.2753
32090W        W48274  11.796  18.898   5.758 -0.1575  0.3142 -0.0029
32091W        W48275  12.841   7.388   2.318 -0.0886 -0.0561  0.2266
32092W        W48276  19.347  11.103  11.343  0.0722 -0.0138  0.2452
32093W        W48277  10.018   0.939  13.743  0.2105  0.0040 -0.0682
32094W        W48278   6.523   2.973  11.628  0.1650 -0.1164  0.0823
32095W        W48279  17.281   3.391  10.091 -0.1673  0.1987 -0.2251
32096W        W48280  12.439   9.188   9.861  0.1268  0.3013  0.1111
32097W        W48281  15.937   1.147  13.777 -0.2493 -0.1521 -0.1055
32098W        W48282  12.639  14.657   5.509 -0.1741 -0.0056 -0.2111
32099W        W48283  15.232  13.495   3.740 -0.1072 -0.1912 -0.3582
32100W        W48284   3.808   2.517   3.918 -0.1239 -0.2554  0.2177
32101W        W48285   7.217  17.445  10.882 -0.3749 -0.0523  0.2259
32102W        W48286   5.492  12.095   4.515 -0.2430 -0.0215  0.3400
32103W        W48287  12.808  11.377   2.105  0.3460  0.2640  0.2911
32104W        W48288   4.075   3.825   0.366 -0.1598  0.0766 -0.4996
32105W        W48289  16.367   2.348  12.686 -0.0402 -0.0970 -0.1130
32106W        W48290  17.071  18.283  13.030 -0.2091 -0.0625 -0.3588
32107W        W48291   4.909   3.029  12.489  0.0221 -0.1183 -0.2378
32108W        W48292   1.909   7.253  11.580  0.0487 -0.3695 -0.1725
32109W        W48293  15.398   8.585   2.632 -0.0094  0.1137 -0.2284
32110W        W48294   1.346  17.318  14.365  0.2420 -0.0425  0.1561
32111W        W48295   6.115  11.865   3.563  0.0139  0.0076 -0.0031
32112W        W48296  16.331   2.835  14.501  0.2832 -0.2199 -0.2973
32113W        W48297  16.609   0.875   0.292 -0.0588  0.1229  0.0164
32114W        W48298   4.525   4.221  11.082  0.1909  0.1065 -0.1811
32115W        W48299  18.560  18.341   0.727 -0.1038  0.0907  0.1991
32116W        W48300  14.416  16.579  11.021  0.1057 -0.1674  0.0013
32117W        W48301  13.605  16.445  11.080  0.1730 -0.3053  0.0545
32118W        W48302   7.173  15.098  12.795  0.0756  0.0091  0.0251
32119W        W48303   7.182  12.649   1.767  0.0794  0.1584  0.1491
32120W        W48304   8.990   0.417  14.717  0.2777 -0.4920 -0.0198
32121W        W48305   3.706   6.960  13.193 -0.3741  0.0122  0.1453
32122W        W48306   1.236   3.359  11.662  0.0567 -0.1650 -0.3228
32123W        W48307  14.467  15.466   2.626  0.0762  0.0716  0.0048
32124W        W48308  10.563  14.168  13.490  0.1793 -0.0562 -0.0370
32125W        W48309   6.318  16.882  12.774 -0.1889  0.1971 -0.0053
32126W        W48310  10.012  15.302  12.939 -0.2040 -0.0459 -0.2082
32127W        W48311   2.494   0.556   1.117 -0.0203  0.1490  0.0152
32128W        W48312   6.255  16.228  10.630 -0.1731 -0.1607  0.3203
32129W        W48313  17.290   5.101  11.051  0.0178 -0.0164  0.2373
32130W        W48314   6.050   2.994   4.897 -0.1742  0.1790 -0.1785
32131W        W48315   3.868   1.923  10.071 -0.0558 -0.0937 -0.1371
32132W        W48316  14.866   5.436   0.674 -0.1541 -0.1454  0.0213
32133W        W48317   8.879   4.160   1.772  0.0435  0.1467 -0.1122
32134W        W48318   4.674  17.705   4.186  0.1474 -0.0389  0.1438
32135W        W48319  12.788   6.613   1.212 -0.0596 -0.1911  0.2235
32136W        W48320  17.910  10.677   2.169  0.1710 -0.1227 -0.3664
32137W        W48321   6.451  16.366   2.647  0.0592  0.1005 -0.2501
32138W        W48322   3.415  18.257  14.604 -0.1059 -0.2390  0.2585
32139W        W48323  12.737   1.582   4.124 -0.0468  0.4321  0.0044
32140W        W48324   5.320   8.956  12.210 -0.4930 -0.0438  0.1364
32141W        W48325   6.520   3.812  14.469 -0.2114 -0.1233 -0.0747
32142W        W48326  13.642  14.008   4.652  0.0329 -0.1679  0.2356
32143W        W48327   1.412  16.658  12.854 -0.0995  0.1530  0.1078
32144W        W48328   4.067   2.863   1.326 -0.2117  0.1686  0.0309
32145W        W48329  15.969   7.166   0.964 -0.4947  0.2060 -0.3397
32146W        W48330   4.136  12.571  11.798 -0.1497 -0.3126 -0.0608
32147W        W48331  10.125   6.058   2.648  0.0416  0.0593 -0.0335
32148W        W48332  16.526   4.987   4.341 -0.1556  0.1599  0.0172
32149W        W48333   8.916   4.404   9.883  0.2684 -0.3216 -0.0486
32150W        W48334  15.717   5.764  10.421  0.0790  0.1728 -0.0072
32151W        W48335   4.412  14.487  11.868 -0.1324 -0.0155  0.1523
32152W        W48336  14.635  15.119  13.384 -0.1792  0.1109 -0.2376
32153W        W48337  11.618   1.131   1.097 -0.2970  0.1385 -0.1889
32154W        W48338  17.322   3.963   3.035  0.1609 -0.2242 -0.1639
32155W        W48339  17.251  17.238   3.032 -0.0999  0.4971  0.2685
32156W        W48340  10.077   4.375  12.732 -0.0881  0.2349 -0.0946
32157W        W48341   6.463  10.473  10.543  0.0519 -0.0205 -0.1475
32158W        W48342  16.107  17.522   1.681  0.0013  0.1300 -0.1400
32159W        W48343  12.534   4.688   2.569 -0.2441 -0.0528 -0.2313
32160W        W48344  16.468  17.655  12.712 -0.0575  0.2602 -0.0399
32161W        W48345  12.191   9.508   2.903 -0.2063  0.2359 -0.0348
32162W        W48346  14.855  13.467  10.917  0.1502 -0.1076  0.0802
32163W        W48347   2.479  11.629  14.830 -0.1354  0.0818  0.0049
32164W        W48348   6.120  19.258   0.130  0.1320 -0.2071 -0.1311
32165W        W48349  17.093   0.980  13.605  0.3166 -0.1043  0.1190
32166W        W48350  10.151   0.070  12.495  0.2351 -0.0518 -0.3091
32167W        W48351  13.162   2.886  11.671 -0.0042 -0.3825 -0.0400
32168W        W48352  14.009  16.336   0.449  0.1149 -0.0127  0.2086
32169W        W48353  16.664  17.153   2.060  0.1499  0.3019  0.2004
32170W        W48354  15.301   4.788   1.373  0.1986  0.2884 -0.3685
32171W        W48355   7.485   7.629   9.867  0.0836  0.0015  0.1110
32172W        W48356  16.921  16.620   2.810  0.1227 -0.1422  0.2364
32173W        W48357   6.555   1.567  13.723  0.1245  0.2533 -0.0683
32174W        W48358   6.005   4.469  14.363  0.0625 -0.1258 -0.1468
32175W        W48359   8.223  17.787  12.795 -0.3884 -0.3214 -0.2085
32176W        W48360   4.136   1.667   3.776  0.1018 -0.1293 -0.1491
32177W        W48361   2.356  16.228  14.124 -0.0485 -0.1736  0.1972
32178W        W48362   1.043  19.188   1.922  0.0317  0.3456 -0.2165
32179W        W48363   1.854  17.112  10.663  0.0803  0.0440  0.0344
32180W        W48364   3.078  13.846  14.162 -0.1478  0.1043 -0.0448
32181W        W48365   5.229   8.332  10.918 -0.0576 -0.3547 -0.1927
32182W        W48366   2.078   6.767  11.758  0.4460  0.1448 -0.0353
32183W        W48367  13.212   4.794  13.567  0.0257  0.6006 -0.3261
32184W        W48368   8.959  17.572  13.315  0.2176 -0.1502 -0.2258
32185W        W48369   1.787  16.895  13.140  0.2687 -0.0768 -0.0046
32186W        W48370  16.555   7.807  12.778 -0.0808  0.1734  0.0232
32187W        W48371   5.679  11.762  10.574  0.1954  0.1816  0.1763
32188W        W48372   8.928  18.521   1.178 -0.0379  0.1013 -0.0027
32189W        W48373  17.209  13.880  12.530 -0.0059 -0.1554  0.2387
32190W        W48374  16.758   1.453  12.793 -0.1996  0.2884  0.0203
32191W        W48375  18.575   8.333   3.143  0.1078 -0.0903 -0.0296
32192W        W48376  11.962   1.708   2.597  0.2411 -0.0129  0.2309
32193W        W48377  17.047  14.732   2.780 -0.2327  0.0427  0.1099
32194W        W48378   8.918  16.152   2.137  0.3198 -0.1044 -0.1380
32195W        W48379   1.787   9.598   3.093 -0.2121  0.0520 -0.3034
32196W        W48380  16.569   8.395   4.083  0.0372 -0.0041  0.0914
32197W        W48381   7.500  10.726   4.815 -0.2367 -0.1034 -0.0696
32198W        W48382  11.332  14.786   2.302  0.2218  0.1872 -0.0388
32199W        W48383   4.051   7.952   1.964  0.0201  0.3771 -0.2151
32200W        W48384   1.353  12.416   0.011 -0.0694  0.0914  0.2138
32201W        W48385   7.037  10.327   3.432 -0.2509  0.2892 -0.0702
32202W        W48386   4.705   5.108  11.187  0.2296 -0.1848  0.2072
32203W        W48387   1.925  13.632  12.912  0.0213 -0.2171  0.0333
32204W        W48388   3.580  14.449   1.805 -0.2427  0.0118 -0.4094
32205W        W48389  12.830  11.135  13.299 -0.1093  0.1179 -0.3472
32206W        W48390  11.332  15.839   3.057 -0.1144 -0.3113  0.1232
32207W        W48391   4.500  14.751   0.017 -0.1053 -0.0569  0.0156
32208W        W48392  19.379   7.713  14.171  0.0263 -0.1227 -0.4043
32209W        W48393  15.496  18.525  11.737  0.0061 -0.2708 -0.1798
32210W        W48394  18.741  11.699  13.490  0.0051 -0.1410 -0.0727
32211W        W48395   7.384  11.947   4.804  0.4391  0.0171  0.0581
32212W        W48396   7.260  16.332   0.205 -0.0646 -0.0053 -0.0714
32213W        W48397   8.561   2.869  13.527 -0.0071  0.0490 -0.0083
32214W        W48398  18.012   4.469  11.408 -0.0743 -0.0952  0.1088
32215W        W48399  18.130   6.531   3.329  0.0079 -0.3813 -0.0378
32216W        W48400   8.479  11.811   2.766 -0.0334  0.2806  0.1380
32217W        W48401   1.895  18.604  14.559  0.1654 -0.1597 -0.0251
32218W        W48402  14.403   9.587  13.906  0.0049  0.1761 -0.0111
32219W        W48403   6.900   4.276  12.237 -0.1861  0.2759 -0.1910
32220W        W48404   5.774   2.589   1.736  0.2363 -0.2407  0.1909
32221W        W48405   8.983  16.927   2.893 -0.5587 -0.1361 -0.1701
32222W        W48406   5.965  14.722   4.244 -0.0160 -0.0206 -0.2745
32223W        W48407   2.970   3.572   1.182 -0.0341  0.2668  0.1207
32224W        W48408   6.300  13.523  14.036 -0.0313 -0.1079 -0.1622
32225W        W48409  10.323   1.736   3.164  0.0533 -0.3095 -0.0935
32226W        W48410   6.393   4.368   0.728  0.0493  0.0358  0.1226
32227W        W48411   2.816   7.491   2.082 -0.2645 -0.1074  0.0856
32228W        W48412  18.165   1.801  10.269  0.1352 -0.1458  0.1089
32229W        W48413  17.906  12.255   5.457  0.2198 -0.0820  0.0139
32230W        W48414   4.695   2.011  10.243  0.0528  0.2441 -0.4728
32231W        W48415  18.938   8.719   0.882 -0.1705  0.1496 -0.1983
32232W        W48416  14.261  15.252  11.966 -0.2802 -0.0982  0.0958
32233W        W48417  18.965   7.531   2.784  0.1169 -0.3576  0.1715
32234W        W48418  13.054  18.822   4.352  0.2904 -0.0588 -0.0561
32235W        W48419  12.563   1.204  12.297  0.2233 -0.0124 -0.2439
32236W        W48420  13.738   6.937  13.561 -0.0144 -0.1585  0.1449
32237W        W48421  12.167   5.046   3.992 -0.1085  0.3016  0.3529
32238W        W48422  14.889   3.927   4.420  0.0942 -0.1403 -0.1532
32239W        W48423  10.764  16.257   2.153 -0.3077  0.0719  0.1333
32240W        W48424  10.626  10.419   0.825  0.3109  0.0933 -0.3197
32241W        W48425   4.829  18.773  13.288  0.0569 -0.3069  0.0150
32242W        W48426  19.120  13.107   4.583  0.6960 -0.0050 -0.2995
32243W        W48427  11.348  12.463   1.981  0.3537  0.2214  0.0022
32244W        W48428   0.430  11.289   2.403 -0.1515  0.0614  0.2180
32245W        W48429   1.300   3.437   0.812 -0.3030 -0.0891  0.1271
32246W        W48430  18.561   4.631  13.655  0.3022 -0.1861  0.2411
32247W        W48431   6.589  15.259  13.701  0.2080 -0.0019 -0.1813
32248W        W48432  19.267   6.731   4.319 -0.1239 -0.4066  0.4512
32249W        W48433  18.535   3.973   1.862  0.1169 -0.0911  0.2789
32250W        W48434   5.733  13.967  10.680  0.2107  0.0466 -0.3912
32251W        W48435  18.322  19.042   1.374 -0.5136  0.4718  0.3306
32252W        W48436   6.245  11.953  14.174  0.0050  0.1451 -0.0411
32253W        W48437   1.261  11.246   0.189 -0.0406  0.2472 -0.1118
32254W        W48438  14.829   1.824  10.397 -0.3471  0.2014  0.0660
32255W        W48439   2.706  14.257  14.632  0.2036 -0.5024 -0.3620
32256W        W48440  11.334   1.137   4.101 -0.0420  0.0716 -0.0880
32257W        W48441   1.390  17.125   0.931  0.2336  0.0522 -0.0875
32258W        W48442   3.757  13.039   2.609  0.3034 -0.1780  0.1418
32259W        W48443  19.068   2.253   0.368 -0.0386 -0.1267 -0.1428
32260W        W48444   6.810   3.646   3.824 -0.0107  0.0462  0.0470
32261W        W48445   0.509   2.068   2.952  0.0125 -0.0046 -0.1112
32262W        W48446  10.495   2.968  10.608 -0.1687 -0.0580  0.1120
32263W        W48447  11.224   8.389   0.403  0.0640  0.0972  0.2769
32264W        W48448  14.751   7.893   5.342  0.1344 -0.0068  0.0523
32265W        W48449   4.184   0.444  11.752 -0.1833  0.2934 -0.1509
32266W        W48450  19.213   3.366  12.883  0.1679 -0.1430  0.0788
32267W        W48451  12.617   0.434  11.049 -0.1926 -0.0180 -0.1841
32268W        W48452  17.573   6.589   0.292 -0.1527  0.0960  0.0778
32269W        W48453  14.470  11.456  10.891  0.0591  0.0404  0.1152
32270W        W48454  18.381  10.107  12.214 -0.0843  0.3279  0.0971
32271W        W48455  11.005  14.525   3.795  0.0757 -0.1271 -0.2192
32272W        W48456  15.467   7.714   5.554 -0.0565  0.0341  0.0904
32273W        W48457   5.082  14.490  11.100 -0.0494 -0.2496 -0.1723
32274W        W48458  10.175   3.387   3.389 -0.0628  0.3469 -0.0214
32275W        W48459  11.592  17.592   1.496 -0.2794 -0.1747  0.0005
32276W        W48460  17.399  14.252  12.293  0.0033  0.0677  0.2105
32277W        W48461   9.998  14.571  12.318 -0.0573 -0.3844 -0.1190
32278W        W48462   1.304   2.235   2.067 -0.0017  0.0171 -0.2244
32279W        W48463   4.374   2.014   1.696 -0.1169  0.0265  0.0581
32280W        W48464  13.598   2.521   4.028  0.1001 -0.1356  0.2143
32281W        W48465   1.222  17.624  10.437 -0.0855  0.1289  0.1766
32282W        W48466  16.157  13.261   4.389 -0.1261  0.3462  0.3038
32283W        W48467   6.697  12.150   5.494 -0.0214 -0.0845 -0.0214
32284W        W48468   9.766  10.544   1.678 -0.1927  0.1014 -0.3513
32285W        W48469  12.748  16.412  13.597  0.0324  0.2193 -0.0300
32286W        W48470   0.970  12.457   3.228  0.1647  0.4211  0.0761
32287W        W48471   9.770  16.792   1.819 -0.0301 -0.0464  0.0740
32288W        W48472   6.135   2.237   9.823  0.1850 -0.2177  0.2981
32289W        W48473   1.767  10.575   0.327 -0.1818  0.1794 -0.1328
32290W        W48474   9.600  15.865   3.665 -0.0756  0.0343 -0.1176
32291W        W48475   3.850  10.975   2.437 -0.3810 -0.3266  0.1661
32292W        W48476  16.629  17.581   1.880 -0.3512  0.2914  0.1429
32293W        W48477  10.107  18.451  11.432  0.0637  0.0022  0.2000
32294W        W48478   0.710  16.103  11.802 -0.1052 -0.0278 -0.2725
32295W        W48479   0.495   9.680   0.979  0.3543 -0.1199 -0.1665
32296W        W48480   3.423   1.521  13.543 -0.1853 -0.0997 -0.5906
32297W        W48481   4.976   1.320  13.797  0.2974  0.1005  0.0019
32298W        W48482  10.137   7.006   9.946  0.2790 -0.0596 -0.1675
32299W        W48483  14.780   9.349  14.474  0.0599 -0.3418  0.0052
32300W        W48484   2.870  13.353   2.611  0.2827  0.1221 -0.3805
32301W        W48485   3.023  15.877  10.058 -0.1490 -0.3220 -0.3382
32302W        W48486  16.350   3.383   5.210 -0.0849 -0.1137  0.3534
32303W        W48487  10.366   3.079   1.681  0.2753 -0.0794 -0.4088
32304W        W48488   1.778   0.717   9.842  0.1208 -0.1179 -0.1133
32305W        W48489  18.105   3.674  12.631 -0.0282  0.5860  0.1753
32306W        W48490  12.638  12.923  11.054  0.0140  0.0532 -0.3598
32307W        W48491  14.933   3.341   3.277  0.3003  0.3401  0.0545
32308W        W48492  17.839   3.113  11.768 -0.2089  0.1092  0.2148
32309W        W48493  18.166   7.083  13.862 -0.0616  0.2058 -0.2744
32310W        W48494  11.440   7.605   2.014 -0.1271 -0.0226  0.3344
32311W        W48495   0.420  14.693   4.153 -0.2052  0.0062  0.2562
32312W        W48496  15.789  15.696   4.620 -0.0514 -0.2719 -0.1024
32313W        W48497  13.372  17.491  13.638 -0.2152 -0.0701  0.2401
32314W        W48498  16.827   0.025   1.687 -0.2595 -0.0500  0.1190
32315W        W48499   3.222  15.147  11.187 -0.1899 -0.1008 -0.1640
32316W        W48500  14.940  14.530  14.046 -0.0567 -0.1178 -0.0212
32317W        W48501  16.081   2.142  13.155  0.2062 -0.0966 -0.2603
32318W        W48502  15.017  17.402   3.664  0.3253  0.1651  0.2031
32319W        W48503  11.287   5.417  11.182  0.0650  0.0835  0.0517
32320W        W48504   0.378   8.616  13.052 -0.0933  0.0640 -0.1329
32321W        W48505  16.824   9.907  10.200 -0.3252 -0.1133 -0.2643
32322W        W48506  14.165   0.529   0.175  0.3195  0.0663 -0.1114
32323W        W48507  18.614   2.414   3.993 -0.1347  0.0675  0.3009
32324W        W48508  10.682   3.550   0.404 -0.1818  0.0540 -0.1149
32325W        W48509  10.166  16.837   2.161 -0.3425  0.1294  0.6449
32326W        W48510   5.187   4.647   4.579  0.2337  0.2247 -0.2734
32327W        W48511   6.002   2.807  10.902 -0.0608  0.0238  0.1663
32328W        W48512  11.454   4.864  12.189  0.0009 -0.1257 -0.0150
32329W        W48513   2.384  15.815  12.315  0.0525 -0.2012  0.1503
32330W        W48514  12.366  15.294   2.124 -0.1061  0.0291 -0.1325
32331W        W48515   9.199   0.186   1.773 -0.0308 -0.2688  0.2713
32332W        W48516   5.076  10.899   0.527 -0.2798 -0.0872 -0.2118
32333W        W48517  11.671  18.161  10.230  0.0915 -0.0107 -0.2360
32334W        W48518   5.447  13.625  14.156  0.4237  0.2560 -0.1904
32335W        W48519   4.924  14.499  14.334  0.1156 -0.2606 -0.1113
32336W        W48520  15.286   3.959  13.693  0.2802  0.0199 -0.0838
32337W        W48521   1.842   3.128  12.989 -0.0363  0.0715 -0.2308
32338W        W48522   3.639   7.830  12.076 -0.1120  0.1636 -0.0780
32339W        W48523  10.068   8.706  13.703  0.0429  0.0253 -0.3657
32340W        W48524   0.408   8.847   9.549  0.6427 -0.2788 -0.0808
32341W        W48525  17.556   3.582   1.455  0.3694  0.5168  0.2212
32342W        W48526   5.215   3.824   0.930 -0.0989 -0.1219 -0.2240
32343W        W48527   2.600  17.932  13.372 -0.1520  0.1300 -0.2180
32344W        W48528  12.644   0.842   5.009 -0.0000 -0.0648 -0.0570
32345W        W48529   4.083  15.995  13.030 -0.3106 -0.1505 -0.1905
32346W        W48530   1.637   2.125   4.935 -0.2819  0.0721  0.3411
32347W        W48531  12.738   7.943  14.513  0.1165 -0.1174  0.0907
32348W        W48532   5.154   1.406  10.909 -0.2215  0.2838 -0.0327
32349W        W48533  16.181  12.686  13.835 -0.1416  0.2654  0.2082
32350W        W48534   3.216   6.717   0.123  0.0346  0.0485  0.0223
32351W        W48535   0.635   6.497   1.067  0.0267  0.1180  0.0018
32352W        W48536  15.775  13.997   0.373  0.1452  0.0735  0.1757
32353W        W48537   5.008   8.372  13.808 -0.0369  0.0218 -0.0797
32354W        W48538   1.264   0.214  10.721 -0.2812  0.0549 -0.1407
32355W        W48539  13.263   1.202   3.050  0.4161  0.2675 -0.0608
32356W        W48540   0.472  11.640   2.889  0.1265 -0.1280 -0.1313
32357W        W48541   5.979   6.958   2.872 -0.3452  0.0095  0.0092
32358W        W48542  16.693  11.611  14.336 -0.2099 -0.1311 -0.2111
32359W        W48543  10.907   7.412  13.401 -0.2216 -0.0343 -0.0761
32360W        W48544  13.465   9.012   2.772 -0.1940  0.1977 -0.3673
32361W        W48545   9.353   8.597  11.130  0.2322 -0.1210 -0.0603
32362W        W48546   3.713   8.011  13.557 -0.1683 -0.0493 -0.0511
32363W        W48547   7.128  19.207   1.472  0.0569 -0.4814  0.0253
32364W        W48548  17.536   7.039   3.686 -0.1495  0.1470 -0.4447
32365W        W48549   4.028   9.760   0.409  0.1179 -0.0584 -0.0030
32366W        W48550   8.597   9.663   0.703  0.0766  0.2561  0.1416
32367W        W48551   1.203   1.540   9.531 -0.3336 -0.3494 -0.4068
32368W        W48552  13.418   7.648  11.126  0.0139  0.0488 -0.2206
32369W        W48553   6.445   5.670   2.894  0.0379 -0.0700 -0.2336
32370W        W48554   7.002   6.924  11.812 -0.1724 -0.0546  0.0847
32371W        W48555   3.713   1.662   1.138  0.0018  0.3223 -0.1406
32372W        W48556   2.267  17.998  10.852 -0.0307  0.1234 -0.1556
32373W        W48557   0.321  18.209   3.639  0.0553  0.3284  0.1167
32374W        W48558  17.349  10.001  12.746 -0.0578  0.1788  0.2476
32375W        W48559   5.231   1.732   2.830 -0.0111 -0.1117 -0.0079
32376W        W48560   7.481   4.229   4.626 -0.1702 -0.2363 -0.1975
32377ION     NA48561   2.061  14.416  10.748  0.0256 -0.2161 -0.0206
32378ION     NA48562  19.312   5.999   9.758 -0.1051 -0.1653  0.1285
32379ION     NA48563  10.867   4.356  14.335  0.0253 -0.0386  0.5256
32380ION     NA48564  11.253   1.628   9.643  0.2145  0.4148  0.1703
32381ION     NA48565  11.042   4.112   9.374  0.0188  0.1458  0.1567
32382ION     NA48566  10.684  10.294  10.065  0.0156 -0.3216 -0.0867
32383ION     NA48567   0.464   9.299  13.585  0.3707  0.0969  0.0192
32384ION     NA48568   9.146  17.622   9.848  0.3949 -0.0194  0.0603
32385ION     NA48569  18.682   2.784  11.445 -0.0018 -0.1283 -0.2202
32386ION     NA48570   6.447   5.271   4.743  0.0704 -0.1328 -0.0184
32387ION     NA48571   7.917  10.591   9.704  0.1708 -0.3457  0.0971
32388ION     NA48572   6.993   2.446  12.303 -0.2036  0.0582 -0.4415
32389ION     NA48573  18.278  10.738  11.374 -0.0027  0.0255  0.0171
32390ION     NA48574   5.912  11.263  10.704  0.3360  0.0750  0.1727
32391ION     NA48575  14.528   5.590   9.368  0.1450 -0.0675  0.2349
32392ION     NA48576  11.086   9.930   2.261  0.1361  0.0881  0.0689
32393ION     NA48577  12.889  16.921   9.951  0.0747 -0.2375 -0.0038
32394ION     NA48578   2.075  10.816  14.624 -0.0037  0.0100 -0.1126
32395ION     NA48579  11.422   9.241   9.346 -0.1366 -0.3215  0.0658
32396ION     NA48580   7.109  10.881   9.938 -0.3245  0.1046  0.0389
32397ION     NA48581  18.322  19.015  11.265 -0.0880 -0.1545  0.0947
32398ION     NA48582   5.926  14.112   9.594  0.0744 -0.1682  0.0286
32399ION     NA48583  19.290  14.481  10.083 -0.3227  0.1321  0.5970
32400ION     NA48584  14.764  16.591   5.565 -0.1619  0.0896  0.0577
32401ION     NA48585   3.630   2.536   9.507 -0.0198 -0.2075  0.2180
32402ION     NA48586  14.377   6.459   9.498 -0.0213  0.1033  0.1332
32403ION     NA48587  15.242   0.949   5.463 -0.0725 -0.0077 -0.2592
32404ION     NA48588  12.267  17.734   9.759  0.0455 -0.0126  0.2242
32405ION     NA48589  18.479  11.996   9.829  0.4450  0.0525  0.1779
32406ION     NA48590   2.980   9.617   9.807  0.1034  0.0981 -0.0993
32407ION     NA48591   8.010  16.593   1.536  0.2258  0.2217 -0.0796
32408ION     NA48592  16.582  14.782   2.983 -0.2569 -0.3004  0.0194
32409ION     NA48593  18.694   6.964   3.175 -0.0424  0.0114  0.0338
32410ION     NA48594  17.410   7.877   4.325  0.2001  0.3530  0.1531
32411ION     NA48595   8.194  17.318  11.362 -0.1896  0.0533  0.0587
32412ION     NA48596  11.753  13.485  10.304  0.2553 -0.1529  0.0910
32413ION     NA48597   1.579   6.945  10.019  0.0626  0.1948 -0.1506
32414ION     NA48598   5.225   5.872  10.821 -0.0300  0.1196 -0.1601
32415ION     NA48599  17.898   2.138   5.336  0.0627  0.4368  0.1530
32416ION     NA48600  11.492  15.892   9.905  0.0276  0.1919  0.0761
32417ION     NA48601   7.640  16.582  11.592 -0.3025  0.1437 -0.0766
32418ION     NA48602   5.791   4.192  11.223 -0.1472  0.1322 -0.2929
32419ION     NA48603   6.866   3.338   4.734 -0.1727 -0.1497 -0.0539
32420ION     NA48604   5.821  16.429   9.889 -0.0932  0.0181  0.0565
32421ION     NA48605  14.265   7.483   4.700 -0.0535 -0.1210 -0.0764
32422ION     NA48606   0.596  12.236  10.048  0.1620  0.0433 -0.2366
32423ION     NA48607   1.120   7.576   5.651 -0.0703 -0.3619  0.0045
32424ION     NA48608  14.169  16.582  13.101  0.1642 -0.0011 -0.1163
32425ION     NA48609   4.676  13.270   9.155  0.0017  0.2044  0.1064
32426ION     NA48610  12.940   8.864   2.877  0.2547  0.2189  0.1993
32427ION     NA48611   1.527   1.025   3.722 -0.1387  0.1227 -0.1050
32428ION     NA48612   1.579  12.626  10.959  0.0150 -0.0374  0.0588
32429ION     NA48613   6.108  14.788  11.487  0.1017 -0.0563  0.0687
32430ION     NA48614   7.562   2.501   4.766  0.2898  0.1253  0.0027
32431ION     NA48615  11.559  15.630  11.491  0.1799  0.2330 -0.3236
32432ION     NA48616  13.042  12.256   5.340  0.3730  0.2777  0.1799
32433ION     NA48617  18.816   5.506  13.785 -0.2828  0.2307  0.1961
32434ION     NA48618  14.539   4.530   9.110  0.2518  0.0044 -0.0512
32435ION     NA48619   9.429  10.222  11.682 -0.0888 -0.0457  0.0793
32436ION     NA48620   7.199  11.371   5.598  0.1840  0.2073  0.2221
32437ION     NA48621  14.176  11.720   9.883 -0.0198  0.3914 -0.1108
32438ION     NA48622  17.043  16.833   5.391  0.0290  0.3175 -0.0502
32439ION     NA48623   1.783  14.013   9.699  0.0875 -0.0291 -0.0450
32440ION     NA48624   7.714  18.649   9.726 -0.0310 -0.2366 -0.3225
32441ION     NA48625  16.312  18.930   9.477 -0.1330 -0.2752 -0.2016
32442ION     NA48626  16.490   8.146  10.037 -0.0142  0.1875  0.0139
32443ION     NA48627  15.779  12.267  13.551  0.0833 -0.0130  0.0563
32444ION     NA48628  19.083  15.992   9.990 -0.2686 -0.1449  0.0187
32445ION     NA48629   4.473  18.839   9.998 -0.1053 -0.5817  0.0105
32446ION     NA48630  10.875   1.915  12.124  0.0579 -0.1017 -0.2333
32447ION     NA48631  12.901   3.611   8.998  0.0875 -0.0660  0.2145
32448ION     NA48632   5.829   7.814  14.177  0.0009  0.1664  0.0323
32449ION     NA48633  19.283   9.050   9.606  0.0476  0.2459  0.1174
32450ION     NA48634  17.841   5.469   9.599  0.2683 -0.5057 -0.2763
32451ION     NA48635   2.462  12.611   9.467  0.2686  0.0839 -0.3318
32452ION     NA48636  10.035  16.292   9.723 -0.0661 -0.3199  0.2145
32453ION     NA48637  10.005   3.197  10.567  0.2551  0.0739 -0.4620
32454ION     NA48638  18.636  18.906   9.669 -0.1044  0.0637  0.1700
32455ION     NA48639   1.934   5.918  14.387  0.2151 -0.0957  0.1675
32456ION     NA48640  11.750  12.410   0.819  0.0586 -0.1290 -0.1737
32457ION     NA48641  14.268  15.095   9.928  0.2768 -0.1733  0.1890
32458ION     NA48642  11.248  11.168   2.937  0.1797  0.1765 -0.1009
32459ION     NA48643   1.918  17.395   5.225  0.1052 -0.0929 -0.1517
32460ION     NA48644  18.492   5.030   0.954  0.2185  0.0984 -0.3149
32461ION     NA48645   5.458   0.996  12.163 -0.0925 -0.1243 -0.1008
32462ION     NA48646  16.523   0.438  13.225  0.0526  0.0635  0.1714
32463ION     NA48647  10.520   0.209   9.516  0.0629 -0.1159 -0.0867
32464ION     NA48648  10.903   6.084   9.587  0.5219 -0.0222 -0.1694
32465ION     NA48649   7.181   2.370   9.422  0.0022  0.1837  0.3801
32466ION     NA48650   2.015   4.851   9.697 -0.2352  0.0483  0.1153
32467ION     NA48651  16.228   1.257  14.980 -0.1010 -0.1831  0.2314
32468ION     NA48652  15.518   6.948   0.868  0.0382  0.3624  0.4235
32469ION     NA48653  19.244   5.929   3.468 -0.2954 -0.3142  0.0726
32470ION     NA48654  16.333  12.224   0.840 -0.0941  0.1284 -0.0831
32471ION     NA48655   1.664  19.078   3.774 -0.2762 -0.1742 -0.2141
32472ION     NA48656  12.480  16.976   5.779 -0.0821  0.1100 -0.0829
32473ION     NA48657  12.270  14.467  14.425  0.0664 -0.1129  0.2098
32474ION     NA48658  10.548   2.655   0.685  0.3196 -0.0755  0.0340
32475ION     NA48659   9.104   0.409   9.715 -0.0883  0.0751 -0.0736
32476ION     NA48660   2.318   9.627   5.449  0.0473 -0.1678 -0.2563
32477ION     NA48661   2.488  18.274  10.349  0.0189 -0.0288  0.0139
32478ION     NA48662   7.888   5.198   4.760 -0.4065  0.1693  0.2523
32479ION     NA48663   4.701   2.945   5.161 -0.1012 -0.0273  0.0871
32480ION     NA48664  11.829   4.072  13.819  0.3991  0.5623 -0.0189
32481ION     NA48665   1.238   2.649   5.877  0.1404  0.0199 -0.1312
32482ION     NA48666   8.632   3.168   9.683  0.0280  0.1455  0.0085
32483ION     NA48667   5.957  17.414   9.848 -0.0134  0.1678  0.2297
32484ION     NA48668   7.095   3.447  12.611  0.1965  0.2057  0.2398
32485ION     NA48669   1.219   0.603  10.019 -0.0883  0.0399  0.5107
32486ION     NA48670   2.580   4.358   0.951  0.0790 -0.0153  0.1939
32487ION     NA48671   0.220   4.338   9.761  0.0621  0.0879  0.2325
32488ION     NA48672  18.854  15.697  11.377  0.0668  0.2014  0.1523
32489ION     NA48673  12.149   1.686   9.566  0.1237 -0.1006 -0.0540
32490ION     NA48674  11.333  14.939   9.827 -0.0908 -0.0834 -0.0108
32491ION     NA48675  18.222  19.230   5.492 -0.2577  0.1677  0.1656
32492ION     NA48676  15.851   6.323   2.773  0.2240  0.1043 -0.3993
32493ION     NA48677   5.693   1.810   0.389 -0.0274 -0.0379 -0.1599
32494ION     NA48678   4.406  16.030  10.690 -0.0429 -0.0505 -0.1070
32495ION     NA48679  12.484  19.064   9.821  0.0704  0.1897 -0.0021
32496ION     NA48680   5.296  15.574   4.565 -0.2368 -0.0207  0.2214
32497ION     NA48681  17.246   3.515   9.559  0.4801 -0.0936  0.1534
32498ION     NA48682  11.531  12.297   9.763  0.0792 -0.0271 -0.2270
32499ION     NA48683   1.398  19.093   5.483 -0.0205  0.0724  0.0533
32500ION     NA48684   4.083   2.887  12.059  0.1443 -0.0076 -0.2558
32501ION     NA48685   8.800   8.790   4.985  0.1312  0.2107 -0.2459
32502ION     NA48686  11.018   4.756   4.886  0.0514 -0.1590  0.4099
32503ION     NA48687   8.844   6.312   8.923 -0.2179  0.0621 -0.1281
32504ION     NA48688  11.622   6.893   0.153  0.0939  0.2633 -0.0986
32505ION     NA48689  17.449   6.210  12.273  0.6247 -0.2938  0.1158
32506ION     NA48690   5.047  10.157   3.361  0.1587 -0.3985 -0.2679
32507ION     NA48691   0.300   0.631   9.786  0.1039 -0.1530 -0.2129
32508ION     NA48692   6.871   6.680   0.270  0.2227 -0.1475 -0.3951
32509ION     NA48693  10.194  13.795   9.869  0.1246 -0.0452  0.2301
32510ION     NA48694   1.176   4.049   9.870 -0.1356  0.3588 -0.0352
32511ION     NA48695   8.326  17.874   9.692  0.0827 -0.0064  0.3059
32512ION     NA48696   0.606   2.910   5.257 -0.0538 -0.0320  0.3329
32513ION     NA48697  16.424   0.598   9.870 -0.0136  0.1890 -0.1887
32514ION     NA48698   7.290   7.465   9.381  0.0750  0.1228 -0.0584
32515ION     NA48699  10.501  17.945   5.270 -0.1803  0.1862 -0.4942
32516ION     NA48700   1.747   4.297   1.983 -0.1723  0.2667 -0.0692
32517ION     NA48701  16.742  11.629   9.683  0.2325 -0.2905  0.1327
32518ION     NA48702   3.085   4.742   9.594  0.1163 -0.2677  0.0473
32519ION     NA48703   7.643   1.123  13.821  0.0169  0.0936 -0.0904
32520ION     NA48704  17.829   6.718   4.972  0.1387 -0.2274  0.0934
32521ION     NA48705  17.881  16.714  12.854  0.0622 -0.0237 -0.2905
32522ION     NA48706  14.687  15.701  13.272  0.2076  0.0422  0.0253
32523ION     NA48707   6.878   1.309   4.865 -0.1184 -0.1794  0.0673
32524ION     NA48708   9.911   6.167   4.877  0.2596 -0.1065 -0.0258
32525ION     NA48709   2.859  15.369  14.264  0.3671 -0.1089  0.1911
32526ION     NA48710  18.466  13.138   5.814  0.0903  0.4660  0.3161
32527ION     NA48711  14.559   9.500  13.036  0.2278  0.1282  0.0813
32528ION     NA48712  12.654   9.411   9.513 -0.2227  0.3258  0.1615
32529ION     NA48713   1.498   2.326   9.971 -0.1271 -0.0853  0.0420
32530ION     NA48714   4.201  16.065   2.417  0.0860  0.0659  0.2718
32531ION     NA48715   0.219   9.826   9.743  0.1223  0.1087  0.0182
32532ION     NA48716  18.574   1.909   9.385 -0.2076  0.1618 -0.3811
32533ION     NA48717  19.320   7.046   9.575 -0.4276  0.0449 -0.1036
32534ION     NA48718   1.201  13.666  10.331 -0.0751  0.0825 -0.1686
32535ION     NA48719  14.861  14.363   5.786  0.1530 -0.0245 -0.0795
32536ION     NA48720   6.287   2.452  13.901  0.0501 -0.0202 -0.3468
32537ION     NA48721   8.328  10.265  11.040 -0.3222  0.0636  0.1934
32538ION     NA48722  15.735   1.256   9.708  0.0910 -0.3255  0.1039
32539ION     NA48723  10.697   6.036  11.291  0.0661  0.3388 -0.1894
32540ION     NA48724  18.440   6.790   9.286  0.0355 -0.0981  0.0692
32541ION     NA48725  14.790   4.141   5.209 -0.2281  0.0997 -0.3113
32542ION     NA48726  15.620   9.986   9.506  0.1063 -0.1060 -0.1856
32543ION     NA48727   3.304  15.848   2.578  0.5349  0.1002 -0.0122
32544ION     NA48728   5.197  16.987  10.335 -0.0665 -0.2955 -0.0699
32545ION     NA48729   6.236  12.206   0.199  0.1204 -0.1010 -0.2167
32546ION     NA48730   0.805  14.354  13.265  0.1127  0.2209 -0.0823
32547ION     NA48731   4.185  18.156   1.836 -0.0144  0.1017 -0.1184
32548ION     NA48732  17.314  13.061  10.260  0.0428  0.1157 -0.4324
32549ION     NA48733   8.032  15.670  13.778  0.3228  0.0179 -0.2625
32550ION     NA48734   0.188  10.780   9.942  0.1010 -0.0787  0.2444
32551ION     NA48735   6.862  12.089   9.622 -0.1241  0.1712  0.2425
32552ION     NA48736  13.244   2.252  10.289  0.2136 -0.0590  0.2282
32553ION     NA48737   3.902   3.088   0.897  0.0594 -0.1298  0.1096
32554ION     NA48738  16.448  10.144   9.721  0.1351 -0.0854  0.1089
32555ION     NA48739  17.882  12.968  12.302  0.0907 -0.0395 -0.0059
32556ION     NA48740   5.613   9.261   1.514  0.1964  0.0882 -0.2331
32557ION     NA48741  13.469  19.050   9.920 -0.3508 -0.0669 -0.0256
32558ION     NA48742  16.857   9.186  12.481  0.4241 -0.2291 -0.1232
32559ION     NA48743   3.394  17.174   9.818 -0.0602 -0.2045 -0.1199
32560ION     NA48744   5.404  17.483  11.589  0.1681  0.0143  0.0024
32561ION     NA48745   8.589  10.214   9.680 -0.0063  0.0010  0.1547
32562ION     NA48746  18.653   8.335   5.181 -0.0845  0.1025  0.0352
32563ION     NA48747   9.905  17.189  12.631 -0.0867 -0.0432 -0.0542
32564ION     NA48748   0.236  19.058   3.509 -0.0228  0.2003 -0.1500
32565ION     NA48749  10.155   2.073   5.309  0.0722 -0.1418  0.2762
32566ION     NA48750  18.544   0.910   1.916 -0.0132  0.0476 -0.0887
32567ION     NA48751   6.808   8.969   9.829  0.0527 -0.0945 -0.1952
32568ION     NA48752   6.370   5.419   2.079 -0.1221  0.0506 -0.0231
32569ION     NA48753  18.349  16.557   9.915 -0.2841  0.1207 -0.0190
32570ION     NA48754  14.887   6.625   4.813 -0.0172 -0.3550  0.0869
32571ION     NA48755  10.312   4.583   9.644  0.0310  0.3390  0.3008
32572ION     NA48756  13.859  18.261   9.735  0.1333  0.1471 -0.0206
32573ION     NA48757  18.538  17.349  10.578 -0.1292  0.2951  0.1240
32574ION     NA48758  11.947   3.642   9.324 -0.2724 -0.2400 -0.0274
32575ION     NA48759  15.768   9.916   5.043 -0.0668 -0.3471  0.0300
32576ION     NA48760   9.188  13.231   9.981  0.2873 -0.1313  0.0527
32577ION     NA48761  17.661   4.893   3.270  0.1642  0.5182  0.3612
32578ION     NA48762  12.828   5.587   9.279  0.2353 -0.2155  0.3092
32579ION     NA48763  14.763  17.961   9.530  0.3826  0.2738 -0.1918
32580ION     NA48764  11.555  15.156   5.186 -0.0518  0.1597  0.2060
32581ION     NA48765   1.118  16.632   9.759 -0.1381 -0.2809 -0.0237
32582ION     NA48766   3.055  10.685   9.776  0.0213 -0.0492  0.2328
32583ION     NA48767  14.876  14.323   1.906 -0.0345  0.1803 -0.2727
32584ION     NA48768   9.141  15.983   9.474 -0.4648  0.1836 -0.1921
32585ION     NA48769  18.003   0.742   5.237  0.1995 -0.1101  0.3762
32586ION     NA48770  12.175  13.877   3.596  0.1591 -0.2543 -0.0571
32587ION     NA48771  14.228  13.702  13.913 -0.0815  0.0879 -0.0876
32588ION     NA48772   6.589  10.382  13.106 -0.1473  0.0109  0.2097
32589ION     NA48773   2.147  14.192   4.793  0.1052  0.0573  0.2816
32590ION     NA48774   5.946   1.398   4.499 -0.0476  0.1932 -0.0452
32591ION     NA48775   4.564   0.365   9.921  0.2570 -0.2920  0.0846
32592ION     NA48776   3.145  16.198   9.504  0.1197  0.1045 -0.1807
32593ION     NA48777  14.003  10.953   9.632  0.0091  0.3680 -0.1253
32594ION     NA48778   8.180  14.802   2.860  0.0362 -0.1643  0.4685
32595ION     NA48779   9.176   2.915   5.381  0.1648  0.0985 -0.1164
32596ION     NA48780  12.948  11.432   9.504 -0.3251  0.0055 -0.2167
32597ION     NA48781   2.770  14.450   4.850  0.0307  0.3275 -0.3508
32598ION     NA48782  13.783   1.639  11.413 -0.0875  0.2125  0.0951
32599ION     NA48783   2.684   2.423   9.519  0.0926  0.3536 -0.0329
32600ION     NA48784   4.825   6.610   9.394 -0.5345 -0.0266  0.2544
32601ION     NA48785  10.708  15.188  12.144  0.3916  0.0221  0.1828
32602ION     NA48786  14.928   7.137   9.521  0.1124  0.1428 -0.0393
32603ION     NA48787  10.498  19.021   5.115  0.0940  0.0660 -0.3213
32604ION     NA48788  14.353  18.615  11.721 -0.1154  0.0868 -0.2661
32605ION     NA48789   9.208   5.870  12.240  0.1391 -0.2771  0.0610
32606ION     NA48790   1.326   9.213   9.858 -0.1400 -0.3000 -0.1185
32607ION     NA48791  19.159  15.062   4.559 -0.2074 -0.1107 -0.4336
32608ION     NA48792  11.241   8.437   9.348 -0.1061  0.2606 -0.1405
32609ION     NA48793   3.775  13.584   9.317  0.2073 -0.1177  0.2551
32610ION     NA48794  15.459  10.160   0.972 -0.0892 -0.1936 -0.0410
32611ION     NA48795  16.790  17.037  10.058  0.1357  0.1303  0.3011
32612ION     NA48796   1.895   5.292   1.881  0.1616 -0.4351  0.0654
32613ION     NA48797   5.380  17.887  10.051 -0.0872 -0.0177  0.1773
32614ION     NA48798  16.533  17.446   5.344  0.1125  0.0460 -0.3908
32615ION     NA48799  15.350  13.211  10.769  0.1864  0.2900 -0.1516
32616ION     NA48800   8.587   6.961   9.368  0.2779  0.0982  0.1873
32617ION     NA48801   8.181   6.659   4.724  0.0992  0.5095  0.0889
32618ION     NA48802  11.936  18.904   2.091 -0.1316 -0.0279  0.0948
32619ION     NA48803   1.694   2.763   4.490  0.1940 -0.2098  0.0766
32620ION     NA48804  17.827   7.444   9.418  0.2196 -0.0784  0.2133
32621ION     NA48805   8.704  15.371   9.476 -0.1413  0.0740  0.0103
32622ION     NA48806  18.638  15.288  10.171  0.0232 -0.1479  0.0100
32623ION     NA48807   6.729   4.915   8.928  0.1053 -0.2518 -0.0532
32624ION     NA48808  13.663   3.247   9.569  0.1449  0.0430 -0.0266
32625ION     NA48809   4.746  11.283  13.069  0.1045 -0.2438 -0.1826
32626ION     NA48810  15.364  13.816  10.187 -0.5096 -0.0076  0.0620
32627ION     NA48811  18.398   7.319   9.335 -0.0790 -0.1864  0.1818
32628ION     NA48812   9.814  13.527   3.151 -0.3250 -0.1865 -0.0648
32629ION     NA48813   0.067  13.167   5.759 -0.1898  0.1617 -0.0413
32630ION     NA48814  12.500  14.856   5.050 -0.2200  0.1787 -0.3080
32631ION     NA48815  17.648   8.270   9.444  0.1759 -0.1177 -0.1120
32632ION     NA48816  13.047   4.258   5.030  0.0723  0.1179  0.2346
32633ION     NA48817   9.433  15.748  10.640 -0.3585  0.0088  0.0774
32634ION     NA48818  14.828   8.551  12.431 -0.1102 -0.2419  0.2170
32635ION     NA48819   0.271   9.566  14.565 -0.0416  0.0188  0.0094
32636ION     NA48820  13.619   9.798   9.804 -0.1475  0.0711  0.1372
32637ION     NA48821   7.678  11.408   9.809 -0.0900  0.2035  0.0991
32638ION     NA48822  15.896  17.952   0.576 -0.0113  0.2279 -0.0697
32639ION     NA48823   6.824   9.342   4.675 -0.0757  0.1260 -0.1251
32640ION     NA48824   3.354  16.523  14.091  0.1625 -0.2555  0.2371
32641ION     NA48825   3.762   7.355  12.127 -0.1423  0.1397  0.1015
32642ION     NA48826   5.228  14.624   5.406 -0.1161  0.0757  0.4303
32643ION     NA48827   2.579   4.119  13.815 -0.0038 -0.1317  0.2018
32644ION     NA48828  16.585  14.159  10.627 -0.0395  0.4096  0.5097
32645ION     NA48829  13.479  13.009   5.211 -0.0619 -0.1251  0.0710
32646ION     NA48830   8.639   5.542   9.233  0.4729 -0.2035 -0.7074
32647ION     NA48831   6.497   5.733  12.046 -0.0472  0.0683  0.0187
32648ION     NA48832   7.959   0.833   9.618  0.1308 -0.2398  0.0611
32649ION     NA48833   4.471  10.516   9.919 -0.1873  0.1549 -0.2158
32650ION     NA48834   7.263  13.201   9.778 -0.0557  0.0634  0.1922
32651ION     NA48835  15.611   2.938   9.508  0.0998  0.0229  0.0069
32652ION     NA48836  12.714  11.994   2.973  0.1943  0.1195 -0.1045
32653ION     NA48837   8.269  12.196   9.798  0.0368  0.3226  0.0024
32654ION     NA48838   6.901  14.328  12.688 -0.0783 -0.0202  0.0951
32655ION     NA48839  19.099   2.571   9.969  0.1351  0.0157  0.2623
32656ION     NA48840   9.782   8.577  12.822 -0.1656  0.0745  0.1008
32657ION     NA48841  10.507   8.287   0.145  0.3069  0.1106 -0.0771
32658ION     NA48842  13.458  13.875   9.887  0.1690  0.2161 -0.3441
32659ION     NA48843  17.927   2.244   0.853  0.0422 -0.3066  0.0620
32660ION     NA48844   4.024   5.121   9.474 -0.0739  0.0826  0.1585
32661ION     NA48845   3.556   3.630   9.330  0.3233 -0.1784  0.0710
32662ION     NA48846   9.189  17.730   5.192  0.3026 -0.2888  0.0934
32663ION     NA48847  11.465   0.722   3.194  0.2760 -0.1745 -0.2387
32664ION     NA48848   8.735  10.286  10.175  0.0161 -0.4736  0.0450
32665ION     NA48849  11.251   2.930   9.774 -0.1770 -0.2213 -0.2651
32666ION     NA48850  15.422  18.279   9.867  0.0745 -0.1898  0.2571
32667ION     NA48851   3.196   7.766   9.544 -0.5136  0.1563  0.2383
32668ION     NA48852   1.434   6.028   1.368 -0.1454 -0.2681  0.0787
32669ION     NA48853   0.661  10.089   9.791  0.1540 -0.0942 -0.1260
32670ION     NA48854   5.616   8.383   9.552 -0.1497  0.1670  0.0210
32671ION     NA48855  10.548   7.267  12.589  0.0055 -0.0000 -0.1073
32672ION     NA48856   9.708   5.956   9.205 -0.0696 -0.2006  0.0609
32673ION     NA48857   1.893   1.351   9.988  0.2645 -0.2818 -0.1444
32674ION     NA48858   6.483  10.207   9.566 -0.0911  0.2588 -0.0746
32675ION     NA48859   8.643  10.839   5.565 -0.0725 -0.2295  0.3892
32676ION     NA48860   3.029   8.638   9.812  0.3121 -0.3248  0.2207
32677ION     NA48861  13.554   0.718  10.269 -0.1195 -0.0089  0.0496
32678ION     NA48862  19.304   1.474   9.758 -0.3358  0.1180 -0.4933
32679ION     NA48863   8.851   9.524   2.954 -0.0653 -0.0091 -0.0291
32680ION     NA48864   2.012  12.030   9.917  0.5509  0.0841 -0.2190
32681ION     NA48865   2.138  15.317  12.112 -0.1515  0.0430 -0.0550
32682ION     NA48866   0.056  11.768   5.713 -0.0646  0.0455  0.0498
32683ION     NA48867  15.360   7.577   9.524  0.1659  0.0129 -0.1137
32684ION     NA48868   9.466   9.223   9.506  0.0887  0.3874  0.2043
32685ION     NA48869   3.170   0.499   9.688  0.0311 -0.1685  0.2809
32686ION     NA48870   3.687   0.515   9.690 -0.2106 -0.0567  0.0721
32687ION     NA48871  14.303   2.421   9.388  0.0606  0.0185 -0.0909
32688ION     NA48872   8.519  14.791   5.278 -0.0706 -0.4284 -0.1601
32689ION     NA48873   2.997  15.155   9.387  0.5321  0.1792 -0.0713
32690ION     NA48874  12.029  10.524   9.666 -0.2865  0.2453 -0.2053
32691ION     NA48875   6.858  15.113   9.527 -0.2722  0.1975 -0.0506
32692ION     NA48876   6.251   5.702   9.218 -0.0531  0.0171  0.0899
32693ION     NA48877  15.400   8.630  14.943 -0.0104  0.2355  0.1193
32694ION     NA48878   9.030  10.683   0.518  0.1949  0.0695 -0.2003
32695ION     NA48879  16.920   0.439  11.869  0.1141 -0.1846  0.0739
32696ION     NA48880   3.928  12.789   9.237  0.2415 -0.2564 -0.1912
32697ION     NA48881   4.093  16.752   9.466  0.1885 -0.2271 -0.0429
32698ION     NA48882  14.064  17.604   5.392 -0.0287 -0.1502  0.4267
32699ION     NA48883   3.648  12.507   4.789  0.3014 -0.1848 -0.1242
32700ION     NA48884  12.014   7.959   9.507  0.3844  0.0166 -0.1345
32701ION     NA48885  11.898   5.814   4.115  0.1481  0.2638  0.0584
32702ION     NA48886   9.982  17.570   9.967 -0.2329  0.0906 -0.3947
32703ION     NA48887   8.982   8.756  12.831  0.0667 -0.0214  0.1732
32704ION     NA48888   1.553   3.386   5.182 -0.1173  0.0137  0.1044
32705ION     NA48889  13.339  16.093  10.153  0.0294 -0.0446 -0.0277
32706ION     NA48890  16.463  15.415  10.323  0.0236  0.3726  0.3006
32707ION     NA48891  12.585  17.842   4.288  0.1590  0.1609  0.1357
32708ION     NA48892  12.408   6.977   9.747  0.1773 -0.0329  0.0802
32709ION     NA48893   9.708  11.490   0.001 -0.0166  0.2165 -0.0966
32710ION     NA48894   9.817   4.753   9.439  0.1406  0.0803 -0.0876
32711ION     NA48895  10.568  17.119   9.550  0.0421 -0.1582  0.2366
32712ION     NA48896  13.059  14.327   5.426 -0.3480  0.0612 -0.0899
32713ION     NA48897   5.125  14.772   9.731  0.1365 -0.0789 -0.2009
32714ION     NA48898  12.731   2.793   5.031 -0.1585  0.1598  0.2412
32715ION     NA48899   9.676  13.438   5.467  0.0355  0.2219 -0.2633
32716ION     NA48900   5.707   8.498   4.235 -0.1383 -0.2023  0.2434
32717ION     NA48901  14.523  14.125   9.756  0.2352 -0.1027 -0.1497
32718ION     NA48902   7.408   0.021   1.998 -0.0185 -0.3442 -0.5394
32719ION     NA48903   1.999  13.242   9.894  0.0745  0.3040  0.0505
32720ION     NA48904   7.830  17.008  12.424  0.2260  0.0746  0.0523
32721ION     NA48905   1.496  10.416   9.945 -0.0069  0.0390 -0.0031
32722ION     NA48906   9.772   0.825   9.611 -0.0848  0.0028 -0.0632
32723ION     NA48907  17.725  19.384   0.530  0.1449  0.0046  0.1158
32724ION     NA48908   8.531   3.540  11.923  0.1512 -0.1682 -0.2244
32725ION     NA48909   4.457   9.924   9.826 -0.1729  0.1538 -0.2121
32726ION     NA48910  19.237  16.286  14.195 -0.0143 -0.3023 -0.1348
32727ION     NA48911   5.934   4.429   9.256  0.0387  0.1261  0.0379
32728ION     NA48912   8.327   9.061   5.758  0.0164 -0.0028 -0.1807
32729ION     NA48913  10.940  15.830  12.858  0.0186 -0.0337  0.1314
32730ION     NA48914  17.848   9.681   2.287 -0.1985  0.0976  0.2824
32731ION     NA48915   9.929  12.444   9.688 -0.2947 -0.3675  0.0005
32732ION     NA48916  18.194   0.173   2.648 -0.1763 -0.2337  0.0374
32733ION     NA48917   9.099  11.228  10.156 -0.1833  0.2909 -0.2155
32734ION     NA48918   3.637   9.234   9.836  0.5108  0.0770  0.1491
32735ION     NA48919   7.190   0.584   0.846 -0.2723 -0.1106  0.0273
32736ION     NA48920   4.143  14.483   9.412  0.1864  0.1464  0.1268
32737ION     NA48921  11.884   1.489  10.761  0.1160  0.3771  0.3208
32738ION     NA48922  14.198   8.966   9.666  0.1006 -0.0597 -0.2763
32739ION     NA48923   4.655  16.886   9.468 -0.1423 -0.3452  0.0240
32740ION     NA48924  18.149  13.420   9.987 -0.0784  0.0761  0.1821
32741ION     NA48925   5.117   8.568   5.084  0.2569 -0.1463  0.1530
32742ION     NA48926  18.740  17.555  10.039  0.0184 -0.1075  0.2218
32743ION     NA48927   2.060  11.052   9.883 -0.0974 -0.2581 -0.0339
32744ION     NA48928   5.049   4.969   3.748  0.0304 -0.3033  0.1123
32745ION     NA48929   7.258   7.978  14.626  0.0653  0.1094 -0.0654
32746ION     NA48930  15.056   2.742   9.330  0.0585  0.2950  0.1965
32747ION     NA48931  14.789  12.408   5.259  0.1998  0.0357  0.0558
32748ION     NA48932   8.139   6.059   3.132 -0.0959 -0.2197  0.1061
32749ION     NA48933  16.599   6.228   9.543  0.2591  0.0830  0.0518
32750ION     NA48934   6.036  18.554   1.545  0.0650 -0.0378  0.3469
32751ION     NA48935   7.409  17.259   9.709  0.0848 -0.0340 -0.0300
32752ION     NA48936   5.802  16.824  10.818 -0.0407  0.1291 -0.0612
32753ION     NA48937  14.966  10.719   9.531 -0.1759 -0.1754  0.1329
32754ION     NA48938  17.553   6.334   9.149 -0.0956 -0.0565  0.0430
32755ION     NA48939  13.686  17.417   3.969 -0.1714 -0.1611 -0.1485
32756ION     NA48940  11.961   4.274   9.462  0.0389 -0.0973 -0.2339
32757ION     NA48941  10.742  14.811   0.977  0.3039  0.0671 -0.2270
32758ION     NA48942  10.354   4.053   9.571  0.1539 -0.2586 -0.2422
32759ION     NA48943  18.045   2.071  13.283 -0.0438 -0.1897 -0.2171
32760ION     NA48944   8.444  13.326  14.459 -0.2583 -0.0757  0.1060
32761ION     NA48945   0.741  15.854   9.912  0.1541 -0.3897 -0.0066
32762ION     NA48946  17.189  16.135  10.147 -0.2490 -0.0321  0.3142
32763ION     NA48947   7.106  18.506   0.007 -0.0057 -0.1539 -0.0663
32764ION     NA48948   3.141  14.237   9.276 -0.1820  0.1440 -0.2765
32765ION     NA48949  16.903  10.462   4.850  0.2205 -0.1786  0.1511
32766ION     NA48950  12.646  11.028   9.762 -0.0492  0.1115 -0.1058
32767ION     NA48951  14.642  15.293   5.604 -0.3330  0.1221 -0.0996
32768ION     NA48952  16.604  12.171   3.866 -0.1132 -0.0574 -0.0306
32769ION     NA48953   3.033   7.980   2.135  0.1007  0.0939  0.1418
32770ION     NA48954  10.117  14.757  10.182 -0.0794 -0.1774  0.2230
32771ION     NA48955   4.965  13.767   9.704  0.1221  0.2271 -0.0691
32772ION     NA48956   5.455   0.314   9.646  0.4215 -0.0459  0.2160
32773ION     NA48957  18.836  14.243  13.504 -0.0412  0.0827 -0.2696
32774ION     NA48958  17.807  10.239   9.733 -0.2385 -0.1750 -0.1653
32775ION     NA48959   5.815   1.271   9.539 -0.1659 -0.1810  0.2547
32776ION     NA48960  17.504   4.492   9.615  0.1913 -0.0143 -0.1310
32777ION     NA48961   9.791   1.311   2.688  0.0228 -0.3497 -0.0799
32778ION     NA48962  18.389   8.657   9.221 -0.1876  0.0384  0.2744
32779ION     NA48963  19.042  11.311   9.720 -0.2137  0.1153  0.2446
32780ION     NA48964  18.986  12.356  10.016 -0.0587  0.5280  0.1846
32781ION     NA48965   4.022  16.184   9.498 -0.0369 -0.0793  0.0278
32782ION     NA48966  14.624   0.597   9.545  0.0821  0.0806 -0.0949
32783ION     NA48967  14.680   2.436  11.540 -0.2680 -0.1263  0.4296
32784ION     NA48968   8.425   4.469   9.167  0.0754 -0.0214 -0.1305
32785ION     NA48969  13.655   5.784   9.185  0.0614 -0.3123  0.2149
32786ION     NA48970  18.525  11.153  11.051 -0.1277  0.1576 -0.0540
32787ION     NA48971  13.553   6.309   9.470  0.0642 -0.0703  0.1544
32788ION     NA48972  13.876  10.652  11.943  0.2214 -0.0062 -0.1003
32789ION     NA48973   0.925   1.430   1.458 -0.2157  0.0789 -0.0514
32790ION     NA48974   1.864   5.451  11.164  0.0841 -0.0886  0.3051
32791ION     NA48975  19.112   2.284   4.941 -0.1710 -0.0417 -0.2769
32792ION     NA48976   7.341  17.504   5.028  0.0649 -0.1309  0.1037
32793ION     NA48977   0.930  13.369  14.327 -0.1433 -0.4270 -0.0076
32794ION     NA48978   7.033  18.656  10.798  0.0972 -0.0757  0.1597
32795ION     NA48979  14.013  11.854  11.477 -0.3043  0.2793  0.4475
32796ION     NA48980   7.714   8.161  12.268  0.0931  0.1780 -0.0483
32797ION     NA48981  15.816   0.939  13.168  0.0897 -0.3371 -0.1111
32798ION     NA48982  17.711  19.066   9.707 -0.0583  0.1265 -0.1173
32799ION     NA48983  13.890  15.539  10.582 -0.1282  0.1564  0.0509
32800ION     NA48984   2.825   2.567  12.666  0.1896 -0.0816 -0.2270
32801ION     NA48985  12.275  10.194  12.652 -0.0616 -0.0977 -0.2996
32802ION     NA48986   6.021   7.912   2.453  0.3224 -0.0210  0.0918
32803ION     NA48987  11.494  17.872   9.820  0.0963  0.2945 -0.1347
32804ION     NA48988  17.164   1.656  11.021 -0.0440 -0.1977  0.0059
32805ION     NA48989  14.137  12.680  10.822 -0.0653 -0.2526 -0.3279
32806ION     NA48990   8.200  15.569   1.026 -0.0828 -0.5048 -0.0394
32807ION     NA48991  14.025  15.574   9.994 -0.0729 -0.0707  0.2037
32808ION     NA48992   0.645   7.562   9.585 -0.0509 -0.0428 -0.1346
32809ION     NA48993   5.779  15.863   5.321 -0.2338  0.6954  0.1706
32810ION     NA48994  18.793  19.238   0.251  0.0677  0.0150 -0.2118
32811ION     NA48995   9.195  14.500   9.504  0.0557 -0.0642  0.0287
32812ION     NA48996  10.255   2.677   9.818  0.2352 -0.2710  0.3026
32813ION     NA48997  10.670   9.810   0.059 -0.1474 -0.0623 -0.1489
32814ION     NA48998   4.148   0.654   5.515 -0.0497 -0.2446  0.0013
32815ION     NA48999  16.156  17.224   0.149 -0.1215  0.1376  0.3028
32816ION     NA49000   5.454   7.822   9.316 -0.3993  0.2120 -0.1576
32817ION     NA49001  12.866  10.467   9.565  0.2480  0.4138  0.0591
32818ION     NA49002  17.765  17.233   9.951  0.0287  0.2578 -0.2280
32819ION     NA49003   1.312  14.717  10.090 -0.0726  0.1187 -0.1196
32820ION     NA49004   5.366  11.233   5.221  0.5786 -0.1489 -0.0150
32821ION     NA49005   0.126   4.410  12.273 -0.1349 -0.0366 -0.1563
32822ION     NA49006  11.572   5.762   1.813  0.2137  0.0033  0.1696
32823ION     NA49007   5.200   0.385   5.248  0.5324  0.1141  0.1679
32824ION     NA49008  13.401  17.014   9.999  0.1886 -0.0741  0.2959
32825ION     NA49009   6.553   0.227   9.418 -0.0387  0.3024  0.1110
32826ION     NA49010   0.331  10.410   0.131 -0.1478 -0.2669 -0.3153
32827ION     NA49011  16.064   8.881   9.491  0.2161 -0.0511 -0.0739
32828ION     NA49012  16.274  13.299  10.149  0.0078  0.2453  0.0584
32829ION     NA49013  11.722  16.857   9.853 -0.0739  0.2377  0.0055
32830ION     NA49014  16.526   2.731   9.431  0.0371  0.1591 -0.3902
32831ION     NA49015  15.332   4.424   9.365 -0.1067  0.1918 -0.2543
32832ION     NA49016   1.119   4.894   9.743  0.2022  0.1931 -0.2190
32833ION     NA49017   6.102   9.676  11.003  0.0628  0.1218  0.1764
32834ION     NA49018   7.186   6.271   9.302  0.0300  0.1464  0.5409
32835ION     NA49019  18.486  14.769  10.107 -0.0500  0.1248  0.1095
32836ION     NA49020   3.898   8.325  12.881  0.3854  0.3450  0.2748
32837ION     NA49021   1.559  14.039   0.836 -0.2049 -0.2482  0.0959
32838ION     NA49022   9.569  19.093   5.195 -0.1840  0.3103 -0.0620
32839ION     NA49023  10.910  18.583   9.687 -0.4583 -0.1528  0.0423
32840ION     NA49024   7.415   2.947   9.829 -0.2883 -0.0534  0.4171
32841ION     NA49025  10.496   5.204   3.085  0.4679  0.0598 -0.1899
32842ION     NA49026  13.392   7.509   5.056  0.0459  0.3649 -0.1668
32843ION     NA49027  16.998  15.182   4.054  0.1979  0.0183  0.0400
32844ION     NA49028  17.144   4.923   9.565  0.0775  0.3168 -0.2787
32845ION     NA49029  11.085  11.785   9.545 -0.2749 -0.0629  0.0885
32846ION     NA49030   8.848   8.935   1.711 -0.0809 -0.2542 -0.1703
32847ION     NA49031   1.081  18.738   9.709  0.2292  0.2081 -0.0170
32848ION     NA49032  12.957   5.748   2.622 -0.1321 -0.0193  0.2084
32849ION     NA49033   0.016  18.775   9.916  0.3785  0.0608 -0.1094
32850ION     NA49034  11.096  18.312   4.642  0.0510  0.0395  0.1763
32851ION     NA49035   0.501  17.981  10.027 -0.1133  0.0587  0.0710
32852ION     NA49036  18.734  16.825  11.572 -0.1807 -0.2555  0.0138
32853ION     NA49037  10.129  17.694  14.822 -0.0739 -0.2012 -0.0596
32854ION     NA49038   8.198   8.563   2.591  0.1254  0.2213 -0.0553
32855ION     NA49039   1.506   0.826   5.580  0.1704  0.0454 -0.1319
32856ION     NA49040   4.061  14.851  10.184  0.0221 -0.0525 -0.1364
32857ION     NA49041   8.757  17.857   3.161  0.2516  0.0900  0.0445
32858ION     NA49042  16.957   2.704   5.258 -0.1634  0.1868  0.2416
32859ION     NA49043  11.219   7.515   9.340 -0.0275  0.0501 -0.2141
32860ION     NA49044  14.916  16.767  10.158  0.0195 -0.0417 -0.0395
32861ION     NA49045   6.500  11.760  12.497  0.1585 -0.1115 -0.2537
32862ION     NA49046   3.000  13.420   9.629  0.0880  0.0374  0.1885
32863ION     NA49047  15.664  12.629   9.841 -0.1206  0.1944  0.2217
32864ION     NA49048   2.372   0.628  10.083  0.0392 -0.1289  0.1760
32865ION     NA49049   4.274   4.275   9.126  0.1481  0.3460  0.2421
32866ION     NA49050  14.617  17.300  10.200 -0.0371  0.2895  0.0153
32867ION     NA49051  10.507   4.998   4.968  0.0348 -0.0666  0.4015
32868ION     NA49052   2.978  17.986   9.842 -0.1262  0.1484 -0.1494
32869ION     NA49053  12.210  17.006   1.228  0.1747 -0.0676  0.3574
32870ION     NA49054   1.167  11.106  10.374 -0.2605  0.0354  0.3635
32871ION     NA49055   4.041  15.264   9.423 -0.0773  0.2649  0.2617
32872ION     NA49056   0.324   4.615   5.416  0.2831  0.1969  0.2167
32873ION     NA49057  19.278   5.803   5.042  0.1465 -0.0185 -0.1382
32874ION     NA49058   5.412  17.463  14.290 -0.3170 -0.0250 -0.0078
32875ION     NA49059  18.226  18.038   5.341  0.0470  0.0907  0.2185
32876ION     NA49060  15.352  15.775   5.195  0.0579 -0.0793  0.0548
32877ION     NA49061   0.175   5.107   9.893  0.4932  0.2610 -0.0132
32878ION     NA49062  17.940  13.847  10.100 -0.1497 -0.1944 -0.1625
32879ION     NA49063   9.873   4.536  11.973  0.1173 -0.0284  0.1618
32880ION     NA49064   8.886  12.371   4.253 -0.0661  0.2124 -0.5112
32881ION     NA49065  17.223  11.473  13.024 -0.2077  0.1286  0.3405
32882ION     NA49066  15.471  11.795   9.869  0.1023 -0.0105 -0.2161
32883ION     NA49067  15.613   2.262   9.420 -0.1731  0.1736  0.2426
32884ION     NA49068  12.097  16.123   5.239  0.1842 -0.1594 -0.0877
32885ION     NA49069  11.044  17.065   5.466  0.1223 -0.1241 -0.0420
32886ION     NA49070   9.546  15.159   9.694  0.3904  0.0171 -0.1617
32887ION     NA49071  12.053  11.482   9.765  0.1372 -0.2094  0.0006
32888ION     NA49072   5.886   3.540   9.618 -0.2468  0.1475  0.0617
32889ION     NA49073  11.594  11.623   4.223 -0.2009 -0.1469  0.1359
32890ION     NA49074  18.778   1.168  12.381  0.3177  0.3440 -0.1241
32891ION     NA49075   6.354   9.399   2.939  0.2080 -0.0587 -0.0271
32892ION     NA49076  10.638   1.063   9.568  0.2684 -0.2922  0.2177
32893ION     NA49077   4.919  11.210   0.110  0.1650  0.1629 -0.2923
32894ION     NA49078   4.454  15.471   9.710 -0.3543 -0.0744  0.1472
32895ION     NA49079  10.580  14.037  11.650 -0.0760  0.3949 -0.2529
32896ION     NA49080   9.712  15.567   9.415  0.2097  0.4414 -0.2374
32897ION     NA49081   1.283   4.426  13.131  0.0467  0.0534 -0.0801
32898ION     NA49082  16.447  16.343   2.717 -0.1007 -0.0565 -0.1171
32899ION     NA49083   0.927   7.113   9.555 -0.2284  0.0962 -0.0209
32900ION     NA49084  12.412  18.847   5.737 -0.1172 -0.0220  0.1195
32901ION     NA49085   7.369  10.041   0.420 -0.3170  0.2673 -0.0904
32902ION     NA49086  17.637   0.626  10.689 -0.1502 -0.2494 -0.0334
32903ION     NA49087  12.945   5.083  10.838 -0.2047  0.3861  0.0077
32904ION     NA49088  18.598  10.904   2.283  0.0110  0.0957 -0.0979
32905ION     NA49089   1.584  15.844   9.557  0.0899  0.3962  0.0197
32906ION     NA49090  10.087   1.060   5.251  0.0855  0.3314 -0.1250
32907ION     NA49091   4.968  16.462   9.562 -0.1819  0.0209  0.2182
32908ION     NA49092   3.394  16.614   3.534  0.3009 -0.2470 -0.0260
32909ION     NA49093   2.068   1.008  14.618  0.2454  0.1616 -0.0403
32910ION     NA49094   5.903   2.768  11.547 -0.0820  0.2201  0.2154
32911ION     NA49095  13.950   8.100   9.812  0.2487 -0.1944  0.0701
32912ION     NA49096   9.976   3.778   9.755  0.1954 -0.1593  0.1830
32913ION     NA49097  10.947  12.711   9.684  0.4007  0.0593 -0.1455
32914ION     NA49098   6.109  11.585   9.784  0.0636  0.0253  0.0591
32915ION     NA49099  10.149  17.235   3.457  0.2520  0.1687  0.1738
32916ION     NA49100  17.693   7.362  14.296  0.0561 -0.1046  0.1338
32917ION     NA49101  19.378   3.838   9.686  0.0854 -0.1682 -0.3775
32918ION     NA49102  13.737   5.880   5.404  0.1231 -0.2259  0.3546
32919ION     NA49103  11.138  14.170  10.100  0.3575  0.1030  0.0578
32920ION     NA49104   8.441  13.778  11.240  0.2965 -0.0650 -0.1598
32921ION     NA49105   2.428   7.398  10.083 -0.1396  0.0711  0.1063
32922ION     NA49106  14.364  19.052   9.510 -0.0541 -0.0058 -0.1669
32923ION     NA49107   4.130  16.063  11.657 -0.2950 -0.1331 -0.1001
32924ION     NA49108  13.825   4.614   3.912 -0.1243 -0.0534  0.0119
32925ION     NA49109   6.977   4.080   8.888 -0.2216  0.0354  0.0297
32926ION     NA49110   2.454   6.712   9.701 -0.0268 -0.1255  0.1039
32927ION     NA49111   7.073  15.250   3.750  0.3387 -0.3129 -0.1215
32928ION     NA49112   4.713   6.020   4.839 -0.0354  0.2046 -0.1505
32929ION     NA49113  17.295   9.184   9.727 -0.1723 -0.2856 -0.0938
32930ION     NA49114   2.879   4.732   4.126 -0.0984  0.0489  0.0781
32931ION     NA49115   7.214  10.023   9.834  0.4131  0.1329  0.2249
32932ION     NA49116   7.654   4.134  11.642 -0.2233 -0.1729 -0.2405
32933ION     NA49117   4.020   7.444   9.539 -0.0007  0.3555 -0.0019
32934ION     NA49118  16.473   6.202  12.380  0.0448 -0.1321 -0.0102
32935ION     NA49119   9.448   4.396   9.798  0.1062  0.2236  0.0754
32936ION     NA49120   8.291   8.586   9.183 -0.0787 -0.3249  0.0140
32937ION     NA49121  12.412   5.027  10.439  0.1652  0.2427 -0.3340
32938ION     NA49122   5.450  15.324   2.131 -0.1967 -0.2777  0.0559
32939ION     NA49123  13.008   7.811   9.704 -0.0709  0.2592  0.1985
32940ION     NA49124   0.480   7.895   0.707 -0.0561 -0.3497 -0.3688
32941ION     NA49125  17.545  15.487   5.528 -0.0790  0.2371  0.1692
32942ION     NA49126   0.809   9.181   9.748 -0.4553  0.0348  0.0233
32943ION     NA49127   4.249  13.105   4.538  0.0385  0.2335  0.3062
32944ION     NA49128   4.215  10.943   1.577 -0.0114 -0.3855 -0.0702
32945ION     NA49129  11.141   5.030   9.437 -0.0254 -0.3527 -0.1257
32946ION     NA49130   8.777  15.406  10.018  0.0872  0.5366  0.4590
32947ION     NA49131   1.465   3.133   9.829 -0.2451 -0.0285  0.0070
32948ION     NA49132   5.376  11.287   9.939 -0.0107 -0.1700  0.0676
32949ION     NA49133   2.283  17.548   5.495 -0.2733 -0.2251 -0.0392
32950ION     NA49134  10.149  16.116   5.135 -0.2583 -0.2123 -0.1766
32951ION     NA49135   7.272   1.756   1.174 -0.0553  0.2855  0.4215
32952ION     NA49136   8.283  16.142   9.764  0.0962  0.2583 -0.1969
32953ION     NA49137   3.886   8.328   9.768  0.0737  0.3718 -0.2531
32954ION     NA49138  16.305   7.845   9.118 -0.0557 -0.0360  0.0334
32955ION     NA49139   2.820  18.386   2.090 -0.0347 -0.1943  0.0789
32956ION     NA49140  17.936   1.415  14.712  0.2359 -0.2854  0.0233
32957ION     NA49141  18.763   1.242   1.672  0.4164 -0.1653  0.1462
32958ION     NA49142  13.328  16.806   2.762  0.2470  0.0167 -0.0476
32959ION     NA49143   6.727  14.116   9.776 -0.2534 -0.0803  0.1108
32960ION     NA49144   1.769  17.481   9.700 -0.1779  0.5386  0.3561
32961ION     NA49145   6.424   0.989   9.697  0.2742  0.0935 -0.1774
32962ION     NA49146  13.435   8.993   9.702  0.3743  0.1265  0.0284
32963ION     NA49147  15.903   6.927   9.154  0.1934  0.0171 -0.1119
32964ION     NA49148  18.585   7.563   1.867  0.1776 -0.2794 -0.0324
32965ION     NA49149   4.092   3.406   9.232  0.1371  0.1531 -0.0456
32966ION     NA49150  18.842   4.257  12.937  0.4453  0.1197 -0.1024
32967ION     NA49151   7.796   3.718   9.260  0.1417  0.0413  0.1953
32968ION     NA49152   4.305   6.122   9.529  0.0948 -0.5222  0.1079
32969ION     NA49153   3.477  14.574  14.221 -0.5297 -0.0901  0.0124
32970ION     NA49154  10.154   1.769   9.585  0.1365  0.0835  0.2263
32971ION     NA49155  14.598  10.672   0.483  0.3132 -0.1552 -0.1416
32972ION     NA49156  14.789   2.763   3.160 -0.2455  0.1342  0.1221
32973ION     NA49157  12.040  14.362   2.505 -0.2702 -0.0319 -0.1004
32974ION     NA49158   4.414   2.626   3.756 -0.0036 -0.0552 -0.4103
32975ION     NA49159  12.036   7.391  14.249 -0.0206  0.1923  0.0863
32976ION     NA49160   2.021   5.036  14.742 -0.1174 -0.0013  0.0661
32977ION     NA49161  17.487  14.630  10.205  0.2658 -0.1312 -0.2154
32978ION     NA49162   0.381   8.500   5.479 -0.0690 -0.2901  0.0367
32979ION     NA49163  17.042  17.820   9.838  0.1568 -0.1998 -0.1391
32980ION     NA49164  12.642  12.701   4.620 -0.2030 -0.4094 -0.2602
32981ION     NA49165   7.512   0.181  11.878  0.1112  0.2770 -0.1219
32982ION     NA49166   7.802   3.311   4.948  0.0194  0.0606 -0.0047
32983ION     NA49167   1.470  12.562   1.099 -0.3567  0.1938  0.1350
32984ION     NA49168   9.169   3.808   2.229  0.2098  0.2331  0.0495
32985ION     NA49169  10.310  16.136  12.641 -0.1589  0.3122  0.2876
32986ION     NA49170  16.911  14.612  10.959  0.1505  0.2685 -0.2445
32987ION     NA49171   4.160   2.133   2.372 -0.2521  0.1377  0.0703
32988ION     NA49172   9.560   5.316   4.679  0.1963 -0.0945  0.2137
32989ION     NA49173  18.145  15.644  10.213  0.1144  0.1919  0.1273
32990ION     NA49174   3.044   2.642   2.534 -0.1536  0.2074 -0.1568
32991ION     NA49175   4.127   4.313   5.204  0.0050 -0.0366 -0.0466
32992ION     NA49176   5.336   7.140   3.253  0.0218  0.3634 -0.6084
32993ION     NA49177  12.128   5.197   9.344 -0.2595 -0.2947 -0.0983
32994ION     NA49178   1.809  19.328   1.989 -0.3625  0.4892  0.0665
32995ION     NA49179  12.531   1.598  12.016 -0.1405 -0.0700  0.1976
32996ION     NA49180  18.373  12.658  10.626  0.0899  0.0604  0.0301
32997ION     NA49181   6.040   2.725  10.021  0.1657 -0.1781  0.3753
32998ION     NA49182   4.880   8.410   9.897 -0.1597  0.1665 -0.1136
32999ION     NA49183   9.299   1.093   3.406  0.1560  0.3134  0.0874
33000ION     NA49184  11.420  17.051   1.798 -0.1439  0.2146  0.2720
33001ION     NA49185  10.082   7.620   5.017 -0.0064  0.3664 -0.2373
33002ION     NA49186   2.523  16.835   9.537 -0.3223 -0.1914  0.1815
33003ION     NA49187   2.704   5.996   9.779  0.0126  0.0634 -0.3399
33004ION     NA49188   5.779  18.234  13.029  0.1444 -0.0615  0.2231
33005ION     NA49189   6.824  18.760   9.422  0.0355  0.2177  0.2497
33006ION     NA49190   9.328   2.263   9.664 -0.1219 -0.1610 -0.2316
33007ION     NA49191  11.715  18.438  13.790  0.2000  0.2888 -0.0156
33008ION     NA49192   7.353  10.131  11.154  0.0551  0.0499  0.2646
33009ION     NA49193   1.141  15.564   1.609  0.5708 -0.2896  0.0427
33010ION     NA49194  17.945  16.643   4.581  0.0425  0.4760  0.1644
33011ION     NA49195   2.843  11.765   9.492  0.2007 -0.0493 -0.3657
33012ION     NA49196  16.282  12.309   9.896 -0.0327  0.2006 -0.1110
33013ION     NA49197   8.181  16.492  14.689 -0.0809  0.0854 -0.0012
33014ION     NA49198  11.360   1.021   5.403 -0.0913 -0.0706  0.2351
33015ION     NA49199   5.656  13.187   9.434  0.3103  0.2787  0.2243
33016ION     NA49200   9.663  11.385  10.220  0.2991 -0.0655 -0.2187
33017ION     NA49201   7.465   8.443   9.386 -0.1935  0.1091 -0.2389
33018ION     NA49202   4.205   6.648  10.633  0.1589  0.2086 -0.2826
33019ION     NA49203   1.926   5.842   9.919 -0.0999  0.2259 -0.0409
33020ION     NA49204   5.080  18.563   9.664  0.0583 -0.1142 -0.4298
33021ION     NA49205  18.383  11.814   3.883  0.3386 -0.0684  0.2308
33022ION     NA49206  18.323   3.744   9.614  0.0250 -0.2067 -0.1331
33023ION     NA49207  15.483   3.672   5.053 -0.3290 -0.1950 -0.1691
33024ION     NA49208  17.159   2.364   9.472  0.4003  0.0774 -0.0651
33025ION     NA49209   7.698   9.139   9.742  0.1268  0.2391  0.0662
33026ION     NA49210  13.523  16.175  11.921 -0.2416 -0.3446  0.0884
33027ION     NA49211   1.275   7.188   0.060  0.0789 -0.0337 -0.1250
33028ION     NA49212  14.413  10.977  11.529 -0.1349  0.0611  0.0796
33029ION     NA49213  12.383  15.633   9.861  0.1381 -0.0590  0.1102
33030ION     NA49214  12.049  16.717  14.173  0.0441  0.4021  0.0925
33031ION     NA49215   4.168  14.631  11.056 -0.0411 -0.1291  0.0719
33032ION     NA49216   8.319   2.202   9.572 -0.0311 -0.1466 -0.3479
33033ION     NA49217   6.425   7.320   9.821 -0.0438 -0.1874 -0.1166
33034ION     NA49218  17.103   1.980   3.995 -0.0681  0.0276  0.0269
33035ION     NA49219   4.983  16.357   4.416 -0.1119 -0.2108  0.0828
33036ION     NA49220  15.346  15.027  10.955 -0.1819 -0.2302  0.3067
33037ION     NA49221  11.067  13.057   5.241 -0.0961  0.0912  0.0515
33038ION     NA49222  15.236  14.731  10.026  0.0539 -0.1393  0.0788
33039ION     NA49223   5.384   8.844  14.664 -0.3081 -0.2958  0.0053
33040ION     NA49224   9.824   8.948   9.714 -0.2115 -0.2228 -0.2157
33041ION     NA49225  11.470  11.018   9.860 -0.3106  0.2741 -0.5225
33042ION     NA49226  19.247   7.979   9.574 -0.1557 -0.1725  0.2163
33043ION     NA49227   7.915   2.964   9.644  0.2125 -0.1525 -0.0207
33044ION     NA49228  16.729  10.592   0.738  0.1124  0.0826 -0.2911
33045ION     NA49229   3.169  10.751   5.138 -0.4881 -0.3708  0.0770
33046ION     NA49230   6.374   3.145  11.177  0.2002 -0.0041  0.2524
33047ION     NA49231   3.490  10.329   9.668 -0.4295 -0.1705 -0.0309
33048ION     NA49232  18.561   5.415   9.617 -0.2109  0.1004  0.1455
33049ION     NA49233  17.863   3.683  14.808  0.3296 -0.1715 -0.3067
33050ION     NA49234  13.754   9.399  14.403  0.2126 -0.2654 -0.1666
33051ION     NA49235   4.449  11.921   9.558 -0.1037  0.0823 -0.0924
33052ION     NA49236   0.945  12.203  11.621  0.0458 -0.1456  0.1846
33053ION     NA49237  15.153   9.097   9.564 -0.2813 -0.1045 -0.0157
33054ION     NA49238  16.845   9.350   9.840 -0.1048  0.2990 -0.0033
33055ION     NA49239   2.443   0.500  11.968  0.0820  0.0370  0.3429
33056ION     NA49240   0.652   8.419   9.772  0.3599 -0.0736  0.0214
33057ION     NA49241   2.295   3.145   9.659  0.0478  0.0227 -0.0533
33058ION     NA49242   4.122   1.462   9.878 -0.1418  0.1527 -0.0995
33059ION     NA49243   2.493  15.783   5.540  0.0854 -0.0727 -0.1246
33060ION     NA49244   6.060  12.590  10.906 -0.1479  0.1873  0.2522
33061ION     NA49245   9.604  19.021   9.520 -0.0852 -0.2122 -0.2999
33062ION     NA49246   8.804   7.919   9.400 -0.2203  0.3814 -0.2048
33063ION     NA49247   0.865   5.718   9.778  0.2408 -0.0423  0.1755
33064ION     NA49248  13.567  12.308   9.651  0.1187  0.1581  0.1043
33065ION     NA49249  12.055  16.267   0.702  0.1330 -0.0716 -0.1201
33066ION     NA49250   9.293  15.343  12.385  0.0530  0.0753  0.1659
33067ION     NA49251   5.684  12.249   9.572  0.0151 -0.1062  0.3256
33068ION     NA49252  12.319  14.776   9.959  0.1897 -0.1790 -0.1731
33069ION     NA49253  10.628   7.075   9.673  0.1317  0.2670 -0.4034
33070ION     NA49254  12.298   4.119   3.874 -0.0666  0.1328  0.1370
33071ION     NA49255   6.608  17.075  12.415  0.0042 -0.1536  0.0643
33072ION     NA49256  13.279  14.882  10.045 -0.1529  0.1433  0.1480
33073ION     NA49257   3.344  12.611   9.309  0.0524 -0.1858  0.3506
33074ION     NA49258   0.297   6.694   9.637 -0.4029  0.3002 -0.1397
33075ION     NA49259   5.442   1.070   9.841  0.1115 -0.1507  0.1660
33076ION     NA49260  16.570   3.762  13.261 -0.1193  0.4031 -0.1925
33077ION     NA49261  16.673   8.115  11.030 -0.0389 -0.1433 -0.0022
33078ION     NA49262   5.598  14.060   2.290 -0.0185  0.0186  0.1809
33079ION     NA49263  15.874  13.160   0.058  0.2509 -0.2782 -0.0171
33080ION     NA49264  18.803   0.965   9.550  0.2713  0.2717 -0.0573
33081ION     NA49265  14.400   5.816  11.493  0.2891  0.0924 -0.0047
33082ION     NA49266   8.426  13.825   9.671 -0.1365  0.1726  0.1407
33083ION     NA49267   7.776  17.594   3.779 -0.2294  0.0637 -0.2701
33084ION     NA49268   3.610   6.257  12.921  0.0669 -0.1027  0.1156
33085ION     NA49269   3.914   3.092  12.566 -0.0360  0.0429 -0.2090
33086ION     NA49270  18.064  15.299   2.517 -0.2998 -0.0653 -0.3019
33087ION     NA49271  10.486  10.767   9.952  0.1175  0.0621  0.1052
33088ION     NA49272   7.806  13.884   9.763  0.1131 -0.0646  0.2063
33089ION     NA49273  19.375   0.628  10.234 -0.2914 -0.3592 -0.4148
33090ION     NA49274   2.687   9.290  14.074 -0.0504  0.2803 -0.1909
33091ION     NA49275   5.641   1.105  10.652  0.0502 -0.1768 -0.1631
33092ION     NA49276   5.922  18.716   9.905  0.0187  0.2613  0.2165
33093ION     NA49277  11.763  13.720  12.083  0.1605 -0.3009  0.0925
33094ION     NA49278  12.503   6.744  12.720 -0.1029  0.2576 -0.1867
33095ION     NA49279  10.460  11.359   2.563  0.2420  0.1668  0.1186
33096ION     NA49280   8.856   2.992  11.391 -0.0327 -0.0456  0.1613
33097ION     NA49281   7.628   4.821   8.971  0.0850 -0.2428  0.1828
33098ION     NA49282   6.727  17.780   9.963  0.2924 -0.1962  0.0093
33099ION     NA49283  14.951  11.811  12.798 -0.0619  0.3394  0.2236
33100ION     NA49284   2.296  15.073   9.550 -0.1244  0.0983  0.0245
33101ION     NA49285  14.453   7.961   9.610  0.1439 -0.0347  0.1110
33102ION     NA49286  18.748  10.145   9.515 -0.2102 -0.0906  0.0287
33103ION     NA49287   8.456  14.616   9.637 -0.0955  0.0462 -0.1124
33104ION     NA49288  18.398  19.009  14.472 -0.0444  0.0470  0.3282
33105ION     NA49289   9.485  12.605   1.286  0.1049 -0.2262  0.0056
33106ION     NA49290   0.323  14.684   1.733 -0.1343  0.0298 -0.4331
33107ION     NA49291   8.511  19.019   9.747 -0.0974 -0.3360 -0.0689
33108ION     NA49292   9.669   7.516  10.043 -0.1008 -0.0969 -0.2159
33109ION     NA49293  12.677  12.564   1.213 -0.3875 -0.1118 -0.0075
33110ION     NA49294  15.432  14.945  14.893 -0.1506  0.0740 -0.1457
33111ION     NA49295  14.141  16.373  10.146  0.2711 -0.1268 -0.1026
33112ION     NA49296   1.939  14.994   5.189  0.0069  0.1637 -0.0607
33113ION     NA49297   7.648  17.982  13.575  0.0888 -0.1101 -0.1681
33114ION     NA49298   5.997  10.031   5.348  0.2030  0.2333  0.4241
33115ION     NA49299   2.691   1.550   9.839  0.1271 -0.1110  0.1631
33116ION     NA49300   7.457  16.164   9.637  0.4884  0.0001  0.0245
33117ION     NA49301   7.457   0.144   9.834 -0.2944  0.1036  0.1100
33118ION     NA49302  13.987   7.165   9.564  0.0673 -0.1037  0.0169
33119ION     NA49303   0.979   7.159   1.702  0.0955  0.1881  0.0417
33120ION     NA49304  17.724  11.129   9.573  0.0740 -0.0626  0.1317
33121ION     NA49305  15.333   8.598   9.476  0.0780 -0.0085  0.0692
33122ION     NA49306   5.063   9.915   5.364 -0.1657  0.0346 -0.1127
33123ION     NA49307   5.764   2.442   3.782 -0.0502 -0.0258  0.1592
33124ION     NA49308   4.622   1.559   9.584 -0.1227 -0.2515 -0.0000
33125ION     NA49309  14.121   6.021   3.700  0.0146  0.0934  0.2047
33126ION     NA49310   8.332  18.010  14.976  0.1957  0.3308 -0.3766
33127ION     NA49311   1.092  13.552  12.790 -0.0649  0.2095 -0.0228
33128ION     NA49312  13.323   3.451  11.776  0.4895  0.0765 -0.1046
33129ION     NA49313  17.167  13.862  10.073 -0.4667  0.1823 -0.0802
33130ION     NA49314   5.382  15.643   9.498 -0.1614 -0.2954 -0.3596
33131ION     NA49315  17.215   7.306  10.610 -0.5087 -0.4811  0.1621
33132ION     NA49316  14.746  12.997   9.938 -0.2150  0.1987  0.1067
33133ION     NA49317   8.050   6.351   8.969  0.3835 -0.2268  0.1453
33134ION     NA49318   8.831   3.181  13.267 -0.4157 -0.0393 -0.2210
33135ION     NA49319   4.778  17.952   0.072 -0.1854  0.2887 -0.2373
33136ION     NA49320  13.418  13.147   9.977  0.1555  0.1345 -0.1882
33137ION     NA49321  15.709   8.088   5.260  0.0509 -0.0340 -0.1268
33138ION     NA49322  11.748  18.816   9.833  0.2687  0.2264  0.0705
33139ION     NA49323  12.738   2.352   9.646 -0.3257  0.1172 -0.0368
33140ION     NA49324   2.291   8.123   9.611  0.0639  0.0682  0.0325
33141ION     NA49325   4.843   9.175   9.515  0.1116  0.3144  0.3870
33142ION     NA49326   4.037  17.749   9.712  0.1642  0.2095 -0.1612
33143ION     NA49327   7.009  11.373  13.786  0.2778  0.2348  0.1237
33144ION     NA49328  14.893   1.046   9.574  0.2191  0.0161  0.0694
33145ION     NA49329  18.369   3.589   4.421 -0.1125  0.1914 -0.2001
33146ION     NA49330  17.242  12.304   9.898 -0.1494 -0.2602 -0.2309
33147ION     NA49331   0.675  11.483   5.287 -0.1058 -0.1859  0.1783
33148ION     NA49332  17.627   9.443   0.521  0.1115  0.2550 -0.1962
33149ION     NA49333   0.652   1.393   5.556 -0.0877 -0.1108  0.1146
33150ION     NA49334  14.352   0.475   5.318  0.2882 -0.1437 -0.4407
33151ION     NA49335   7.800  15.269   9.540  0.0868 -0.3300 -0.1809
33152ION     NA49336   7.204   5.592   9.132  0.1849 -0.1540 -0.0082
33153ION     NA49337   0.615  16.181   5.509  0.2433 -0.2719 -0.3562
33154ION     NA49338  13.377   4.351   9.055 -0.0690  0.0794 -0.0056
33155ION     NA49339  18.412  18.149   2.531 -0.4258 -0.2959 -0.2547
33156ION     NA49340  11.010  14.454   5.450 -0.0917 -0.1825  0.1994
33157ION     NA49341   3.712  11.284   9.448 -0.0411  0.0464  0.1732
33158ION     NA49342   7.980   3.287   2.426 -0.3357 -0.1019  0.1287
33159ION     NA49343  18.155   2.728   9.547  0.1342 -0.1591  0.0111
33160ION     NA49344  15.847   6.021   9.218 -0.1652 -0.2548 -0.0903
33161ION     NA49345   4.433   2.380   9.372 -0.0551 -0.1028 -0.1218
33162ION     NA49346   1.601  10.211   5.576  0.2503  0.3437  0.1734
33163ION     NA49347  18.026  12.478   0.788 -0.1340 -0.1305 -0.0125
33164ION     NA49348  12.703  13.281   9.879  0.3590  0.0647  0.0599
  19.38498  19.38498  14.98306
