INSANE! Membrane UpperLeaflet>loPI:POPI:DPPI:PYPI:ERGO=180.0:5.0:3.0:2.0:10.0 LowerLeaflet>PSPI:POPI:POPS:YOPS:POPE:YOPE:POPC:YOPC:ERGO=6.0:14.0:21.0:9.0:9.0:21.0:12.0:48.0:60.0
49348
    1loPI    C1    1   1.820  11.658  10.851 -0.0675 -0.2191 -0.1546
    1loPI    C2    2   1.734  11.398  11.142  0.0379  0.0448  0.1168
    1loPI    C3    3   1.669  11.789  11.197 -0.0310  0.0883 -0.2520
    1loPI   PO4    4   1.783  11.546  10.508  0.0729 -0.0342  0.3803
    1loPI   GL1    5   1.837  11.820  10.053 -0.2751 -0.2078  0.0972
    1loPI   GL2    6   1.952  11.579  10.047  0.1301  0.1366 -0.1483
    1loPI   C1A    7   1.527  11.776   9.662 -0.4350 -0.1237 -0.2087
    1loPI   C2A    8   1.453  11.669   9.210  0.1358  0.0414 -0.1175
    1loPI   C3A    9   1.415  11.633   8.803  0.0822  0.1353 -0.2764
    1loPI   C4A   10   1.500  11.722   8.403  0.0005 -0.2692  0.1743
    1loPI   C5A   11   1.477  11.856   7.985 -0.2073  0.2651  0.0135
    1loPI   C6A   12   1.635  11.896   7.519  0.1626  0.1732  0.2779
    1loPI   C1B   13   1.916  11.517   9.590 -0.0066 -0.1456  0.2772
    1loPI   C2B   14   1.934  11.508   9.150 -0.0450 -0.0658 -0.0685
    1loPI   C3B   15   1.985  11.552   8.646 -0.2289 -0.1637 -0.0062
    1loPI   C4B   16   1.975  11.630   8.329 -0.2794  0.1294 -0.2161
    2loPI    C1   17   1.536   7.285  10.469 -0.1729  0.0398 -0.0410
    2loPI    C2   18   1.212   7.344  10.242 -0.3189 -0.2020  0.0994
    2loPI    C3   19   1.171   7.229  10.623 -0.0676 -0.2022  0.1284
    2loPI   PO4   20   1.701   7.513  10.423  0.1741  0.1772 -0.2591
    2loPI   GL1   21   1.561   7.660  10.079  0.3329 -0.1330  0.1057
    2loPI   GL2   22   1.972   7.566   9.984  0.2993  0.0762  0.0281
    2loPI   C1A   23   1.684   7.893   9.709  0.0574 -0.1720 -0.0844
    2loPI   C2A   24   1.655   7.966   9.321  0.3658  0.1765  0.1842
    2loPI   C3A   25   1.623   7.960   8.831  0.0790  0.3742  0.1919
    2loPI   C4A   26   1.540   7.912   8.403  0.0473 -0.0286  0.0053
    2loPI   C5A   27   1.701   7.967   8.013 -0.1133  0.1679 -0.2535
    2loPI   C6A   28   1.817   8.244   7.745 -0.2595  0.1732  0.1998
    2loPI   C1B   29   2.126   7.749   9.629 -0.1775  0.2947 -0.0424
    2loPI   C2B   30   2.097   7.708   9.163 -0.1418 -0.1024 -0.0064
    2loPI   C3B   31   2.131   7.768   8.766 -0.2140 -0.0953  0.1586
    2loPI   C4B   32   2.052   7.774   8.322 -0.0098  0.2629  0.0587
    3loPI    C1   33   7.810   6.969  10.843 -0.1685 -0.2852  0.2839
    3loPI    C2   34   7.755   7.351  10.740  0.0288 -0.3615 -0.1224
    3loPI    C3   35   7.640   7.224  11.101  0.0287  0.0963  0.0460
    3loPI   PO4   36   7.770   6.813  10.615 -0.2952 -0.0276 -0.2793
    3loPI   GL1   37   7.512   6.807  10.304  0.0070 -0.0050 -0.0640
    3loPI   GL2   38   7.398   6.643  10.248 -0.0519  0.0480  0.1332
    3loPI   C1A   39   7.573   6.913   9.811  0.0507 -0.1286  0.1396
    3loPI   C2A   40   7.625   6.985   9.404  0.0263 -0.3140  0.0692
    3loPI   C3A   41   7.699   6.863   9.054 -0.0583 -0.1161 -0.1059
    3loPI   C4A   42   7.787   6.832   8.588 -0.4435  0.2210  0.0947
    3loPI   C5A   43   7.819   6.558   8.245  0.2680  0.0269  0.1124
    3loPI   C6A   44   8.012   6.613   7.798 -0.0215 -0.1018  0.1558
    3loPI   C1B   45   7.227   6.473   9.896 -0.1509 -0.3762  0.1048
    3loPI   C2B   46   7.228   6.622   9.524  0.1154 -0.0726 -0.2523
    3loPI   C3B   47   7.381   6.519   9.198 -0.1942 -0.0253  0.2514
    3loPI   C4B   48   7.400   6.563   8.793  0.6836  0.2240 -0.0803
    4loPI    C1   49  16.513   4.588  10.670 -0.2852  0.1393  0.3179
    4loPI    C2   50  16.834   4.428  10.847 -0.2477 -0.2323 -0.0700
    4loPI    C3   51  16.817   4.823  10.784  0.0971 -0.1984  0.0247
    4loPI   PO4   52  16.459   4.502  10.409 -0.1802  0.1398 -0.1297
    4loPI   GL1   53  16.572   4.707   9.949 -0.0673 -0.6408 -0.4161
    4loPI   GL2   54  16.309   4.585   9.898 -0.2823 -0.1159 -0.1777
    4loPI   C1A   55  16.649   4.866   9.569 -0.1237 -0.0129 -0.2392
    4loPI   C2A   56  16.760   4.919   9.182 -0.0871 -0.1719  0.0406
    4loPI   C3A   57  16.819   4.942   8.788  0.2375 -0.1495  0.2288
    4loPI   C4A   58  16.829   4.986   8.283  0.1553 -0.1328  0.1423
    4loPI   C5A   59  16.863   4.901   7.911  0.2137 -0.1429 -0.1461
    4loPI   C6A   60  17.211   4.749   7.760  0.4493  0.2230 -0.0424
    4loPI   C1B   61  16.300   4.549   9.490  0.1205  0.1812  0.3527
    4loPI   C2B   62  16.400   4.549   9.049  0.2308  0.2142 -0.0878
    4loPI   C3B   63  16.525   4.619   8.521 -0.0400 -0.2576 -0.0183
    4loPI   C4B   64  16.416   4.755   8.129  0.0274 -0.0146 -0.1610
    5loPI    C1   65  15.914   3.213  10.181  0.0140 -0.0297  0.1094
    5loPI    C2   66  16.102   3.566  10.190 -0.1065  0.0321  0.2321
    5loPI    C3   67  16.240   3.260  10.409  0.2019 -0.1025 -0.1400
    5loPI   PO4   68  15.685   3.285  10.066  0.0917  0.0332  0.2868
    5loPI   GL1   69  15.692   3.585   9.756  0.1332  0.0610  0.0284
    5loPI   GL2   70  15.989   3.719   9.758  0.2458 -0.0255  0.0610
    5loPI   C1A   71  15.606   3.782   9.325 -0.0990 -0.3914  0.0926
    5loPI   C2A   72  15.715   3.850   8.935 -0.1832  0.2687 -0.1392
    5loPI   C3A   73  15.687   3.887   8.573 -0.0520 -0.1787 -0.1100
    5loPI   C4A   74  15.831   3.882   8.131 -0.1474  0.1105  0.0068
    5loPI   C5A   75  15.887   4.238   7.792 -0.0444 -0.0048 -0.1997
    5loPI   C6A   76  16.032   4.742   7.843  0.0822  0.1397  0.0665
    5loPI   C1B   77  16.084   3.763   9.257  0.0281  0.2786  0.0411
    5loPI   C2B   78  16.212   3.646   8.780  0.0124 -0.1844 -0.0415
    5loPI   C3B   79  16.165   3.524   8.357 -0.0502  0.0461  0.1686
    5loPI   C4B   80  16.329   3.782   7.935 -0.2468 -0.0641 -0.0558
    6loPI    C1   81  13.255  16.768  10.504  0.0736  0.2425  0.0425
    6loPI    C2   82  13.005  17.052  10.636 -0.0589  0.1004  0.1011
    6loPI    C3   83  12.998  16.688  10.800  0.0408  0.0332 -0.0415
    6loPI   PO4   84  13.240  16.778  10.281  0.1775  0.0862 -0.0193
    6loPI   GL1   85  12.890  16.798   9.994  0.2503 -0.1225  0.0891
    6loPI   GL2   86  13.032  17.048   9.886 -0.3675  0.0332 -0.2486
    6loPI   C1A   87  12.509  16.724   9.742 -0.1122 -0.0214  0.1542
    6loPI   C2A   88  12.446  16.695   9.377  0.0931 -0.3433  0.2079
    6loPI   C3A   89  12.431  16.534   8.931  0.0596  0.1746  0.0146
    6loPI   C4A   90  12.338  16.670   8.528  0.0438  0.2083 -0.2091
    6loPI   C5A   91  12.223  16.609   8.135 -0.2356  0.1008  0.4352
    6loPI   C6A   92  12.078  16.288   7.943 -0.0067  0.2627 -0.4272
    6loPI   C1B   93  12.812  17.038   9.469  0.2093 -0.1576  0.1033
    6loPI   C2B   94  12.746  17.023   8.989 -0.0085 -0.4077  0.0984
    6loPI   C3B   95  12.741  16.954   8.580 -0.1287 -0.0547 -0.0941
    6loPI   C4B   96  12.628  16.927   8.192 -0.0536  0.0243  0.3533
    7loPI    C1   97   8.067   6.241  10.846  0.1353  0.0644  0.0086
    7loPI    C2   98   7.853   6.485  11.080  0.3570  0.1032  0.1746
    7loPI    C3   99   8.035   6.166  11.238  0.3517  0.0221  0.0192
    7loPI   PO4  100   7.992   6.285  10.652  0.1147 -0.3841  0.0265
    7loPI   GL1  101   8.165   6.009  10.354 -0.1750 -0.0264  0.0015
    7loPI   GL2  102   8.407   5.744  10.457 -0.0680 -0.3002  0.0205
    7loPI   C1A  103   8.244   6.211  10.054  0.2945  0.1263 -0.3266
    7loPI   C2A  104   8.228   6.306   9.585 -0.1036 -0.1407 -0.0630
    7loPI   C3A  105   8.335   6.071   9.310 -0.0719 -0.1272  0.1025
    7loPI   C4A  106   8.434   6.190   8.930 -0.3504 -0.0690  0.2835
    7loPI   C5A  107   8.305   6.117   8.416 -0.1937  0.1358  0.1256
    7loPI   C6A  108   8.268   5.764   8.250 -0.1270  0.0188 -0.0325
    7loPI   C1B  109   8.396   5.733   9.972 -0.1016  0.0959 -0.1040
    7loPI   C2B  110   8.454   5.652   9.505 -0.2027  0.1487  0.2005
    7loPI   C3B  111   8.494   5.619   9.069  0.2243  0.1516  0.2333
    7loPI   C4B  112   8.527   5.757   8.668  0.0934  0.0768 -0.0254
    8loPI    C1  113   1.243  17.651   9.947 -0.0337  0.3149  0.0676
    8loPI    C2  114   1.548  17.609  10.202 -0.1647 -0.0171  0.1741
    8loPI    C3  115   1.232  17.833  10.303 -0.2544 -0.2158  0.3426
    8loPI   PO4  116   1.290  17.652   9.662  0.1521 -0.0983 -0.1989
    8loPI   GL1  117   1.331  17.459   9.375  0.1505  0.1184 -0.0142
    8loPI   GL2  118   1.033  17.308   9.432 -0.0161 -0.2023  0.4975
    8loPI   C1A  119   1.248  17.489   9.001  0.3894 -0.2356 -0.1416
    8loPI   C2A  120   1.289  17.538   8.625 -0.2811 -0.0452 -0.1557
    8loPI   C3A  121   1.303  17.596   8.204 -0.0235  0.2307  0.3154
    8loPI   C4A  122   1.388  17.490   7.870  0.0569  0.1596  0.4539
    8loPI   C5A  123   1.533  17.321   7.547  0.2332 -0.0105 -0.1631
    8loPI   C6A  124   1.238  16.988   7.272 -0.1172 -0.1277 -0.1000
    8loPI   C1B  125   0.925  17.127   9.104  0.0988 -0.4049 -0.0059
    8loPI   C2B  126   0.888  17.169   8.699  0.1262  0.0584 -0.3627
    8loPI   C3B  127   0.920  17.367   8.382  0.0710 -0.2778 -0.0173
    8loPI   C4B  128   0.746  17.336   8.000  0.2042  0.1355  0.0032
    9loPI    C1  129  15.466  12.121  10.580  0.0477  0.0261 -0.0164
    9loPI    C2  130  15.403  11.887  10.898 -0.0637 -0.0752 -0.1116
    9loPI    C3  131  15.255  12.259  10.890 -0.1943 -0.1265 -0.1094
    9loPI   PO4  132  15.556  12.004  10.314 -0.1878  0.2103 -0.1499
    9loPI   GL1  133  15.861  12.112  10.060 -0.1461 -0.1386 -0.1395
    9loPI   GL2  134  16.067  11.856  10.084 -0.1037 -0.1205 -0.1438
    9loPI   C1A  135  15.987  12.281   9.726 -0.5114 -0.0396  0.1008
    9loPI   C2A  136  16.073  12.312   9.393  0.2186 -0.6002 -0.1995
    9loPI   C3A  137  16.130  12.256   8.959 -0.0624  0.1073 -0.1156
    9loPI   C4A  138  16.010  12.155   8.517  0.1700 -0.1446 -0.2973
    9loPI   C5A  139  15.992  11.986   8.130  0.1060 -0.0899 -0.2877
    9loPI   C6A  140  15.811  11.713   7.939 -0.0158 -0.0625 -0.1219
    9loPI   C1B  141  16.204  11.681   9.685  0.0188  0.3025 -0.2533
    9loPI   C2B  142  16.194  11.730   9.315  0.0819 -0.1486  0.0127
    9loPI   C3B  143  16.248  11.693   8.875  0.1078  0.1477  0.3909
    9loPI   C4B  144  16.331  11.713   8.432 -0.1135 -0.1535 -0.3101
   10loPI    C1  145   2.597  11.606  10.946 -0.0650  0.1214  0.0956
   10loPI    C2  146   2.676  11.235  11.073  0.1914  0.1054 -0.1002
   10loPI    C3  147   2.941  11.528  11.134  0.0291  0.2386 -0.0254
   10loPI   PO4  148   2.506  11.519  10.649  0.1321 -0.3586 -0.2948
   10loPI   GL1  149   2.605  11.429  10.113  0.1788 -0.1129  0.2146
   10loPI   GL2  150   2.802  11.731  10.250  0.0426 -0.1833 -0.0111
   10loPI   C1A  151   2.470  11.416   9.660 -0.1425 -0.0635  0.1418
   10loPI   C2A  152   2.518  11.430   9.230 -0.1179  0.2362  0.3037
   10loPI   C3A  153   2.369  11.409   8.890  0.2244  0.1930 -0.2564
   10loPI   C4A  154   2.424  11.409   8.469 -0.3220  0.1508  0.0526
   10loPI   C5A  155   2.615  11.544   8.198  0.1506 -0.0542 -0.0783
   10loPI   C6A  156   2.938  11.499   7.832  0.1201  0.3025  0.1611
   10loPI   C1B  157   2.922  11.820   9.866  0.0114  0.1160  0.3294
   10loPI   C2B  158   2.829  11.795   9.468 -0.0877 -0.2424 -0.2714
   10loPI   C3B  159   2.829  11.826   9.061  0.0383 -0.1074  0.2065
   10loPI   C4B  160   2.813  11.753   8.661 -0.1622 -0.1529 -0.0514
   11loPI    C1  161   0.718  16.105  10.487 -0.0149 -0.1440  0.0693
   11loPI    C2  162   1.069  16.296  10.469 -0.1467  0.0881 -0.0931
   11loPI    C3  163   0.930  16.165  10.820 -0.0967  0.3744  0.0364
   11loPI   PO4  164   0.667  16.183  10.218 -0.2664  0.2494  0.1523
   11loPI   GL1  165   0.632  16.022   9.790 -0.1315 -0.0079 -0.1540
   11loPI   GL2  166   0.663  16.251   9.653  0.1362 -0.1410 -0.0532
   11loPI   C1A  167   0.352  15.755   9.486  0.1987  0.5306 -0.1312
   11loPI   C2A  168   0.250  15.730   9.112 -0.0487 -0.1980  0.2310
   11loPI   C3A  169   0.331  15.849   8.708 -0.0264 -0.0204  0.1258
   11loPI   C4A  170   0.159  15.787   8.306  0.2448 -0.1645  0.2632
   11loPI   C5A  171   0.345  15.644   7.945  0.0436  0.0019 -0.2706
   11loPI   C6A  172   0.501  15.786   7.606  0.0484 -0.0730 -0.1075
   11loPI   C1B  173   0.760  16.233   9.142  0.2127 -0.1140  0.1477
   11loPI   C2B  174   0.772  16.102   8.713  0.3116 -0.2577 -0.2433
   11loPI   C3B  175   1.041  16.247   8.246 -0.2228  0.2044 -0.2709
   11loPI   C4B  176   0.956  16.146   7.807  0.0865 -0.0896  0.1384
   12loPI    C1  177  16.037   2.287  10.008  0.2140 -0.0546  0.0698
   12loPI    C2  178  15.741   2.050  10.134  0.1069  0.0953  0.1029
   12loPI    C3  179  16.074   2.085  10.351  0.2061 -0.1770 -0.0011
   12loPI   PO4  180  15.942   2.438   9.783  0.1921 -0.0636 -0.0245
   12loPI   GL1  181  15.875   2.417   9.428  0.0536  0.0139  0.2875
   12loPI   GL2  182  16.121   2.420   9.097  0.0123  0.0611  0.1266
   12loPI   C1A  183  15.624   2.446   9.120 -0.1738 -0.0211 -0.1063
   12loPI   C2A  184  15.515   2.478   8.680 -0.0729  0.2654 -0.3103
   12loPI   C3A  185  15.522   2.496   8.170 -0.0420  0.1898  0.0739
   12loPI   C4A  186  15.622   2.509   7.797 -0.0944 -0.0288  0.2244
   12loPI   C5A  187  15.958   2.668   7.563 -0.0835 -0.0077  0.0229
   12loPI   C6A  188  16.402   2.761   7.594 -0.0556 -0.2229 -0.1459
   12loPI   C1B  189  16.309   2.305   8.762  0.0722 -0.3890 -0.0926
   12loPI   C2B  190  16.423   1.978   8.391  0.0728  0.1034 -0.1621
   12loPI   C3B  191  16.492   2.156   7.994 -0.0114  0.0053 -0.4115
   12loPI   C4B  192  16.320   2.323   7.667 -0.2628  0.1341  0.0057
   13loPI    C1  193  13.988  15.715  10.092 -0.1781  0.0016  0.0023
   13loPI    C2  194  14.125  15.588  10.445 -0.0502  0.3444  0.0803
   13loPI    C3  195  14.365  15.586  10.125 -0.1465  0.0949  0.0068
   13loPI   PO4  196  13.764  15.943  10.125 -0.1138 -0.2256  0.0281
   13loPI   GL1  197  13.641  16.179   9.826  0.2457  0.1937  0.1370
   13loPI   GL2  198  13.922  16.001   9.652  0.0065 -0.2398  0.1177
   13loPI   C1A  199  13.326  16.108   9.540  0.4352 -0.1755 -0.0877
   13loPI   C2A  200  13.019  16.053   9.319  0.0052  0.0604 -0.0232
   13loPI   C3A  201  13.050  15.887   8.921  0.0012  0.1075 -0.0780
   13loPI   C4A  202  13.130  15.782   8.472  0.4420  0.1050 -0.1957
   13loPI   C5A  203  12.871  15.455   8.205  0.1859 -0.0617  0.2141
   13loPI   C6A  204  12.627  15.150   8.033  0.2158 -0.0668  0.3627
   13loPI   C1B  205  13.918  16.189   9.321 -0.0895  0.0013 -0.0609
   13loPI   C2B  206  13.779  16.576   8.992  0.1613  0.1354 -0.5391
   13loPI   C3B  207  13.937  16.791   8.689 -0.4173  0.2263 -0.2352
   13loPI   C4B  208  13.705  16.774   8.376  0.0050  0.1797 -0.1985
   14loPI    C1  209  10.185  13.945  10.745  0.2205 -0.2320  0.1144
   14loPI    C2  210   9.835  13.758  10.691  0.0113  0.1891 -0.0380
   14loPI    C3  211   9.921  13.924  11.045 -0.0346  0.2646 -0.0618
   14loPI   PO4  212  10.187  14.120  10.535 -0.0847  0.1579 -0.1667
   14loPI   GL1  213   9.973  14.154  10.291  0.0286  0.2839 -0.0074
   14loPI   GL2  214  10.135  14.459  10.077 -0.0069  0.1581 -0.1097
   14loPI   C1A  215   9.864  13.995   9.924 -0.0930  0.3533  0.0785
   14loPI   C2A  216   9.831  14.097   9.442 -0.0860 -0.3295 -0.1716
   14loPI   C3A  217   9.961  13.957   9.121  0.0461 -0.4695 -0.1379
   14loPI   C4A  218   9.935  13.847   8.739  0.3829  0.2989 -0.1089
   14loPI   C5A  219   9.834  13.759   8.337  0.1934  0.1855 -0.0338
   14loPI   C6A  220   9.629  13.707   7.937  0.2812  0.2564 -0.2655
   14loPI   C1B  221  10.143  14.355   9.636 -0.1013  0.0369 -0.1829
   14loPI   C2B  222  10.246  14.344   9.178 -0.1008 -0.0175 -0.0315
   14loPI   C3B  223  10.327  14.285   8.768 -0.1504 -0.2683  0.0955
   14loPI   C4B  224  10.364  13.917   8.383  0.1891  0.2782  0.0849
   15loPI    C1  225  13.665   6.733  10.612 -0.0600  0.1153  0.2049
   15loPI    C2  226  13.295   6.583  10.585  0.1240 -0.2731 -0.3477
   15loPI    C3  227  13.522   6.499  10.904 -0.2512 -0.0415 -0.0105
   15loPI   PO4  228  13.756   6.739  10.391 -0.0077  0.0260 -0.0582
   15loPI   GL1  229  13.447   6.695  10.095  0.0089 -0.1058  0.1175
   15loPI   GL2  230  13.387   6.388  10.078  0.3301 -0.1019  0.2370
   15loPI   C1A  231  13.389   6.864   9.703  0.1027 -0.2757 -0.0574
   15loPI   C2A  232  13.387   6.860   9.319 -0.0733 -0.2327  0.2323
   15loPI   C3A  233  13.312   6.807   8.900 -0.1397  0.0007 -0.1331
   15loPI   C4A  234  13.497   6.737   8.546 -0.0643  0.1184 -0.0296
   15loPI   C5A  235  13.424   6.749   8.069 -0.1210 -0.2268 -0.3311
   15loPI   C6A  236  13.484   6.561   7.687  0.3874 -0.1525 -0.0907
   15loPI   C1B  237  13.490   6.325   9.611 -0.0084  0.1588 -0.1226
   15loPI   C2B  238  13.467   6.346   9.195  0.1538  0.2603  0.0420
   15loPI   C3B  239  13.597   6.261   8.830 -0.0158  0.1847 -0.2367
   15loPI   C4B  240  13.731   6.247   8.455 -0.1802  0.0139  0.0943
   16loPI    C1  241   7.232   8.338  10.635  0.2369  0.0426  0.0313
   16loPI    C2  242   7.279   8.589  10.942 -0.0119  0.1161  0.0116
   16loPI    C3  243   7.063   8.256  10.988  0.1167  0.0266 -0.0292
   16loPI   PO4  244   7.157   8.374  10.440 -0.1837 -0.1299 -0.2830
   16loPI   GL1  245   7.341   8.453  10.053 -0.1656 -0.2216 -0.0006
   16loPI   GL2  246   7.238   8.733  10.099  0.2327 -0.0644 -0.3191
   16loPI   C1A  247   7.193   8.397   9.662  0.0118 -0.4229  0.0123
   16loPI   C2A  248   7.196   8.420   9.259 -0.1215 -0.3250  0.1460
   16loPI   C3A  249   7.177   8.438   8.798 -0.0885  0.3770  0.1457
   16loPI   C4A  250   7.334   8.384   8.293 -0.3612 -0.1348  0.0043
   16loPI   C5A  251   7.338   8.715   8.046 -0.1034 -0.1660  0.0370
   16loPI   C6A  252   6.947   8.920   8.064 -0.3566 -0.1582  0.2066
   16loPI   C1B  253   7.111   8.906   9.729  0.0543 -0.3274 -0.3481
   16loPI   C2B  254   7.169   8.867   9.375 -0.1358 -0.0804 -0.3372
   16loPI   C3B  255   7.066   8.948   9.032  0.1731 -0.2016 -0.0324
   16loPI   C4B  256   6.965   8.932   8.638 -0.1800 -0.1725 -0.2944
   17loPI    C1  257   7.416   7.921  10.774 -0.1116  0.1857  0.2706
   17loPI    C2  258   7.813   7.959  10.750 -0.1135  0.2012  0.2636
   17loPI    C3  259   7.650   7.748  11.048 -0.0907  0.0230  0.1513
   17loPI   PO4  260   7.332   7.810  10.560 -0.0618  0.2371  0.1141
   17loPI   GL1  261   7.129   7.946  10.240 -0.2039  0.0702 -0.1409
   17loPI   GL2  262   6.858   8.074  10.229  0.0124  0.1059 -0.4165
   17loPI   C1A  263   7.336   7.891   9.870 -0.0019 -0.0365 -0.3609
   17loPI   C2A  264   7.388   7.941   9.510  0.2193 -0.0651  0.3604
   17loPI   C3A  265   7.320   7.865   9.005  0.0920 -0.1318 -0.0021
   17loPI   C4A  266   7.362   7.747   8.554  0.0600 -0.1472 -0.2513
   17loPI   C5A  267   7.130   7.937   8.162  0.1202  0.0521 -0.0544
   17loPI   C6A  268   6.872   7.943   7.980 -0.1901  0.2804  0.1548
   17loPI   C1B  269   6.877   8.011   9.752  0.2007 -0.2469 -0.1750
   17loPI   C2B  270   6.904   8.037   9.401  0.0356  0.3877  0.2063
   17loPI   C3B  271   6.864   8.039   8.960 -0.1848  0.2019 -0.1890
   17loPI   C4B  272   6.910   7.992   8.583  0.0961  0.0559 -0.1881
   18loPI    C1  273   0.581  11.004  10.658 -0.1701 -0.1091  0.3347
   18loPI    C2  274   0.506  11.340  10.455  0.1103 -0.0789  0.2779
   18loPI    C3  275   0.421  11.319  10.845 -0.1934 -0.0498  0.2158
   18loPI   PO4  276   0.415  10.794  10.488  0.0231 -0.1535  0.1730
   18loPI   GL1  277   0.630  10.731  10.139  0.0393  0.1526  0.1502
   18loPI   GL2  278   0.442  10.532   9.996  0.1611 -0.3823  0.1162
   18loPI   C1A  279   0.755  10.891   9.669  0.2952  0.3025 -0.1625
   18loPI   C2A  280   0.592  10.933   9.296 -0.2013 -0.4142 -0.0551
   18loPI   C3A  281   0.662  10.919   8.932  0.1844 -0.0090  0.1312
   18loPI   C4A  282   0.797  10.884   8.502 -0.1901  0.0289 -0.0069
   18loPI   C5A  283   0.854  10.782   8.201 -0.1995 -0.1903  0.2352
   18loPI   C6A  284   1.219  10.718   8.009  0.2673  0.1334  0.0774
   18loPI   C1B  285   0.387  10.551   9.701  0.1933 -0.2196 -0.3500
   18loPI   C2B  286   0.346  10.504   9.280  0.2057 -0.3365 -0.0710
   18loPI   C3B  287   0.305  10.466   8.774  0.2033 -0.3352 -0.0221
   18loPI   C4B  288   0.422  10.420   8.285 -0.0537 -0.3796  0.2974
   19loPI    C1  289  14.020   4.687  10.624 -0.1089 -0.0078  0.2683
   19loPI    C2  290  14.103   4.307  10.716  0.0282 -0.0437  0.0033
   19loPI    C3  291  13.900   4.535  10.974 -0.0662 -0.2997  0.1584
   19loPI   PO4  292  13.974   4.738  10.361 -0.2464 -0.0561 -0.2678
   19loPI   GL1  293  13.836   4.831  10.006  0.1830  0.4029 -0.1691
   19loPI   GL2  294  13.543   4.844  10.001  0.3233  0.1655  0.1630
   19loPI   C1A  295  13.952   4.749   9.610 -0.1715  0.3647  0.1769
   19loPI   C2A  296  13.978   4.695   9.127  0.0592  0.2162  0.0653
   19loPI   C3A  297  13.937   4.628   8.715  0.1413  0.1143 -0.1632
   19loPI   C4A  298  13.977   4.752   8.305  0.4019 -0.0772  0.1141
   19loPI   C5A  299  13.864   5.111   7.966  0.2823 -0.0029 -0.1158
   19loPI   C6A  300  13.556   5.434   7.828  0.0256  0.0624 -0.1140
   19loPI   C1B  301  13.474   4.835   9.618  0.3512  0.3815 -0.1241
   19loPI   C2B  302  13.310   4.947   9.167  0.0182  0.1445 -0.1422
   19loPI   C3B  303  13.456   4.823   8.845 -0.1213 -0.3246  0.0520
   19loPI   C4B  304  13.494   4.870   8.387 -0.1826 -0.1703  0.2990
   20loPI    C1  305   2.075   9.118  10.869 -0.0327  0.0992  0.0649
   20loPI    C2  306   2.109   8.996  11.249 -0.0804 -0.0456  0.0235
   20loPI    C3  307   2.081   8.727  10.954  0.1128  0.0649 -0.0976
   20loPI   PO4  308   2.301   9.249  10.750  0.2199 -0.1411 -0.1441
   20loPI   GL1  309   2.665   9.238  10.321  0.0263  0.2444  0.2154
   20loPI   GL2  310   2.710   8.982  10.097  0.0441 -0.2918 -0.2783
   20loPI   C1A  311   2.589   9.521  10.013  0.0103 -0.3296 -0.0112
   20loPI   C2A  312   2.628   9.558   9.543  0.0379  0.0784  0.0564
   20loPI   C3A  313   2.484   9.526   9.107  0.0684 -0.0722  0.2603
   20loPI   C4A  314   2.487   9.395   8.687  0.1049 -0.0671  0.2086
   20loPI   C5A  315   2.472   9.463   8.319 -0.1226 -0.0415  0.2748
   20loPI   C6A  316   2.599   9.287   7.923  0.0958  0.1091 -0.0146
   20loPI   C1B  317   2.811   9.058   9.593  0.1947  0.0488 -0.2863
   20loPI   C2B  318   2.769   9.139   9.161  0.3191  0.0980  0.3553
   20loPI   C3B  319   2.724   8.978   8.760 -0.1550 -0.0202 -0.3488
   20loPI   C4B  320   2.755   9.049   8.292  0.0691  0.2361  0.0622
   21loPI    C1  321  14.460   9.645  10.751  0.0687 -0.0251 -0.2305
   21loPI    C2  322  14.255   9.777  11.068  0.0479 -0.4054 -0.0803
   21loPI    C3  323  14.606   9.591  11.119  0.1149 -0.3405 -0.2917
   21loPI   PO4  324  14.296   9.565  10.611 -0.3534  0.2185  0.1164
   21loPI   GL1  325  13.992   9.595  10.312 -0.1159 -0.1505  0.0207
   21loPI   GL2  326  14.224   9.406  10.096  0.1264  0.1608 -0.0085
   21loPI   C1A  327  13.588   9.560  10.030 -0.0603 -0.1064  0.4105
   21loPI   C2A  328  13.593   9.575   9.637  0.1254  0.0417 -0.2394
   21loPI   C3A  329  13.520   9.660   9.224 -0.0708 -0.3023  0.1073
   21loPI   C4A  330  13.543   9.598   8.774 -0.1392 -0.1041 -0.1084
   21loPI   C5A  331  13.506   9.597   8.307  0.2767  0.2058  0.0869
   21loPI   C6A  332  13.427   9.734   7.850 -0.0370  0.3022  0.0662
   21loPI   C1B  333  14.103   9.508   9.697 -0.0918 -0.1041 -0.1685
   21loPI   C2B  334  14.028   9.568   9.297 -0.1883  0.4378 -0.0329
   21loPI   C3B  335  14.024   9.460   8.878 -0.1674  0.0293 -0.1131
   21loPI   C4B  336  14.056   9.443   8.430 -0.0301  0.0964  0.1230
   22loPI    C1  337  12.078   2.537  10.503 -0.0608  0.0498  0.1144
   22loPI    C2  338  12.132   2.539  10.107  0.0513  0.3038  0.1290
   22loPI    C3  339  12.082   2.193  10.300 -0.0107  0.1789 -0.1070
   22loPI   PO4  340  11.960   2.775  10.514 -0.0025 -0.2128  0.3118
   22loPI   GL1  341  11.611   2.911  10.226 -0.0269 -0.1316  0.1075
   22loPI   GL2  342  11.374   3.136  10.044 -0.0626  0.1183 -0.2357
   22loPI   C1A  343  11.751   2.708   9.835 -0.2763  0.2674  0.0009
   22loPI   C2A  344  11.783   2.639   9.360 -0.2401 -0.0367 -0.2456
   22loPI   C3A  345  11.801   2.609   8.940  0.3132 -0.0725 -0.2028
   22loPI   C4A  346  11.743   2.476   8.645  0.2697  0.1661 -0.0795
   22loPI   C5A  347  11.755   2.634   8.227 -0.0845 -0.0563 -0.1026
   22loPI   C6A  348  11.965   2.930   8.036  0.0389 -0.1817 -0.3201
   22loPI   C1B  349  11.526   3.105   9.636  0.0218  0.0381 -0.0418
   22loPI   C2B  350  11.614   3.081   9.189  0.3743  0.1296 -0.2214
   22loPI   C3B  351  11.714   3.062   8.653  0.2337 -0.0495 -0.0292
   22loPI   C4B  352  11.564   3.131   8.303  0.0885  0.1254  0.0057
   23loPI    C1  353  17.097   8.272  10.771 -0.0797  0.1554  0.1670
   23loPI    C2  354  16.711   8.370  10.804 -0.0818  0.1747  0.0887
   23loPI    C3  355  16.980   8.531  11.053 -0.1057  0.2642  0.0569
   23loPI   PO4  356  17.023   8.022  10.658  0.1168 -0.1089 -0.0663
   23loPI   GL1  357  17.061   7.881  10.196  0.0944 -0.0046 -0.0398
   23loPI   GL2  358  16.823   7.952  10.206  0.2634 -0.0500  0.1459
   23loPI   C1A  359  17.127   7.995   9.769 -0.2136 -0.2386 -0.1397
   23loPI   C2A  360  17.266   8.083   9.389 -0.0332  0.0717  0.0167
   23loPI   C3A  361  17.259   8.118   8.995 -0.1342 -0.3127 -0.1231
   23loPI   C4A  362  17.243   8.156   8.582 -0.1447 -0.0877  0.3082
   23loPI   C5A  363  17.381   8.184   8.171  0.1180 -0.1722 -0.1386
   23loPI   C6A  364  17.277   8.247   7.750  0.0424 -0.1578  0.0404
   23loPI   C1B  365  16.696   8.210   9.773  0.2776  0.1450  0.0815
   23loPI   C2B  366  16.747   8.232   9.366 -0.0819 -0.2845 -0.1488
   23loPI   C3B  367  16.778   8.186   8.876  0.0705 -0.1398  0.1225
   23loPI   C4B  368  16.774   8.302   8.426 -0.0119  0.0942 -0.0288
   24loPI    C1  369  17.725   7.731  10.923 -0.1511  0.1148  0.0388
   24loPI    C2  370  17.422   7.490  11.021 -0.0702  0.0574  0.1492
   24loPI    C3  371  17.374   7.886  11.038 -0.1406  0.0486  0.1619
   24loPI   PO4  372  17.809   7.619  10.634  0.0245  0.2396 -0.1315
   24loPI   GL1  373  17.770   7.512  10.235 -0.1581 -0.1159 -0.2168
   24loPI   GL2  374  17.911   7.233  10.057 -0.0910  0.0891 -0.2084
   24loPI   C1A  375  17.422   7.613   9.906 -0.0933  0.3589  0.0137
   24loPI   C2A  376  17.314   7.555   9.539  0.0517  0.0045 -0.1396
   24loPI   C3A  377  17.343   7.594   9.157  0.0431 -0.2611  0.2232
   24loPI   C4A  378  17.383   7.596   8.758 -0.4569 -0.0265  0.1949
   24loPI   C5A  379  17.337   7.675   8.333  0.0757  0.0163  0.2249
   24loPI   C6A  380  17.327   7.681   7.821 -0.0340  0.0153  0.1250
   24loPI   C1B  381  17.906   7.526   9.763 -0.2938 -0.1652 -0.1028
   24loPI   C2B  382  17.814   7.405   9.377  0.0912 -0.1876  0.1600
   24loPI   C3B  383  17.918   7.397   8.906 -0.0930 -0.3260  0.0432
   24loPI   C4B  384  17.935   7.445   8.366  0.4921  0.1669 -0.3145
   25loPI    C1  385  17.003  13.283  10.696 -0.1224  0.3000  0.0747
   25loPI    C2  386  16.979  13.656  10.838 -0.0611  0.2926  0.1047
   25loPI    C3  387  17.133  13.364  11.065  0.2824  0.3339 -0.0699
   25loPI   PO4  388  17.102  13.289  10.429 -0.0335  0.2089  0.2272
   25loPI   GL1  389  17.077  13.331   9.965 -0.0834  0.2003 -0.0952
   25loPI   GL2  390  17.039  13.686   9.860 -0.1493  0.0084 -0.1639
   25loPI   C1A  391  16.827  13.048   9.681 -0.0248  0.1362  0.0450
   25loPI   C2A  392  16.755  13.018   9.098  0.3656 -0.2858  0.1924
   25loPI   C3A  393  16.787  12.946   8.656  0.0294  0.2635  0.2092
   25loPI   C4A  394  16.839  12.957   8.280 -0.2766  0.0822  0.1119
   25loPI   C5A  395  16.786  12.797   7.903  0.0429  0.2663 -0.2230
   25loPI   C6A  396  17.022  12.558   7.480 -0.1608  0.1339  0.0199
   25loPI   C1B  397  17.026  13.437   9.469 -0.1585  0.1219 -0.2709
   25loPI   C2B  398  17.051  13.419   9.035 -0.0367 -0.0891 -0.1154
   25loPI   C3B  399  17.146  13.407   8.627  0.0495  0.2462  0.2402
   25loPI   C4B  400  17.196  13.262   8.237  0.3347  0.1395  0.2247
   26loPI    C1  401   6.941   3.045  10.866  0.0202 -0.1049 -0.0893
   26loPI    C2  402   6.710   3.078  11.191  0.0139 -0.0009 -0.1041
   26loPI    C3  403   7.085   2.942  11.225 -0.0026 -0.0359 -0.0603
   26loPI   PO4  404   6.787   2.965  10.707  0.2658 -0.1848  0.2623
   26loPI   GL1  405   6.665   3.077  10.285 -0.2633 -0.2244 -0.0947
   26loPI   GL2  406   6.625   3.437  10.184 -0.0349 -0.1868  0.3897
   26loPI   C1A  407   6.679   3.073   9.836  0.1114 -0.0915  0.1821
   26loPI   C2A  408   6.634   3.142   9.482 -0.3335  0.0732  0.4099
   26loPI   C3A  409   6.602   3.186   9.048 -0.4782  0.1704  0.1004
   26loPI   C4A  410   6.740   3.443   8.704  0.0736  0.2367  0.4034
   26loPI   C5A  411   6.959   3.257   8.290 -0.1510  0.4245 -0.0688
   26loPI   C6A  412   7.321   3.355   8.147  0.0733 -0.0091 -0.0103
   26loPI   C1B  413   6.937   3.509   9.787  0.0891  0.4513 -0.0764
   26loPI   C2B  414   7.107   3.681   9.433 -0.1408  0.1743  0.0887
   26loPI   C3B  415   7.110   3.742   9.013 -0.2348  0.0694 -0.2605
   26loPI   C4B  416   7.219   3.791   8.539 -0.0410  0.0536  0.2209
   27loPI    C1  417  11.842  10.302  10.753  0.1335  0.2064  0.0042
   27loPI    C2  418  12.086  10.140  11.025  0.0195 -0.0569 -0.0471
   27loPI    C3  419  11.815  10.412  11.137  0.0007 -0.1335  0.0958
   27loPI   PO4  420  11.881   9.976  10.534  0.3197 -0.0427  0.1762
   27loPI   GL1  421  11.835   9.698  10.148 -0.1378  0.0909  0.0182
   27loPI   GL2  422  12.125   9.625  10.002  0.1618  0.0962  0.2938
   27loPI   C1A  423  11.712   9.646   9.679 -0.1675 -0.1898  0.2954
   27loPI   C2A  424  11.638   9.796   9.126 -0.0704 -0.0564 -0.0634
   27loPI   C3A  425  11.723   9.700   8.788 -0.2095 -0.3002 -0.2242
   27loPI   C4A  426  11.735   9.745   8.240 -0.2186 -0.2490 -0.1478
   27loPI   C5A  427  12.073   9.701   7.862  0.0595 -0.0125 -0.1880
   27loPI   C6A  428  12.383   9.956   7.584  0.0809 -0.2441  0.3508
   27loPI   C1B  429  12.209   9.635   9.526 -0.3180 -0.0333  0.1535
   27loPI   C2B  430  12.175   9.635   9.133  0.1771  0.1065 -0.2536
   27loPI   C3B  431  12.272   9.516   8.711  0.3610  0.2752 -0.2687
   27loPI   C4B  432  12.264   9.592   8.297 -0.2470  0.1338 -0.1557
   28loPI    C1  433   2.577  17.724  10.198 -0.0220 -0.2169 -0.2592
   28loPI    C2  434   2.523  17.363  10.362  0.2148 -0.0617  0.1761
   28loPI    C3  435   2.318  17.678  10.499  0.1382  0.0042 -0.0841
   28loPI   PO4  436   2.766  17.632   9.983 -0.1389  0.1569  0.1022
   28loPI   GL1  437   2.680  17.840   9.541 -0.2229 -0.3419  0.0325
   28loPI   GL2  438   2.584  17.556   9.488  0.2262 -0.0938  0.3522
   28loPI   C1A  439   2.903  18.066   9.213 -0.2040 -0.2000 -0.1678
   28loPI   C2A  440   3.041  18.004   8.853  0.2245 -0.1204  0.0336
   28loPI   C3A  441   3.110  18.130   8.380  0.1239 -0.0839 -0.1784
   28loPI   C4A  442   2.983  18.180   7.968 -0.1934  0.0775  0.0725
   28loPI   C5A  443   3.075  18.050   7.594 -0.1157 -0.1735 -0.1592
   28loPI   C6A  444   3.065  17.691   7.309  0.2496  0.0065  0.1072
   28loPI   C1B  445   2.652  17.615   8.996 -0.2128  0.0946  0.0029
   28loPI   C2B  446   2.734  17.696   8.562  0.0065 -0.2013 -0.1476
   28loPI   C3B  447   2.670  17.842   8.292 -0.2958  0.0622  0.2814
   28loPI   C4B  448   2.551  17.805   7.931  0.1210  0.3369  0.1878
   29loPI    C1  449   2.477   0.424   9.977  0.2019 -0.0919 -0.2376
   29loPI    C2  450   2.233   0.136  10.112 -0.1047  0.2313 -0.0862
   29loPI    C3  451   2.625   0.119  10.190 -0.1037 -0.1897 -0.1592
   29loPI   PO4  452   2.428   0.409   9.773  0.0628  0.1045 -0.0250
   29loPI   GL1  453   2.307   0.582   9.413  0.0668  0.2252 -0.1261
   29loPI   GL2  454   2.279   0.920   9.393 -0.0690  0.0203 -0.1629
   29loPI   C1A  455   2.236   0.346   9.084  0.0356 -0.0482  0.3472
   29loPI   C2A  456   2.366   0.255   8.684  0.0043  0.0182 -0.0997
   29loPI   C3A  457   2.605   0.355   8.261  0.0128  0.0484 -0.0789
   29loPI   C4A  458   2.620   0.550   7.882  0.1974 -0.0072  0.0684
   29loPI   C5A  459   2.661   0.616   7.407 -0.1425  0.0444  0.1051
   29loPI   C6A  460   2.765   1.006   7.271 -0.0971  0.0508 -0.1975
   29loPI   C1B  461   2.311   1.109   8.983  0.2712  0.3717  0.0473
   29loPI   C2B  462   2.468   1.178   8.584 -0.0704 -0.2883 -0.3137
   29loPI   C3B  463   2.545   1.370   8.276  0.3707 -0.2507  0.1771
   29loPI   C4B  464   2.391   1.434   7.824  0.0674 -0.1525  0.2708
   30loPI    C1  465   7.205   9.995  10.687  0.3014  0.2538  0.1504
   30loPI    C2  466   6.814  10.026  10.769  0.1910 -0.3480 -0.0978
   30loPI    C3  467   7.084  10.063  11.063 -0.0430  0.1031  0.0703
   30loPI   PO4  468   7.355  10.196  10.464  0.1272  0.1242 -0.1381
   30loPI   GL1  469   7.343  10.117  10.033 -0.0714 -0.1283 -0.0595
   30loPI   GL2  470   7.289   9.836   9.892 -0.1675 -0.2645 -0.0785
   30loPI   C1A  471   7.183  10.260   9.564 -0.3491  0.3989  0.0329
   30loPI   C2A  472   7.176  10.270   9.182  0.1745  0.3784  0.1591
   30loPI   C3A  473   7.039  10.223   8.777  0.2772  0.1962 -0.1326
   30loPI   C4A  474   7.135  10.292   8.410  0.0428 -0.0179  0.1249
   30loPI   C5A  475   7.241  10.241   7.947 -0.3437 -0.2303  0.3360
   30loPI   C6A  476   7.551  10.348   7.652  0.3390  0.0365  0.0124
   30loPI   C1B  477   7.226   9.770   9.413 -0.1108  0.0977 -0.1039
   30loPI   C2B  478   7.287   9.785   8.992 -0.1750 -0.4267  0.0428
   30loPI   C3B  479   7.300   9.754   8.584 -0.1652 -0.0809 -0.0496
   30loPI   C4B  480   7.406   9.802   8.164  0.1294 -0.0112 -0.2200
   31loPI    C1  481  12.182   7.786  10.861 -0.2184 -0.0271 -0.2661
   31loPI    C2  482  12.116   8.099  11.102 -0.1081 -0.0005 -0.2696
   31loPI    C3  483  11.808   7.896  10.947 -0.1827 -0.1868  0.1113
   31loPI   PO4  484  12.322   7.806  10.750 -0.4059 -0.1001 -0.1374
   31loPI   GL1  485  12.418   7.748  10.322  0.0254 -0.5652 -0.1082
   31loPI   GL2  486  12.481   8.075  10.232  0.1501  0.0723 -0.0382
   31loPI   C1A  487  12.180   7.705  10.015  0.0949 -0.3724 -0.0691
   31loPI   C2A  488  12.078   7.604   9.700 -0.2237 -0.0533 -0.3124
   31loPI   C3A  489  12.102   7.642   9.315  0.0528  0.0542 -0.0636
   31loPI   C4A  490  12.289   7.664   8.927  0.1176  0.0512  0.0786
   31loPI   C5A  491  12.268   7.709   8.502 -0.0190 -0.0836 -0.0389
   31loPI   C6A  492  12.388   7.908   8.131 -0.0675  0.3872  0.1474
   31loPI   C1B  493  12.448   8.021   9.735  0.0530  0.1798  0.3658
   31loPI   C2B  494  12.481   7.978   9.291 -0.2006 -0.0424 -0.1824
   31loPI   C3B  495  12.674   8.027   8.963  0.1086  0.1968 -0.0569
   31loPI   C4B  496  12.659   8.039   8.567  0.0306 -0.0190 -0.0260
   32loPI    C1  497  10.392   5.139  10.863 -0.1068  0.1438 -0.0263
   32loPI    C2  498  10.715   5.372  10.904 -0.0246  0.0321 -0.0326
   32loPI    C3  499  10.611   5.120  11.197 -0.1182  0.0820 -0.0222
   32loPI   PO4  500  10.293   5.177  10.637  0.0740 -0.2262  0.1960
   32loPI   GL1  501  10.439   5.392  10.374  0.0447 -0.0045 -0.0540
   32loPI   GL2  502  10.751   5.544  10.328  0.3301 -0.0131  0.1150
   32loPI   C1A  503  10.459   5.180   9.975 -0.0003 -0.3658  0.0754
   32loPI   C2A  504  10.376   5.183   9.467  0.0305 -0.2019 -0.1066
   32loPI   C3A  505  10.431   5.203   9.017 -0.0914 -0.0086 -0.0823
   32loPI   C4A  506  10.603   5.155   8.584  0.1340 -0.0205 -0.3157
   32loPI   C5A  507  10.487   5.160   8.076  0.1529 -0.0010 -0.0730
   32loPI   C6A  508  10.172   4.923   7.881 -0.1950  0.0524 -0.3450
   32loPI   C1B  509  10.883   5.672   9.930  0.0010 -0.1966 -0.1623
   32loPI   C2B  510  10.990   5.633   9.528  0.1480 -0.0030  0.4830
   32loPI   C3B  511  10.895   5.530   9.031 -0.1036  0.0152 -0.1072
   32loPI   C4B  512  10.908   5.491   8.572  0.0181  0.2047  0.1122
   33loPI    C1  513  12.066   7.038  10.913  0.1310  0.1609 -0.0097
   33loPI    C2  514  11.938   7.407  11.001 -0.0502  0.0702  0.1163
   33loPI    C3  515  11.813   7.095  11.218 -0.1991 -0.1127 -0.2244
   33loPI   PO4  516  12.074   7.017  10.667 -0.2966  0.0866  0.1417
   33loPI   GL1  517  12.285   6.955  10.301 -0.1068  0.3112 -0.3227
   33loPI   GL2  518  12.378   7.267  10.274  0.1056 -0.0571  0.0724
   33loPI   C1A  519  11.937   7.186  10.058  0.0125 -0.0015 -0.0035
   33loPI   C2A  520  11.804   7.202   9.668  0.0448  0.0956 -0.0016
   33loPI   C3A  521  11.782   7.198   9.227  0.2209 -0.0188  0.0991
   33loPI   C4A  522  11.879   7.327   8.795 -0.0235  0.1148  0.2192
   33loPI   C5A  523  12.014   7.301   8.367 -0.0728 -0.0170  0.0737
   33loPI   C6A  524  12.344   7.182   8.064 -0.2036  0.1380  0.0204
   33loPI   C1B  525  12.330   7.181   9.830 -0.2035  0.3301 -0.0541
   33loPI   C2B  526  12.283   7.101   9.529 -0.2519 -0.1267 -0.0937
   33loPI   C3B  527  12.310   7.148   9.067  0.2367 -0.1681 -0.3331
   33loPI   C4B  528  12.348   7.114   8.653 -0.0266  0.0765  0.2525
   34loPI    C1  529  18.008   1.480   9.954 -0.0141  0.0379 -0.0477
   34loPI    C2  530  17.726   1.226  10.082  0.1189  0.0047  0.1850
   34loPI    C3  531  18.105   1.103  10.046  0.1389  0.1018  0.0561
   34loPI   PO4  532  17.905   1.558   9.694 -0.0132  0.0769  0.0470
   34loPI   GL1  533  18.092   1.851   9.420 -0.1001  0.0568 -0.1788
   34loPI   GL2  534  17.794   1.689   9.225 -0.5647  0.0273 -0.1512
   34loPI   C1A  535  18.214   1.893   8.931  0.1378 -0.3264 -0.2877
   34loPI   C2A  536  18.175   1.995   8.621  0.1433  0.1561  0.0243
   34loPI   C3A  537  17.837   2.011   8.356 -0.0409  0.0542 -0.0702
   34loPI   C4A  538  17.755   1.862   7.817  0.1644 -0.1182 -0.0013
   34loPI   C5A  539  17.395   1.777   7.543 -0.0473 -0.2578  0.0181
   34loPI   C6A  540  17.101   1.727   7.259 -0.1560  0.1388  0.4306
   34loPI   C1B  541  17.769   1.676   8.739  0.2430  0.4076 -0.2652
   34loPI   C2B  542  17.644   1.549   8.345 -0.0685 -0.1682 -0.4416
   34loPI   C3B  543  17.324   1.641   8.059 -0.0352 -0.0889 -0.0730
   34loPI   C4B  544  17.059   1.498   7.715 -0.0420  0.3214  0.1144
   35loPI    C1  545   3.672  14.718  10.519 -0.0028  0.0814  0.0502
   35loPI    C2  546   3.502  15.072  10.593  0.0971  0.1071  0.1604
   35loPI    C3  547   3.695  14.878  10.885  0.0861 -0.0147  0.0874
   35loPI   PO4  548   3.782  14.729  10.348  0.1381 -0.0295 -0.0953
   35loPI   GL1  549   4.010  14.761   9.954 -0.1896  0.1712  0.0597
   35loPI   GL2  550   3.711  14.731   9.761 -0.0381 -0.1829  0.1295
   35loPI   C1A  551   4.326  14.725   9.702 -0.1726  0.0468 -0.0153
   35loPI   C2A  552   4.313  14.757   9.279 -0.3487 -0.1732  0.0477
   35loPI   C3A  553   4.289  14.828   8.881 -0.0246 -0.1819 -0.1329
   35loPI   C4A  554   4.327  14.869   8.462 -0.3001 -0.3890 -0.2022
   35loPI   C5A  555   4.223  15.127   8.059  0.2186 -0.1180  0.3245
   35loPI   C6A  556   4.165  15.506   7.977  0.0744 -0.1970  0.0623
   35loPI   C1B  557   3.829  14.792   9.330 -0.1358 -0.1189  0.1064
   35loPI   C2B  558   3.819  14.932   8.810 -0.0983  0.5278 -0.0166
   35loPI   C3B  559   3.893  15.120   8.443  0.2286  0.0714  0.1621
   35loPI   C4B  560   3.775  15.278   8.033  0.1129  0.1228  0.3032
   36loPI    C1  561   5.646   9.861  10.912 -0.1939  0.1880 -0.1988
   36loPI    C2  562   5.507  10.228  10.989  0.1639  0.2518  0.1740
   36loPI    C3  563   5.362   9.913  11.188  0.0546  0.2253  0.0537
   36loPI   PO4  564   5.574   9.810  10.636 -0.0554 -0.1056 -0.0288
   36loPI   GL1  565   5.591   9.745  10.281 -0.2696 -0.0999  0.2219
   36loPI   GL2  566   5.382   9.979  10.172  0.0789  0.3515 -0.0183
   36loPI   C1A  567   5.919   9.753   9.975 -0.2048  0.1268 -0.1824
   36loPI   C2A  568   5.992   9.753   9.570  0.1891  0.0579 -0.0860
   36loPI   C3A  569   5.918   9.580   9.142 -0.0192 -0.4370 -0.0215
   36loPI   C4A  570   5.823   9.626   8.673  0.1880 -0.2009 -0.3425
   36loPI   C5A  571   5.688   9.631   8.234 -0.1739  0.1119 -0.1397
   36loPI   C6A  572   5.338   9.779   8.021 -0.0966 -0.0032 -0.1524
   36loPI   C1B  573   5.396   9.927   9.768 -0.0470  0.1628  0.0699
   36loPI   C2B  574   5.448   9.864   9.315  0.0667 -0.0105  0.0320
   36loPI   C3B  575   5.321   9.892   8.842  0.4045  0.2324 -0.3694
   36loPI   C4B  576   5.196   9.968   8.419 -0.1822  0.1358 -0.1796
   37loPI    C1  577   4.621   5.244  10.322  0.0662 -0.0734 -0.1353
   37loPI    C2  578   4.466   5.158  10.681  0.1958  0.2823  0.0104
   37loPI    C3  579   4.789   4.962  10.551 -0.0635 -0.1001 -0.0721
   37loPI   PO4  580   4.477   5.269  10.205  0.2889 -0.0677 -0.1207
   37loPI   GL1  581   4.529   5.238   9.799  0.2591  0.1254  0.0637
   37loPI   GL2  582   4.245   5.347   9.559  0.0285 -0.1550 -0.1185
   37loPI   C1A  583   4.691   5.209   9.390 -0.1992  0.4392  0.2627
   37loPI   C2A  584   4.757   5.287   8.926 -0.3841 -0.1889 -0.2464
   37loPI   C3A  585   4.818   5.191   8.436 -0.0286 -0.0973 -0.1175
   37loPI   C4A  586   4.883   5.026   8.096 -0.2996  0.3553 -0.1226
   37loPI   C5A  587   5.032   4.825   7.764 -0.1701 -0.1912 -0.1376
   37loPI   C6A  588   5.253   4.535   7.584  0.0276 -0.1888  0.1224
   37loPI   C1B  589   4.256   5.359   9.086  0.3218  0.0580  0.0820
   37loPI   C2B  590   4.312   5.313   8.637  0.2099  0.0270 -0.1315
   37loPI   C3B  591   4.432   5.337   8.165 -0.0185 -0.1691 -0.1964
   37loPI   C4B  592   4.626   5.376   7.813 -0.1272 -0.1913 -0.1222
   38loPI    C1  593   4.239  13.834  10.339  0.1448 -0.0602 -0.0936
   38loPI    C2  594   4.135  13.836  10.725  0.0893 -0.3399 -0.1050
   38loPI    C3  595   4.483  13.997  10.612 -0.0286  0.0131  0.0193
   38loPI   PO4  596   4.125  13.572  10.224 -0.0685  0.1018 -0.0457
   38loPI   GL1  597   4.097  13.470   9.851 -0.2120 -0.1872  0.2810
   38loPI   GL2  598   3.874  13.565   9.718 -0.1354 -0.0346  0.1219
   38loPI   C1A  599   4.266  13.367   9.492  0.0972 -0.0504  0.0128
   38loPI   C2A  600   4.315  13.357   8.994  0.0268 -0.0250 -0.0591
   38loPI   C3A  601   4.296  13.442   8.643 -0.1653  0.0029 -0.1592
   38loPI   C4A  602   4.459  13.395   8.263  0.0336 -0.2709 -0.1264
   38loPI   C5A  603   4.636  13.606   7.986  0.0792 -0.2192 -0.1523
   38loPI   C6A  604   4.629  13.591   7.615  0.0562 -0.0907  0.0327
   38loPI   C1B  605   3.805  13.487   9.216 -0.1758 -0.1127  0.0239
   38loPI   C2B  606   3.748  13.498   8.804  0.0322 -0.3238  0.3657
   38loPI   C3B  607   3.809  13.483   8.396  0.2487 -0.1151 -0.0180
   38loPI   C4B  608   4.037  13.626   8.071  0.0377  0.2462  0.1935
   39loPI    C1  609   6.944   0.572  10.291  0.0573  0.2355 -0.2655
   39loPI    C2  610   7.051   0.211  10.157 -0.2412  0.0513 -0.0188
   39loPI    C3  611   7.212   0.355  10.493 -0.3270  0.0269  0.0332
   39loPI   PO4  612   6.935   0.671  10.060 -0.3298 -0.4035 -0.1719
   39loPI   GL1  613   7.111   0.526   9.749 -0.2096 -0.3919 -0.0206
   39loPI   GL2  614   6.884   0.360   9.669  0.2109 -0.2381 -0.0314
   39loPI   C1A  615   7.151   0.841   9.402  0.2335 -0.0839 -0.0756
   39loPI   C2A  616   6.945   0.941   9.075  0.1184  0.4569 -0.0763
   39loPI   C3A  617   7.002   0.884   8.647 -0.1553  0.0247 -0.4024
   39loPI   C4A  618   7.076   0.850   8.121  0.1393  0.4784  0.0564
   39loPI   C5A  619   6.913   0.907   7.728  0.3931 -0.0445 -0.1166
   39loPI   C6A  620   6.606   0.651   7.425 -0.0487  0.1987  0.0401
   39loPI   C1B  621   6.968   0.328   9.241 -0.0322  0.0189  0.0160
   39loPI   C2B  622   7.127   0.400   8.740 -0.1218  0.2281  0.1463
   39loPI   C3B  623   7.135   0.339   8.228 -0.3569  0.1148 -0.0501
   39loPI   C4B  624   6.961   0.423   7.856 -0.2797 -0.5459  0.0157
   40loPI    C1  625  18.371  14.007  10.515 -0.1445 -0.0379  0.2286
   40loPI    C2  626  18.651  13.897  10.779  0.1235  0.0355 -0.0203
   40loPI    C3  627  18.303  14.046  10.908  0.1488 -0.1686  0.2954
   40loPI   PO4  628  18.172  13.839  10.352 -0.1242 -0.0493 -0.0108
   40loPI   GL1  629  18.212  13.705   9.962  0.2602  0.1487 -0.0341
   40loPI   GL2  630  18.407  13.534  10.025  0.3190 -0.1157 -0.1353
   40loPI   C1A  631  17.981  13.614   9.694  0.2681 -0.2494  0.2639
   40loPI   C2A  632  17.889  13.702   9.251 -0.0963  0.0730 -0.4569
   40loPI   C3A  633  18.087  13.582   8.887  0.3717  0.1168 -0.0675
   40loPI   C4A  634  18.098  13.439   8.413 -0.0279 -0.1681  0.1847
   40loPI   C5A  635  18.195  13.348   8.076  0.0665  0.4846  0.2963
   40loPI   C6A  636  17.935  13.530   7.800 -0.4002  0.0306  0.1603
   40loPI   C1B  637  18.536  13.523   9.655 -0.0219  0.1360 -0.0612
   40loPI   C2B  638  18.383  13.503   9.273  0.0125 -0.1281  0.1956
   40loPI   C3B  639  18.528  13.427   8.794 -0.0133 -0.1223 -0.3101
   40loPI   C4B  640  18.638  13.290   8.398  0.0446 -0.1332  0.3808
   41loPI    C1  641  15.325   7.203  10.833  0.0667 -0.0011 -0.0081
   41loPI    C2  642  15.451   7.277  11.206  0.1155  0.0447 -0.0336
   41loPI    C3  643  15.509   6.916  11.043 -0.1772 -0.0717  0.1134
   41loPI   PO4  644  15.363   7.347  10.665 -0.4244  0.0226 -0.1924
   41loPI   GL1  645  15.594   7.207  10.334  0.0863 -0.5808  0.0958
   41loPI   GL2  646  15.623   7.103  10.044 -0.1481  0.0477 -0.4163
   41loPI   C1A  647  15.535   7.573  10.064 -0.0365  0.2049 -0.2318
   41loPI   C2A  648  15.483   7.653   9.687 -0.2179  0.0773  0.1137
   41loPI   C3A  649  15.540   7.630   9.224 -0.1954 -0.1837 -0.0698
   41loPI   C4A  650  15.606   7.642   8.763  0.3093  0.0727  0.1234
   41loPI   C5A  651  15.552   7.547   8.294 -0.1612  0.1529  0.3534
   41loPI   C6A  652  15.261   7.646   8.006  0.0707 -0.0649  0.0210
   41loPI   C1B  653  15.576   7.169   9.561 -0.1560  0.3658  0.0630
   41loPI   C2B  654  15.684   7.173   9.160 -0.1699 -0.0535  0.2715
   41loPI   C3B  655  15.665   7.112   8.786 -0.0492 -0.1797 -0.2187
   41loPI   C4B  656  15.684   7.115   8.510  0.1514 -0.0104  0.0702
   42loPI    C1  657   6.736  14.945  10.915  0.2893  0.1937 -0.2804
   42loPI    C2  658   7.126  15.007  10.851  0.2954  0.4645 -0.0039
   42loPI    C3  659   6.938  15.203  11.145 -0.0046  0.1811 -0.0013
   42loPI   PO4  660   6.791  14.617  10.863 -0.0531 -0.0620 -0.0131
   42loPI   GL1  661   6.955  14.680  10.432 -0.2189 -0.1134  0.0910
   42loPI   GL2  662   7.182  14.607  10.352 -0.0940  0.0006 -0.0604
   42loPI   C1A  663   6.704  14.815  10.074 -0.5855 -0.0113 -0.1392
   42loPI   C2A  664   6.779  14.743   9.622 -0.2583  0.0228  0.1354
   42loPI   C3A  665   6.833  14.607   9.206 -0.2682  0.0591  0.0376
   42loPI   C4A  666   6.793  14.656   8.817  0.0080 -0.1755  0.0133
   42loPI   C5A  667   6.863  14.593   8.455  0.1773  0.0735 -0.1523
   42loPI   C6A  668   6.704  14.481   8.030 -0.2803  0.0706 -0.2522
   42loPI   C1B  669   7.179  14.662   9.938  0.0558  0.0671 -0.2517
   42loPI   C2B  670   7.241  14.602   9.511 -0.2676  0.1914 -0.1542
   42loPI   C3B  671   7.307  14.518   9.110  0.1801 -0.0683  0.0183
   42loPI   C4B  672   7.303  14.519   8.717 -0.0102 -0.1375  0.0460
   43loPI    C1  673   6.153   4.959  10.646  0.0527  0.0838  0.0038
   43loPI    C2  674   6.270   4.580  10.701  0.0410  0.0783 -0.0089
   43loPI    C3  675   6.024   4.754  10.964  0.3298  0.1924  0.1908
   43loPI   PO4  676   6.363   4.993  10.440  0.1034 -0.0876  0.0993
   43loPI   GL1  677   6.533   4.952  10.098  0.1089 -0.0184  0.0126
   43loPI   GL2  678   6.389   4.801   9.903 -0.0717  0.2042  0.1936
   43loPI   C1A  679   6.571   5.241   9.794  0.2858  0.0384 -0.0555
   43loPI   C2A  680   6.710   5.244   9.316  0.1632  0.1393  0.2505
   43loPI   C3A  681   6.774   5.278   8.828 -0.0238 -0.0304 -0.0092
   43loPI   C4A  682   6.842   5.445   8.295  0.1056 -0.0519 -0.0912
   43loPI   C5A  683   6.930   5.382   7.874 -0.0017 -0.0398 -0.1055
   43loPI   C6A  684   7.153   5.037   7.715 -0.0695  0.0178 -0.0164
   43loPI   C1B  685   6.261   4.889   9.446  0.1389 -0.0187  0.0665
   43loPI   C2B  686   6.305   4.906   9.000 -0.1134 -0.1383  0.0676
   43loPI   C3B  687   6.351   4.910   8.558 -0.0862  0.1431  0.0456
   43loPI   C4B  688   6.417   4.887   8.130 -0.1699 -0.1506 -0.0418
   44loPI    C1  689   9.915   2.010  10.398 -0.0623 -0.0141  0.1120
   44loPI    C2  690  10.079   2.267  10.657  0.1086 -0.2610  0.2531
   44loPI    C3  691   9.713   2.121  10.725 -0.1001  0.1435  0.0362
   44loPI   PO4  692  10.162   1.996  10.254 -0.1060 -0.1168  0.0857
   44loPI   GL1  693  10.517   2.122  10.017  0.1632  0.0322  0.1705
   44loPI   GL2  694  10.461   2.359   9.802  0.0273 -0.0480  0.2197
   44loPI   C1A  695  10.565   1.921   9.618  0.0775  0.0906  0.0288
   44loPI   C2A  696  10.474   1.922   9.105  0.1006  0.3645  0.0597
   44loPI   C3A  697  10.524   1.980   8.693  0.0733  0.2143 -0.0257
   44loPI   C4A  698  10.451   1.811   8.267 -0.2085  0.4280  0.0884
   44loPI   C5A  699  10.684   1.791   7.866 -0.2061  0.5517  0.2178
   44loPI   C6A  700  10.960   1.798   7.558  0.3286  0.3831  0.0036
   44loPI   C1B  701  10.432   2.380   9.339  0.3783  0.0149  0.2178
   44loPI   C2B  702  10.370   2.437   8.905 -0.3007 -0.3356 -0.1987
   44loPI   C3B  703  10.402   2.411   8.451  0.0630 -0.1605 -0.2553
   44loPI   C4B  704  10.532   2.254   7.965 -0.1148 -0.2367  0.2558
   45loPI    C1  705  16.340  10.013  10.550  0.1849  0.1757  0.1569
   45loPI    C2  706  16.218  10.165  10.900 -0.0738  0.2935  0.0182
   45loPI    C3  707  16.187  10.382  10.565  0.0605  0.1368 -0.0980
   45loPI   PO4  708  16.220   9.697  10.372 -0.0104 -0.1549 -0.0678
   45loPI   GL1  709  16.451   9.677   9.951  0.0473  0.1012 -0.1792
   45loPI   GL2  710  16.624   9.238   9.934 -0.2269  0.0955  0.0397
   45loPI   C1A  711  16.345   9.829   9.551 -0.1388  0.0494 -0.0599
   45loPI   C2A  712  16.368   9.711   9.104  0.0933 -0.0084 -0.2093
   45loPI   C3A  713  16.301   9.793   8.668 -0.1307 -0.1863 -0.1900
   45loPI   C4A  714  16.297   9.842   8.196  0.1878  0.0938  0.0595
   45loPI   C5A  715  16.557   9.642   7.953 -0.0099  0.0827 -0.0657
   45loPI   C6A  716  16.701   9.533   7.608 -0.0479  0.2623 -0.0811
   45loPI   C1B  717  16.452   9.205   9.675 -0.1155 -0.0076 -0.3515
   45loPI   C2B  718  16.488   9.278   9.322  0.2697 -0.3227 -0.1559
   45loPI   C3B  719  16.421   9.323   8.833 -0.0726  0.3202  0.2509
   45loPI   C4B  720  16.538   9.369   8.395 -0.2867 -0.1657  0.0703
   46loPI    C1  721  11.353   4.145  10.839 -0.0132 -0.0291 -0.1743
   46loPI    C2  722  11.181   3.891  11.096  0.1885  0.1744  0.1685
   46loPI    C3  723  11.571   3.974  11.127  0.2816 -0.0149 -0.3847
   46loPI   PO4  724  11.237   4.128  10.525  0.1928 -0.1486 -0.0461
   46loPI   GL1  725  11.367   4.105  10.127  0.3360  0.0920  0.0666
   46loPI   GL2  726  11.478   4.469  10.170  0.1002  0.0377 -0.0093
   46loPI   C1A  727  11.346   4.081   9.706  0.1209  0.0292 -0.2155
   46loPI   C2A  728  11.326   4.052   9.216  0.1491  0.1561  0.0706
   46loPI   C3A  729  11.324   4.032   8.766  0.2201 -0.1344 -0.1863
   46loPI   C4A  730  11.322   4.115   8.307  0.2374 -0.0934 -0.2402
   46loPI   C5A  731  11.646   4.223   8.132 -0.0935 -0.0945  0.3381
   46loPI   C6A  732  11.948   4.090   7.775  0.1829 -0.2937 -0.0034
   46loPI   C1B  733  11.691   4.461   9.765 -0.1174  0.2924  0.0170
   46loPI   C2B  734  11.677   4.445   9.282 -0.1305 -0.1650 -0.0027
   46loPI   C3B  735  11.642   4.371   8.953  0.0425 -0.3531  0.0099
   46loPI   C4B  736  11.755   4.384   8.582  0.1818  0.3654 -0.1305
   47loPI    C1  737  14.906  11.473  10.913  0.0628 -0.1790 -0.0009
   47loPI    C2  738  14.724  11.137  11.033 -0.0359 -0.1024  0.0660
   47loPI    C3  739  14.710  11.465  11.261 -0.1749  0.0284 -0.1272
   47loPI   PO4  740  14.830  11.497  10.654 -0.1397  0.1960 -0.0477
   47loPI   GL1  741  14.733  11.603  10.314 -0.1729  0.1758 -0.1880
   47loPI   GL2  742  14.623  11.316  10.153 -0.2582  0.1835 -0.2917
   47loPI   C1A  743  14.729  11.705   9.804  0.4722  0.0778  0.0389
   47loPI   C2A  744  14.802  11.622   9.347  0.0449 -0.0376  0.2232
   47loPI   C3A  745  15.113  11.627   9.094  0.1423  0.0440  0.0914
   47loPI   C4A  746  15.342  11.579   8.707  0.2973 -0.4847 -0.1120
   47loPI   C5A  747  15.218  11.457   8.359  0.0650  0.0517  0.2158
   47loPI   C6A  748  15.407  11.404   7.973  0.2344 -0.1685 -0.1342
   47loPI   C1B  749  14.471  11.249   9.689 -0.1315 -0.0072 -0.0916
   47loPI   C2B  750  14.398  11.252   9.179 -0.0035 -0.0074 -0.1772
   47loPI   C3B  751  14.485  11.290   8.739 -0.3183  0.1027 -0.1416
   47loPI   C4B  752  14.612  11.428   8.346  0.0272  0.2634  0.0705
   48loPI    C1  753   9.733  17.910  11.126  0.0819  0.1522  0.2477
   48loPI    C2  754   9.645  17.554  11.286 -0.0554 -0.0142 -0.1838
   48loPI    C3  755   9.476  17.886  11.431  0.2936 -0.0823  0.4127
   48loPI   PO4  756   9.650  17.924  10.862 -0.0489 -0.0278 -0.1105
   48loPI   GL1  757   9.890  17.802  10.472  0.0061 -0.0093 -0.0394
   48loPI   GL2  758  10.055  17.551  10.376  0.0802 -0.1042 -0.4776
   48loPI   C1A  759   9.834  17.918  10.062 -0.0916 -0.1539 -0.2928
   48loPI   C2A  760   9.900  17.757   9.584  0.0187 -0.3297  0.1999
   48loPI   C3A  761   9.696  17.755   9.196 -0.0078  0.2464  0.1690
   48loPI   C4A  762   9.737  17.587   8.763 -0.1751  0.4307 -0.0736
   48loPI   C5A  763   9.670  17.500   8.365  0.0535  0.1388  0.1697
   48loPI   C6A  764   9.802  17.516   7.937  0.0442  0.1450  0.2582
   48loPI   C1B  765   9.973  17.439   9.906 -0.0065  0.0533 -0.2219
   48loPI   C2B  766   9.874  17.295   9.376  0.1452  0.4211 -0.3196
   48loPI   C3B  767   9.937  17.176   8.993  0.0959 -0.0003  0.5525
   48loPI   C4B  768   9.820  17.105   8.585 -0.0544 -0.0773 -0.2126
   49loPI    C1  769  13.303   5.933  10.748 -0.1284 -0.0521  0.0238
   49loPI    C2  770  13.126   6.214  10.972  0.3546  0.3105 -0.0311
   49loPI    C3  771  13.323   5.913  11.147 -0.1668 -0.0087  0.0280
   49loPI   PO4  772  13.182   6.068  10.437 -0.2287 -0.3394  0.1267
   49loPI   GL1  773  12.910   6.040  10.159  0.1785 -0.2046  0.3647
   49loPI   GL2  774  12.706   6.107   9.898  0.1689 -0.1210  0.2676
   49loPI   C1A  775  13.142   6.007   9.753  0.0705 -0.0000 -0.3334
   49loPI   C2A  776  13.109   6.023   9.300  0.1293 -0.2393 -0.4116
   49loPI   C3A  777  13.160   5.857   8.844 -0.0729 -0.3038 -0.1591
   49loPI   C4A  778  13.249   5.992   8.481 -0.3218  0.2070 -0.4101
   49loPI   C5A  779  13.242   6.234   8.179 -0.0621  0.0547 -0.1599
   49loPI   C6A  780  12.934   6.150   7.839  0.0430  0.1206 -0.2511
   49loPI   C1B  781  12.610   6.015   9.458  0.0982  0.0675  0.0786
   49loPI   C2B  782  12.607   6.092   9.079  0.1804 -0.0441  0.1808
   49loPI   C3B  783  12.677   6.033   8.698 -0.0769 -0.3292  0.2170
   49loPI   C4B  784  12.751   6.054   8.259  0.1744 -0.1594 -0.3409
   50loPI    C1  785  17.674   0.051   9.812 -0.1581  0.0153 -0.2401
   50loPI    C2  786  17.609  -0.189  10.126  0.1753  0.0039 -0.1763
   50loPI    C3  787  17.407   0.154  10.091  0.0525 -0.0501 -0.0101
   50loPI   PO4  788  17.621  -0.086   9.627  0.1160 -0.0193  0.1672
   50loPI   GL1  789  17.427   0.034   9.236  0.0198  0.2828 -0.2698
   50loPI   GL2  790  17.721   0.337   9.364  0.1383  0.1110 -0.2687
   50loPI   C1A  791  17.326   0.284   8.934 -0.2740  0.1986 -0.1675
   50loPI   C2A  792  17.271   0.264   8.512 -0.2617  0.0532 -0.1214
   50loPI   C3A  793  17.259   0.152   8.085 -0.1288 -0.1821  0.0785
   50loPI   C4A  794  17.300   0.280   7.706  0.0803 -0.4433  0.0493
   50loPI   C5A  795  17.374   0.073   7.287  0.1572  0.0897  0.2604
   50loPI   C6A  796  17.483   0.450   6.983  0.0811 -0.3275 -0.0751
   50loPI   C1B  797  17.753   0.571   8.955  0.3592 -0.0263 -0.2811
   50loPI   C2B  798  17.688   0.533   8.504 -0.1877 -0.0792 -0.0399
   50loPI   C3B  799  17.637   0.409   8.157 -0.2371  0.2170  0.0049
   50loPI   C4B  800  17.888   0.410   7.868  0.4162 -0.0596 -0.0718
   51loPI    C1  801   5.114  12.047  10.737  0.1579 -0.0097  0.1830
   51loPI    C2  802   4.831  12.147  11.001 -0.0086 -0.1030  0.0417
   51loPI    C3  803   5.003  11.787  11.020 -0.1715 -0.1902 -0.1040
   51loPI   PO4  804   4.986  12.022  10.464 -0.3068  0.1712  0.0748
   51loPI   GL1  805   5.163  12.028  10.033 -0.0667  0.0195 -0.3056
   51loPI   GL2  806   5.299  11.745   9.882 -0.1217 -0.4166  0.0027
   51loPI   C1A  807   5.193  12.185   9.582  0.0800 -0.1549  0.0367
   51loPI   C2A  808   5.135  12.238   9.164 -0.1128  0.2501 -0.2567
   51loPI   C3A  809   5.146  12.304   8.758 -0.1524 -0.1794 -0.0395
   51loPI   C4A  810   5.216  12.217   8.290  0.0264  0.0046 -0.0747
   51loPI   C5A  811   5.075  12.010   7.984 -0.0170  0.2541 -0.0211
   51loPI   C6A  812   5.315  11.751   7.607 -0.3753  0.0419  0.1085
   51loPI   C1B  813   5.298  11.676   9.394  0.1875 -0.0540  0.0598
   51loPI   C2B  814   5.320  11.710   8.952 -0.0242  0.0637  0.0246
   51loPI   C3B  815   5.306  11.792   8.586  0.0479 -0.2836  0.1153
   51loPI   C4B  816   5.447  11.712   8.084 -0.1197  0.0636 -0.2143
   52loPI    C1  817   9.645  10.945  10.758  0.0173  0.3000  0.0639
   52loPI    C2  818   9.787  11.068  11.111  0.1887 -0.2552  0.1983
   52loPI    C3  819   9.405  10.954  11.078  0.1572 -0.1484  0.1879
   52loPI   PO4  820   9.736  11.204  10.628 -0.2256  0.0446 -0.1445
   52loPI   GL1  821   9.884  11.259  10.158 -0.1363  0.0808  0.2107
   52loPI   GL2  822   9.747  11.597   9.931 -0.1359  0.0519 -0.2980
   52loPI   C1A  823   9.865  11.236   9.687 -0.1232 -0.1007 -0.1162
   52loPI   C2A  824   9.855  11.226   9.229 -0.0276  0.1252 -0.1735
   52loPI   C3A  825   9.735  11.134   8.898 -0.3617  0.1516  0.2113
   52loPI   C4A  826   9.783  10.974   8.505  0.3417  0.2879  0.5404
   52loPI   C5A  827   9.543  10.836   8.127 -0.0835 -0.1891  0.0484
   52loPI   C6A  828   9.655  10.695   7.701 -0.1109 -0.2947 -0.1770
   52loPI   C1B  829   9.613  11.709   9.532 -0.0311 -0.0270 -0.1055
   52loPI   C2B  830   9.587  11.689   9.041 -0.0116  0.0853  0.1910
   52loPI   C3B  831   9.552  11.579   8.659  0.2574 -0.3501 -0.4652
   52loPI   C4B  832   9.529  11.388   8.279 -0.1589  0.0834  0.0865
   53loPI    C1  833   3.434   3.910   9.985 -0.3133  0.0526  0.0022
   53loPI    C2  834   3.360   3.671  10.297 -0.1074 -0.1045 -0.0668
   53loPI    C3  835   3.274   3.548   9.926 -0.2966  0.0580 -0.0792
   53loPI   PO4  836   3.645   3.994  10.099  0.0414 -0.1124  0.1489
   53loPI   GL1  837   3.884   4.183   9.744 -0.1392  0.1306  0.2501
   53loPI   GL2  838   3.750   4.467   9.712  0.2077 -0.1564 -0.2421
   53loPI   C1A  839   4.087   4.339   9.349  0.1062  0.2626 -0.2861
   53loPI   C2A  840   4.173   4.481   8.976  0.0267 -0.0645  0.2681
   53loPI   C3A  841   4.072   4.482   8.519  0.1639  0.1835 -0.2312
   53loPI   C4A  842   4.120   4.318   8.055  0.0151 -0.0588  0.0282
   53loPI   C5A  843   4.455   3.986   7.823  0.0642 -0.1466  0.3119
   53loPI   C6A  844   4.707   4.111   7.561  0.2556  0.2090  0.0589
   53loPI   C1B  845   3.628   4.544   9.283 -0.2245  0.0955 -0.3072
   53loPI   C2B  846   3.584   4.630   8.841 -0.1551 -0.2289  0.2591
   53loPI   C3B  847   3.606   4.578   8.362 -0.0208  0.0399 -0.1426
   53loPI   C4B  848   3.344   4.340   8.061  0.2436 -0.1066  0.1265
   54loPI    C1  849  11.357   7.676  10.853 -0.0505 -0.1359 -0.0766
   54loPI    C2  850  11.268   7.336  11.044 -0.1408 -0.0380  0.0583
   54loPI    C3  851  11.488   7.616  11.226 -0.2101  0.0477  0.0113
   54loPI   PO4  852  11.484   7.674  10.568 -0.1766  0.2718 -0.0727
   54loPI   GL1  853  11.490   7.402  10.191 -0.4190  0.2773 -0.0347
   54loPI   GL2  854  11.690   7.615  10.036 -0.2248  0.1188  0.1158
   54loPI   C1A  855  11.242   7.377   9.831 -0.3692  0.2384 -0.1097
   54loPI   C2A  856  11.307   7.268   9.395  0.1836 -0.0950 -0.3028
   54loPI   C3A  857  11.362   7.342   8.968  0.0624  0.1217  0.1633
   54loPI   C4A  858  11.455   7.401   8.562  0.1556  0.0103  0.1558
   54loPI   C5A  859  11.543   7.463   8.147 -0.3262 -0.1639  0.0950
   54loPI   C6A  860  11.673   7.808   7.712  0.1372 -0.0493 -0.0740
   54loPI   C1B  861  11.564   7.704   9.625  0.0738  0.1344 -0.1528
   54loPI   C2B  862  11.676   7.684   9.129 -0.1749 -0.1709 -0.1333
   54loPI   C3B  863  11.695   7.822   8.641 -0.0865  0.0094 -0.1784
   54loPI   C4B  864  11.876   7.870   8.171 -0.1111 -0.2942 -0.1383
   55loPI    C1  865  17.970   4.679  10.314 -0.2531  0.2454 -0.1792
   55loPI    C2  866  18.030   4.991  10.558 -0.1676  0.1146 -0.0309
   55loPI    C3  867  17.737   4.729  10.635  0.2195 -0.2450  0.2595
   55loPI   PO4  868  17.919   4.887  10.057 -0.0843  0.2347  0.0067
   55loPI   GL1  869  17.659   5.033   9.798  0.1106  0.1174  0.5645
   55loPI   GL2  870  17.702   4.669   9.550  0.2464  0.0098 -0.2706
   55loPI   C1A  871  17.888   5.131   9.408  0.3208 -0.1992 -0.0245
   55loPI   C2A  872  18.112   5.177   9.000  0.1506  0.0414 -0.0712
   55loPI   C3A  873  18.133   5.144   8.616  0.3903 -0.1888 -0.0733
   55loPI   C4A  874  17.939   5.027   8.189  0.3952  0.0822 -0.0562
   55loPI   C5A  875  18.096   4.771   7.946  0.2264 -0.0091  0.0005
   55loPI   C6A  876  18.304   4.415   7.688 -0.3039  0.0746 -0.0583
   55loPI   C1B  877  17.719   4.762   9.150 -0.0261 -0.0536 -0.1829
   55loPI   C2B  878  17.684   4.854   8.769 -0.1156  0.2548  0.5371
   55loPI   C3B  879  17.717   4.610   8.484  0.0689 -0.3032 -0.0851
   55loPI   C4B  880  17.769   4.432   8.124 -0.2607  0.2659 -0.1729
   56loPI    C1  881   8.175   7.658  11.013  0.1938  0.0073 -0.0404
   56loPI    C2  882   8.457   7.490  11.241  0.1116  0.2090  0.2154
   56loPI    C3  883   8.500   7.867  11.116  0.0575  0.1679  0.0702
   56loPI   PO4  884   8.189   7.574  10.714  0.0821  0.1118 -0.2605
   56loPI   GL1  885   8.092   7.754  10.384 -0.0025 -0.0160 -0.1030
   56loPI   GL2  886   8.166   8.027  10.221 -0.4780  0.0315 -0.2946
   56loPI   C1A  887   7.847   7.754  10.001  0.0585  0.0044 -0.0189
   56loPI   C2A  888   7.870   7.796   9.574 -0.1791 -0.0355 -0.0903
   56loPI   C3A  889   7.895   7.749   9.055  0.2706  0.0256 -0.1797
   56loPI   C4A  890   7.919   7.639   8.568 -0.4905 -0.1633  0.0576
   56loPI   C5A  891   8.055   7.797   8.089  0.3297  0.0674 -0.1003
   56loPI   C6A  892   8.092   8.141   7.716  0.0949 -0.2013  0.0147
   56loPI   C1B  893   8.317   8.153   9.812  0.3296 -0.0522  0.2257
   56loPI   C2B  894   8.344   8.216   9.373 -0.1268  0.0093  0.2240
   56loPI   C3B  895   8.311   8.116   8.989 -0.0456 -0.0742 -0.2599
   56loPI   C4B  896   8.218   8.044   8.641  0.2707  0.2123  0.1915
   57loPI    C1  897   4.236   7.807  10.658  0.0114  0.0984 -0.1101
   57loPI    C2  898   4.226   7.734  11.051 -0.0872  0.0077 -0.1290
   57loPI    C3  899   4.023   8.044  10.900  0.1700  0.2065 -0.0745
   57loPI   PO4  900   4.466   7.717  10.573 -0.0613 -0.1695 -0.0895
   57loPI   GL1  901   4.498   7.445  10.217 -0.1152 -0.0497 -0.3085
   57loPI   GL2  902   4.549   7.751  10.061  0.0516  0.2779  0.1257
   57loPI   C1A  903   4.726   7.227   9.948 -0.2390  0.1465  0.1770
   57loPI   C2A  904   4.766   7.141   9.537 -0.1849  0.0668 -0.3796
   57loPI   C3A  905   4.738   7.247   9.059  0.2864 -0.1307  0.4266
   57loPI   C4A  906   4.735   7.206   8.666  0.4220  0.4130  0.0274
   57loPI   C5A  907   4.759   7.084   8.148  0.1887 -0.3162 -0.1247
   57loPI   C6A  908   5.083   7.319   8.004 -0.0375  0.2787 -0.1854
   57loPI   C1B  909   4.525   7.641   9.570 -0.0694 -0.2647 -0.1336
   57loPI   C2B  910   4.618   7.728   9.167  0.2142 -0.1516  0.2380
   57loPI   C3B  911   4.596   7.712   8.737  0.1292  0.4316  0.1949
   57loPI   C4B  912   4.618   7.570   8.349  0.2160  0.1479  0.1157
   58loPI    C1  913   2.801   3.634  10.478 -0.3772 -0.2440  0.1287
   58loPI    C2  914   3.116   3.478  10.669 -0.1129 -0.1378 -0.2107
   58loPI    C3  915   3.017   3.861  10.726 -0.2777 -0.2111  0.0124
   58loPI   PO4  916   2.867   3.611  10.222 -0.2564  0.1212 -0.0736
   58loPI   GL1  917   2.933   3.853   9.787  0.0069  0.2503 -0.2740
   58loPI   GL2  918   2.816   3.520   9.752  0.1983  0.0676 -0.2718
   58loPI   C1A  919   3.073   3.722   9.407  0.1432 -0.0139  0.1348
   58loPI   C2A  920   3.233   3.765   8.928 -0.1783  0.2861  0.2522
   58loPI   C3A  921   3.319   3.482   8.622 -0.0320  0.0723  0.1683
   58loPI   C4A  922   3.238   3.541   8.159  0.0847 -0.0536  0.0868
   58loPI   C5A  923   3.408   3.600   7.732  0.1240 -0.0897  0.3323
   58loPI   C6A  924   3.822   3.524   7.491  0.0893  0.0557  0.0032
   58loPI   C1B  925   2.620   3.416   9.399 -0.0080  0.2292  0.1271
   58loPI   C2B  926   2.503   3.480   8.950 -0.0430  0.0527 -0.1306
   58loPI   C3B  927   2.371   3.393   8.562  0.0689 -0.0147 -0.0431
   58loPI   C4B  928   2.303   3.351   8.226 -0.0455 -0.1957  0.3035
   59loPI    C1  929   1.750   6.748  10.516  0.1519 -0.0340  0.0853
   59loPI    C2  930   1.725   6.465  10.798 -0.0892 -0.1025 -0.0030
   59loPI    C3  931   1.439   6.743  10.768 -0.0210 -0.0451 -0.1257
   59loPI   PO4  932   1.816   6.620  10.277  0.0479 -0.1930  0.2391
   59loPI   GL1  933   1.663   6.787   9.887  0.1785 -0.0270  0.0523
   59loPI   GL2  934   1.598   7.202   9.930  0.2235  0.3613  0.0478
   59loPI   C1A  935   1.750   6.717   9.524  0.0331  0.2587  0.3456
   59loPI   C2A  936   1.897   6.924   9.186 -0.1687  0.0164 -0.2874
   59loPI   C3A  937   1.916   6.827   8.817 -0.2671 -0.2825  0.3725
   59loPI   C4A  938   1.860   6.968   8.393 -0.1653 -0.1310 -0.0401
   59loPI   C5A  939   1.733   6.935   7.974  0.0094 -0.1026 -0.2565
   59loPI   C6A  940   1.628   7.229   7.637 -0.0770  0.2267 -0.0418
   59loPI   C1B  941   1.751   7.423   9.474  0.1461  0.1870 -0.0074
   59loPI   C2B  942   1.780   7.379   8.949  0.4382  0.2031  0.0189
   59loPI   C3B  943   1.710   7.443   8.513 -0.4374  0.0036 -0.3231
   59loPI   C4B  944   1.679   7.454   8.123 -0.0357  0.0799 -0.0597
   60loPI    C1  945   9.173  14.448  10.466  0.1002  0.0220  0.0383
   60loPI    C2  946   9.074  14.144  10.705 -0.1382  0.0395 -0.0356
   60loPI    C3  947   9.242  14.472  10.860 -0.2997  0.0550  0.1105
   60loPI   PO4  948   8.942  14.421  10.303  0.1927  0.1521  0.1744
   60loPI   GL1  949   8.828  14.274   9.924  0.0594 -0.1694 -0.1553
   60loPI   GL2  950   8.569  14.036   9.949 -0.2012 -0.1742  0.2402
   60loPI   C1A  951   8.852  14.199   9.560 -0.3033 -0.1195  0.1169
   60loPI   C2A  952   8.808  14.239   9.185  0.1183  0.1111  0.1814
   60loPI   C3A  953   8.794  14.090   8.774 -0.1434  0.0781 -0.1899
   60loPI   C4A  954   8.826  14.042   8.416  0.2083  0.3565  0.2369
   60loPI   C5A  955   8.629  14.129   8.073  0.1751  0.0041 -0.1431
   60loPI   C6A  956   8.352  14.356   7.731  0.1162  0.2641 -0.1343
   60loPI   C1B  957   8.516  13.864   9.548  0.1254 -0.3129 -0.0891
   60loPI   C2B  958   8.496  13.825   9.155 -0.0183 -0.1969 -0.2795
   60loPI   C3B  959   8.485  13.714   8.685 -0.2407  0.3549  0.1077
   60loPI   C4B  960   8.438  13.742   8.285  0.1359 -0.0935  0.1540
   61loPI    C1  961  15.964   9.236  10.539 -0.2322  0.3062  0.0153
   61loPI    C2  962  16.284   9.250  10.778 -0.0389 -0.1368 -0.2060
   61loPI    C3  963  15.922   9.180  10.933 -0.0388  0.3714  0.0465
   61loPI   PO4  964  16.114   9.244  10.254  0.1630  0.1195 -0.2897
   61loPI   GL1  965  16.398   8.848  10.130 -0.0359 -0.0313  0.0902
   61loPI   GL2  966  16.107   8.794  10.022  0.2415 -0.1159  0.0624
   61loPI   C1A  967  16.660   8.715   9.741 -0.0358  0.0921  0.0654
   61loPI   C2A  968  16.620   8.804   9.355 -0.0525  0.2248  0.0157
   61loPI   C3A  969  16.601   8.816   8.848  0.0377  0.2007  0.2152
   61loPI   C4A  970  16.538   8.856   8.387  0.1485 -0.1930  0.1188
   61loPI   C5A  971  16.772   8.907   8.025 -0.2661 -0.2904  0.3243
   61loPI   C6A  972  17.093   8.614   8.161  0.0994  0.0423  0.2566
   61loPI   C1B  973  16.135   8.861   9.603  0.0440 -0.4140 -0.1636
   61loPI   C2B  974  16.147   8.885   9.141  0.0269  0.2419 -0.0828
   61loPI   C3B  975  16.077   8.895   8.724  0.0079  0.0680 -0.4047
   61loPI   C4B  976  16.029   9.039   8.363 -0.4281 -0.1665 -0.0882
   62loPI    C1  977   8.909  16.191  10.549  0.1982  0.0160  0.0850
   62loPI    C2  978   8.838  15.815  10.434 -0.3090  0.0889  0.1361
   62loPI    C3  979   8.784  15.921  10.815  0.1924  0.1333  0.2025
   62loPI   PO4  980   9.221  16.239  10.415  0.1169 -0.0844  0.2167
   62loPI   GL1  981   9.645  16.263  10.180 -0.1710 -0.0743  0.1556
   62loPI   GL2  982   9.432  16.169   9.933 -0.2949  0.2136  0.3697
   62loPI   C1A  983   9.751  16.472   9.827 -0.0705 -0.3154  0.3095
   62loPI   C2A  984   9.699  16.414   9.439  0.1819 -0.2434  0.0589
   62loPI   C3A  985   9.626  16.329   9.081 -0.0660  0.2935  0.1036
   62loPI   C4A  986   9.702  16.301   8.582 -0.0643  0.0335 -0.0358
   62loPI   C5A  987   9.855  16.586   8.196  0.0294  0.3736 -0.2660
   62loPI   C6A  988  10.174  16.618   7.941 -0.2996  0.0951 -0.3796
   62loPI   C1B  989   9.325  16.066   9.499  0.3161  0.0088  0.1009
   62loPI   C2B  990   9.261  15.972   9.097 -0.1913 -0.0996  0.0821
   62loPI   C3B  991   9.332  15.993   8.690  0.2505 -0.1540  0.1378
   62loPI   C4B  992   9.511  15.703   8.268  0.0230  0.0259 -0.1282
   63loPI    C1  993  14.544  14.005  10.424  0.0266 -0.0052  0.1091
   63loPI    C2  994  14.592  14.377  10.564 -0.0945  0.0311  0.0557
   63loPI    C3  995  14.652  14.063  10.805  0.1110  0.0818  0.0721
   63loPI   PO4  996  14.558  14.093  10.144 -0.2929 -0.3040  0.1920
   63loPI   GL1  997  14.276  14.126   9.919  0.0032 -0.4619  0.3509
   63loPI   GL2  998  14.398  14.267   9.667 -0.3615 -0.0441 -0.0455
   63loPI   C1A  999  14.054  13.949   9.600  0.0409  0.0656  0.2604
   63loPI   C2A 1000  14.119  13.841   9.127  0.1911  0.2676 -0.4311
   63loPI   C3A 1001  14.197  13.834   8.800 -0.0345 -0.1285  0.2332
   63loPI   C4A 1002  14.176  13.736   8.468  0.1374 -0.0847  0.1063
   63loPI   C5A 1003  14.204  13.586   8.128 -0.2226  0.2629  0.0788
   63loPI   C6A 1004  14.061  13.208   7.852  0.0167 -0.0146  0.1539
   63loPI   C1B 1005  14.426  14.129   9.338 -0.0777  0.1935  0.0816
   63loPI   C2B 1006  14.622  14.224   8.855 -0.2638  0.0861 -0.1863
   63loPI   C3B 1007  14.616  14.239   8.408  0.0467  0.0353  0.0603
   63loPI   C4B 1008  14.639  13.905   8.036 -0.2213 -0.2042 -0.1887
   64loPI    C1 1009  10.588  10.024  10.764  0.0532 -0.0545 -0.0298
   64loPI    C2 1010  10.787   9.836  11.056 -0.2006 -0.2345  0.0306
   64loPI    C3 1011  10.777  10.236  11.047  0.0207 -0.2253  0.1218
   64loPI   PO4 1012  10.631   9.996  10.447 -0.0950  0.0053 -0.0205
   64loPI   GL1 1013  10.512  10.171  10.176  0.4570  0.0757 -0.0820
   64loPI   GL2 1014  10.217  10.317  10.124  0.0592  0.1029  0.2961
   64loPI   C1A 1015  10.548  10.041   9.763 -0.1770 -0.1412  0.0740
   64loPI   C2A 1016  10.525  10.114   9.221  0.5697 -0.0614  0.2243
   64loPI   C3A 1017  10.624   9.978   8.831 -0.0776  0.1251  0.0637
   64loPI   C4A 1018  10.682   9.906   8.407 -0.1778 -0.2958  0.1680
   64loPI   C5A 1019  10.992   9.829   8.006  0.0449 -0.2860 -0.2313
   64loPI   C6A 1020  11.105   9.744   7.541 -0.1949 -0.0529 -0.0465
   64loPI   C1B 1021  10.134  10.270   9.683  0.0072 -0.0040  0.0808
   64loPI   C2B 1022  10.028  10.101   9.224  0.2619 -0.5096 -0.3599
   64loPI   C3B 1023  10.127  10.061   8.790 -0.1502 -0.0688 -0.3702
   64loPI   C4B 1024  10.097   9.983   8.486 -0.0654 -0.2609  0.0087
   65loPI    C1 1025  10.891   2.395  10.482  0.1039 -0.0098  0.1233
   65loPI    C2 1026  10.584   2.168  10.603 -0.0281  0.1528  0.0975
   65loPI    C3 1027  10.941   2.135  10.782 -0.0631 -0.0291  0.1353
   65loPI   PO4 1028  10.837   2.434  10.162 -0.0046 -0.1396  0.1333
   65loPI   GL1 1029  11.120   2.449   9.898  0.4451  0.1341  0.1928
   65loPI   GL2 1030  11.271   2.705   9.793  0.3784  0.1437  0.0520
   65loPI   C1A 1031  10.913   2.331   9.537 -0.0401  0.1565  0.1498
   65loPI   C2A 1032  10.906   2.375   9.083 -0.0357 -0.2214 -0.0915
   65loPI   C3A 1033  10.891   2.422   8.648  0.0799  0.3469 -0.4762
   65loPI   C4A 1034  10.855   2.137   8.322  0.3327 -0.1298 -0.0382
   65loPI   C5A 1035  11.138   1.947   8.068 -0.2721 -0.1211  0.0277
   65loPI   C6A 1036  11.459   1.784   7.850 -0.0638  0.2616  0.3539
   65loPI   C1B 1037  11.278   2.716   9.328 -0.1753  0.1375  0.1351
   65loPI   C2B 1038  11.302   2.697   8.871  0.0936 -0.2418 -0.3748
   65loPI   C3B 1039  11.271   2.732   8.447  0.1731  0.3219  0.0199
   65loPI   C4B 1040  11.226   2.800   8.055  0.1233  0.0543  0.1697
   66loPI    C1 1041  13.641   0.644  10.482  0.1268 -0.3590  0.2357
   66loPI    C2 1042  14.038   0.696  10.467  0.0780 -0.0087  0.0730
   66loPI    C3 1043  13.829   0.835  10.779  0.0737 -0.1374  0.1283
   66loPI   PO4 1044  13.533   0.740  10.238 -0.1676  0.2388 -0.1783
   66loPI   GL1 1045  13.750   0.669   9.888  0.0227  0.0030  0.0871
   66loPI   GL2 1046  13.986   0.806   9.987 -0.0554  0.2049 -0.3144
   66loPI   C1A 1047  13.773   0.589   9.491  0.0920 -0.2290 -0.0110
   66loPI   C2A 1048  13.755   0.647   9.103  0.0556 -0.1198 -0.5664
   66loPI   C3A 1049  13.725   0.613   8.733  0.4407  0.1180 -0.2334
   66loPI   C4A 1050  13.574   0.561   8.400  0.0658 -0.3721  0.1560
   66loPI   C5A 1051  13.495   0.785   8.097  0.2593  0.1328 -0.2473
   66loPI   C6A 1052  13.454   0.845   7.694 -0.1244  0.1777 -0.1842
   66loPI   C1B 1053  14.128   0.964   9.551  0.0517  0.0209 -0.1033
   66loPI   C2B 1054  14.110   1.003   9.121 -0.0845  0.1437  0.5937
   66loPI   C3B 1055  14.097   0.986   8.655  0.0424 -0.0224 -0.1570
   66loPI   C4B 1056  13.946   0.988   8.336  0.0754  0.0126 -0.2297
   67loPI    C1 1057  10.149   9.052  10.789 -0.1778 -0.1870  0.0701
   67loPI    C2 1058  10.281   8.908  11.139 -0.0050 -0.1925  0.0037
   67loPI    C3 1059  10.217   9.301  11.095 -0.1369 -0.2051  0.0757
   67loPI   PO4 1060  10.201   8.865  10.598 -0.2164 -0.2834 -0.1903
   67loPI   GL1 1061  10.145   8.595  10.277  0.3542  0.2894  0.1178
   67loPI   GL2 1062  10.230   8.979  10.106 -0.2843 -0.1514 -0.0343
   67loPI   C1A 1063  10.097   8.588   9.794  0.0359  0.0260  0.1589
   67loPI   C2A 1064  10.042   8.707   9.364 -0.0825 -0.1177  0.4332
   67loPI   C3A 1065  10.097   8.686   8.882 -0.0551 -0.0808 -0.2994
   67loPI   C4A 1066  10.247   8.693   8.525  0.3289 -0.3191  0.0815
   67loPI   C5A 1067  10.152   8.725   8.146 -0.1415  0.0638  0.0884
   67loPI   C6A 1068   9.901   8.457   7.823 -0.2310 -0.0628  0.1136
   67loPI   C1B 1069  10.320   9.058   9.572  0.2451 -0.1101 -0.1584
   67loPI   C2B 1070  10.346   9.045   9.157  0.0948  0.1043  0.1609
   67loPI   C3B 1071  10.494   9.067   8.667 -0.0897 -0.0405 -0.1927
   67loPI   C4B 1072  10.470   9.107   8.268  0.1248  0.2982  0.0454
   68loPI    C1 1073   3.922   9.769  10.830  0.2744 -0.1439 -0.1481
   68loPI    C2 1074   3.674  10.080  10.870 -0.0000 -0.3486 -0.2306
   68loPI    C3 1075   3.943  10.001  11.155  0.1348  0.0166 -0.2516
   68loPI   PO4 1076   3.977   9.780  10.555  0.3205  0.1024  0.0344
   68loPI   GL1 1077   4.033  10.041  10.152 -0.0236  0.2344  0.0647
   68loPI   GL2 1078   4.325   9.996  10.318  0.3887 -0.1232 -0.0997
   68loPI   C1A 1079   3.745  10.141   9.835  0.2991  0.0028  0.2989
   68loPI   C2A 1080   3.837  10.209   9.416 -0.2196  0.3294 -0.0952
   68loPI   C3A 1081   3.814  10.078   9.033 -0.3005 -0.2354  0.3625
   68loPI   C4A 1082   3.746  10.126   8.609  0.4970 -0.0460  0.1930
   68loPI   C5A 1083   3.956   9.943   8.286  0.0572  0.1420 -0.2803
   68loPI   C6A 1084   4.334   9.852   8.201  0.0697  0.2292  0.0144
   68loPI   C1B 1085   4.444  10.173   9.917  0.0108  0.1786  0.0657
   68loPI   C2B 1086   4.414  10.177   9.458 -0.0775  0.0872 -0.3657
   68loPI   C3B 1087   4.391  10.132   9.056  0.0726 -0.0093  0.2042
   68loPI   C4B 1088   4.267  10.091   8.702  0.0166 -0.2066  0.0627
   69loPI    C1 1089  10.007  11.976  10.781  0.0626 -0.0492  0.0205
   69loPI    C2 1090  10.227  11.780  11.052 -0.2462  0.0542  0.3548
   69loPI    C3 1091   9.880  11.625  10.926 -0.0579 -0.0419 -0.0662
   69loPI   PO4 1092  10.213  11.994  10.606 -0.1642  0.2794  0.1572
   69loPI   GL1 1093  10.243  11.793  10.130  0.0112 -0.1096 -0.3312
   69loPI   GL2 1094  10.587  11.932  10.039  0.5723  0.1672  0.1295
   69loPI   C1A 1095  10.295  11.467   9.875 -0.1085  0.0883 -0.3682
   69loPI   C2A 1096  10.174  11.567   9.432  0.0973  0.2547 -0.1573
   69loPI   C3A 1097  10.111  11.640   9.031  0.1808 -0.1996  0.2762
   69loPI   C4A 1098  10.035  11.466   8.519  0.2539  0.3466  0.1142
   69loPI   C5A 1099  10.105  11.489   8.083 -0.2400  0.4601 -0.2132
   69loPI   C6A 1100  10.274  11.873   7.855 -0.4111  0.1547  0.0351
   69loPI   C1B 1101  10.507  11.857   9.605  0.1381  0.0307  0.4067
   69loPI   C2B 1102  10.510  11.901   9.132 -0.1056  0.1030  0.0393
   69loPI   C3B 1103  10.503  11.766   8.663  0.0252 -0.0860  0.1509
   69loPI   C4B 1104  10.489  11.856   8.298 -0.0136 -0.1321 -0.3242
   70loPI    C1 1105  11.038  13.134  10.941  0.0488 -0.2920 -0.2571
   70loPI    C2 1106  10.783  12.940  11.179 -0.0907  0.0245 -0.1423
   70loPI    C3 1107  11.103  13.122  11.335 -0.1445  0.1734 -0.2045
   70loPI   PO4 1108  11.172  12.911  10.768  0.2050  0.2013  0.1391
   70loPI   GL1 1109  11.217  12.967  10.335 -0.2505  0.0603 -0.0236
   70loPI   GL2 1110  11.261  12.806  10.079 -0.1740 -0.0100  0.1552
   70loPI   C1A 1111  11.071  13.247   9.961 -0.0180  0.2329  0.0795
   70loPI   C2A 1112  11.022  13.309   9.595 -0.0265  0.2594  0.0669
   70loPI   C3A 1113  11.105  13.275   9.202 -0.0000 -0.0007  0.0285
   70loPI   C4A 1114  11.047  13.166   8.769  0.1292 -0.2004  0.0086
   70loPI   C5A 1115  10.939  13.035   8.446 -0.0579  0.1615 -0.0024
   70loPI   C6A 1116  10.595  13.055   8.138 -0.1410  0.1414 -0.0118
   70loPI   C1B 1117  11.205  12.871   9.545 -0.2068  0.2999 -0.0521
   70loPI   C2B 1118  11.121  12.758   9.198 -0.0745  0.2840  0.2915
   70loPI   C3B 1119  11.234  12.626   8.770  0.2521 -0.1030  0.4615
   70loPI   C4B 1120  11.155  12.624   8.343  0.0702  0.1330 -0.1062
   71loPI    C1 1121   8.447  17.109  10.721 -0.0288 -0.0758 -0.1714
   71loPI    C2 1122   8.223  16.794  10.823  0.0174  0.0244  0.2570
   71loPI    C3 1123   8.269  17.099  11.078  0.0525  0.3377 -0.1134
   71loPI   PO4 1124   8.454  17.119  10.427  0.1078  0.0695 -0.0249
   71loPI   GL1 1125   8.499  17.097  10.049  0.1768 -0.2214 -0.0838
   71loPI   GL2 1126   8.162  17.196   9.981 -0.3048 -0.0855 -0.0287
   71loPI   C1A 1127   8.550  17.122   9.552 -0.0540  0.1516 -0.1240
   71loPI   C2A 1128   8.575  17.061   9.131 -0.3720 -0.1969 -0.0723
   71loPI   C3A 1129   8.447  17.168   8.773 -0.0520  0.0498 -0.0849
   71loPI   C4A 1130   8.523  17.097   8.428  0.1748 -0.0447  0.0947
   71loPI   C5A 1131   8.649  16.818   8.235  0.1828 -0.1421  0.2880
   71loPI   C6A 1132   8.616  16.322   8.137 -0.2594  0.1123 -0.1803
   71loPI   C1B 1133   7.998  17.268   9.522  0.0409  0.0791 -0.1797
   71loPI   C2B 1134   7.983  17.252   9.045 -0.0499  0.1210 -0.0833
   71loPI   C3B 1135   8.010  17.308   8.610  0.1598 -0.0894 -0.0025
   71loPI   C4B 1136   8.076  17.105   8.186  0.0977 -0.1575  0.0343
   72loPI    C1 1137  17.506  11.037  10.867  0.2418 -0.0860  0.1132
   72loPI    C2 1138  17.401  11.416  10.938  0.1670 -0.0806 -0.0210
   72loPI    C3 1139  17.372  11.142  11.228 -0.1003 -0.0528 -0.0193
   72loPI   PO4 1140  17.433  10.982  10.632  0.1382 -0.4570 -0.0232
   72loPI   GL1 1141  17.661  10.904  10.250  0.1008 -0.2079  0.0560
   72loPI   GL2 1142  17.491  10.630  10.269 -0.0944 -0.0475  0.2608
   72loPI   C1A 1143  17.374  10.995   9.952  0.4954 -0.3322  0.1552
   72loPI   C2A 1144  17.425  10.923   9.462  0.1167 -0.3671 -0.0783
   72loPI   C3A 1145  17.379  10.840   9.056 -0.1092 -0.0999  0.1096
   72loPI   C4A 1146  17.359  10.877   8.637  0.0276  0.2288  0.0967
   72loPI   C5A 1147  17.368  10.740   8.175 -0.1820 -0.0953  0.1266
   72loPI   C6A 1148  17.325  10.346   7.871 -0.1995 -0.2652  0.1542
   72loPI   C1B 1149  17.472  10.485   9.880 -0.2688  0.1022  0.2371
   72loPI   C2B 1150  17.737  10.430   9.536 -0.1321  0.0491  0.1356
   72loPI   C3B 1151  17.614  10.413   9.036  0.0764  0.1554  0.2109
   72loPI   C4B 1152  17.498  10.405   8.603  0.1773  0.1066  0.3308
   73loPI    C1 1153  12.488  14.023  10.509  0.1581 -0.1529  0.1673
   73loPI    C2 1154  12.766  14.173  10.753 -0.0192 -0.1835  0.3916
   73loPI    C3 1155  12.566  13.843  10.857 -0.0600 -0.2275  0.1792
   73loPI   PO4 1156  12.383  14.200  10.449  0.3325 -0.0315 -0.1334
   73loPI   GL1 1157  12.338  14.519  10.220  0.0089  0.2012 -0.1420
   73loPI   GL2 1158  12.236  14.864  10.332  0.1352  0.0556  0.1093
   73loPI   C1A 1159  12.091  14.429   9.776 -0.0973  0.0908  0.0886
   73loPI   C2A 1160  12.127  14.459   9.299 -0.1607  0.0192  0.1756
   73loPI   C3A 1161  12.039  14.364   8.948  0.0273 -0.0191  0.1073
   73loPI   C4A 1162  12.197  14.274   8.581 -0.2451 -0.4543  0.0290
   73loPI   C5A 1163  12.547  14.015   8.340 -0.0045  0.1045 -0.1350
   73loPI   C6A 1164  12.988  14.121   8.157  0.1809 -0.4807  0.2161
   73loPI   C1B 1165  12.397  14.796   9.795 -0.0190 -0.0036 -0.4789
   73loPI   C2B 1166  12.488  14.779   9.349 -0.2071 -0.1700 -0.6065
   73loPI   C3B 1167  12.508  14.719   8.840 -0.3245 -0.2877  0.0297
   73loPI   C4B 1168  12.835  14.550   8.482 -0.0931 -0.1815 -0.0143
   74loPI    C1 1169  14.904   2.086  10.347  0.1065 -0.0623 -0.0462
   74loPI    C2 1170  14.576   2.003  10.560 -0.1321  0.1180 -0.3347
   74loPI    C3 1171  14.669   1.781  10.241  0.0747  0.0167 -0.2061
   74loPI   PO4 1172  14.838   2.298  10.236 -0.0935 -0.5088  0.2189
   74loPI   GL1 1173  14.704   2.501   9.833 -0.1381 -0.1310 -0.2037
   74loPI   GL2 1174  14.759   2.207   9.730  0.0002 -0.4274 -0.0532
   74loPI   C1A 1175  14.606   2.744   9.387 -0.1822 -0.0386 -0.0590
   74loPI   C2A 1176  14.571   2.809   8.991 -0.0803 -0.0466  0.2769
   74loPI   C3A 1177  14.409   2.722   8.585  0.0112 -0.1015  0.1263
   74loPI   C4A 1178  14.427   2.695   8.158  0.0391 -0.2807  0.0557
   74loPI   C5A 1179  14.641   2.728   7.867  0.1403 -0.0635  0.1351
   74loPI   C6A 1180  14.778   2.399   7.527  0.1485 -0.0112 -0.2369
   74loPI   C1B 1181  14.745   2.220   9.417 -0.0582 -0.2431 -0.0656
   74loPI   C2B 1182  14.640   2.280   9.007  0.2215  0.1273  0.1783
   74loPI   C3B 1183  14.646   2.317   8.465 -0.0010  0.1431  0.0560
   74loPI   C4B 1184  14.569   2.123   8.019  0.1222  0.0342  0.2783
   75loPI    C1 1185  17.336  15.467  10.721  0.0245  0.0059 -0.1982
   75loPI    C2 1186  17.168  15.518  10.362 -0.0460  0.1782 -0.1414
   75loPI    C3 1187  17.295  15.835  10.571  0.4070  0.0476 -0.2094
   75loPI   PO4 1188  17.539  15.293  10.646 -0.3359  0.0607 -0.1703
   75loPI   GL1 1189  17.607  15.177  10.101 -0.2480  0.1884  0.0463
   75loPI   GL2 1190  17.832  15.115   9.807  0.1023  0.4725  0.2843
   75loPI   C1A 1191  17.285  15.375   9.858 -0.0234  0.0364 -0.2891
   75loPI   C2A 1192  17.109  15.344   9.418  0.1660  0.0669  0.1397
   75loPI   C3A 1193  17.097  15.290   8.901 -0.0282 -0.0766 -0.1232
   75loPI   C4A 1194  17.078  15.268   8.429 -0.0424 -0.0489  0.0028
   75loPI   C5A 1195  17.099  15.040   8.075  0.0803  0.0457  0.0655
   75loPI   C6A 1196  16.937  15.234   7.751  0.1911  0.2396 -0.0474
   75loPI   C1B 1197  17.624  15.257   9.520  0.0129 -0.0962  0.3030
   75loPI   C2B 1198  17.562  15.154   9.080 -0.1085  0.1988  0.0649
   75loPI   C3B 1199  17.555  15.193   8.685 -0.1897  0.0064  0.0368
   75loPI   C4B 1200  17.559  15.164   8.290 -0.0573  0.0620 -0.0969
   76loPI    C1 1201  13.262  16.286  10.902 -0.0921 -0.1106  0.0311
   76loPI    C2 1202  13.601  16.476  10.807 -0.0982 -0.1784 -0.1301
   76loPI    C3 1203  13.601  16.198  11.094 -0.0649 -0.0201  0.0252
   76loPI   PO4 1204  13.173  16.253  10.610 -0.0020  0.1018  0.2969
   76loPI   GL1 1205  13.019  16.315  10.117  0.0675 -0.1964  0.0553
   76loPI   GL2 1206  12.713  16.231   9.892 -0.3389 -0.0861  0.2662
   76loPI   C1A 1207  13.009  16.493   9.610  0.0716 -0.1861  0.0345
   76loPI   C2A 1208  12.870  16.610   9.246  0.1387 -0.1341 -0.0041
   76loPI   C3A 1209  12.952  16.406   8.964  0.0865  0.0249  0.3089
   76loPI   C4A 1210  12.938  16.461   8.580  0.2508  0.1208  0.3973
   76loPI   C5A 1211  12.947  16.499   8.090 -0.2015  0.2405  0.0286
   76loPI   C6A 1212  12.920  16.767   7.761  0.1160  0.3021  0.0371
   76loPI   C1B 1213  12.551  16.208   9.502  0.3294  0.1685 -0.0433
   76loPI   C2B 1214  12.490  16.057   9.116 -0.0951  0.2846 -0.1441
   76loPI   C3B 1215  12.547  16.104   8.676  0.0299  0.2518 -0.1198
   76loPI   C4B 1216  12.559  16.194   8.288 -0.0560 -0.0417 -0.0800
   77loPI    C1 1217  13.685  13.993  10.543 -0.0085  0.2658 -0.0111
   77loPI    C2 1218  13.552  13.820  10.878  0.0840  0.1010 -0.0580
   77loPI    C3 1219  13.651  14.208  10.879 -0.0744  0.1425  0.0619
   77loPI   PO4 1220  13.441  14.027  10.395  0.4564  0.0902 -0.0439
   77loPI   GL1 1221  13.290  14.131   9.933 -0.2438 -0.1012 -0.0740
   77loPI   GL2 1222  13.372  14.447   9.970  0.0335  0.0877  0.2661
   77loPI   C1A 1223  13.553  14.151   9.548  0.1047  0.0617  0.0953
   77loPI   C2A 1224  13.753  14.083   9.220  0.0837  0.0501 -0.0757
   77loPI   C3A 1225  13.721  13.905   8.744  0.0138  0.0786 -0.1976
   77loPI   C4A 1226  13.760  13.943   8.294  0.0040  0.1494  0.0284
   77loPI   C5A 1227  13.689  13.665   7.978 -0.2456  0.1603  0.2787
   77loPI   C6A 1228  13.972  13.640   7.583  0.0584  0.2001 -0.1584
   77loPI   C1B 1229  13.101  14.334   9.445 -0.1765 -0.2293  0.0243
   77loPI   C2B 1230  13.198  14.138   9.059 -0.0243 -0.1341 -0.1274
   77loPI   C3B 1231  13.162  14.181   8.618  0.1192 -0.0669 -0.2021
   77loPI   C4B 1232  13.466  14.296   8.207  0.0855  0.0105 -0.0659
   78loPI    C1 1233   6.751   6.173  10.651 -0.1122 -0.1835 -0.1318
   78loPI    C2 1234   6.664   6.024  11.012 -0.1516 -0.1935 -0.1455
   78loPI    C3 1235   7.012   6.212  10.952 -0.2255 -0.0241 -0.0522
   78loPI   PO4 1236   6.736   5.918  10.448  0.2080 -0.1922 -0.1016
   78loPI   GL1 1237   6.785   5.948  10.115 -0.0207 -0.1930  0.2046
   78loPI   GL2 1238   6.561   5.720  10.026  0.0435 -0.2126 -0.4391
   78loPI   C1A 1239   6.876   6.074   9.664 -0.2650  0.1585  0.1041
   78loPI   C2A 1240   6.947   6.262   9.253  0.0191  0.2009 -0.2483
   78loPI   C3A 1241   6.998   6.221   8.888  0.1441 -0.1044  0.5875
   78loPI   C4A 1242   6.898   6.255   8.459  0.3256 -0.1458 -0.1056
   78loPI   C5A 1243   6.772   6.456   8.066 -0.1298 -0.0266 -0.1736
   78loPI   C6A 1244   6.411   6.461   7.963 -0.0287  0.2529  0.0854
   78loPI   C1B 1245   6.470   5.742   9.667  0.0866 -0.1357  0.2936
   78loPI   C2B 1246   6.440   5.796   9.258  0.0274  0.1710 -0.1019
   78loPI   C3B 1247   6.586   5.734   8.850 -0.2200 -0.2050 -0.2197
   78loPI   C4B 1248   6.613   5.848   8.480 -0.4090 -0.0074 -0.1758
   79loPI    C1 1249   6.777   5.237  10.542 -0.1263 -0.0697 -0.0610
   79loPI    C2 1250   6.994   5.256  10.877  0.0184 -0.0074 -0.1571
   79loPI    C3 1251   6.662   5.476  10.841 -0.0159 -0.0397 -0.0421
   79loPI   PO4 1252   6.932   5.347  10.361 -0.0118 -0.1865  0.0579
   79loPI   GL1 1253   7.101   5.315  10.029 -0.0695 -0.0903  0.0947
   79loPI   GL2 1254   7.051   4.979   9.946  0.1276  0.0421 -0.0347
   79loPI   C1A 1255   6.927   5.590   9.710 -0.2243  0.0759 -0.0450
   79loPI   C2A 1256   6.936   5.643   9.327  0.1830  0.1709  0.3784
   79loPI   C3A 1257   7.095   5.724   9.007  0.0198 -0.3258 -0.2041
   79loPI   C4A 1258   7.186   5.731   8.542 -0.0318 -0.1631  0.0324
   79loPI   C5A 1259   6.970   5.942   8.102 -0.0615  0.2417  0.0512
   79loPI   C6A 1260   6.709   5.960   7.836 -0.0400 -0.1422  0.1217
   79loPI   C1B 1261   7.158   5.205   9.510 -0.0620  0.1772 -0.6279
   79loPI   C2B 1262   7.208   5.150   9.120 -0.0509  0.0280  0.1453
   79loPI   C3B 1263   7.284   5.186   8.628 -0.0357 -0.1709  0.4395
   79loPI   C4B 1264   7.305   5.191   8.196  0.2331 -0.4993 -0.0853
   80loPI    C1 1265   6.293   8.800  10.960  0.3367 -0.0258  0.0640
   80loPI    C2 1266   6.009   8.658  11.202  0.1580  0.2047 -0.0066
   80loPI    C3 1267   6.341   8.818  11.357  0.1416  0.1548  0.0813
   80loPI   PO4 1268   6.340   8.633  10.670 -0.0172  0.0933 -0.0846
   80loPI   GL1 1269   6.046   8.343  10.276  0.0476 -0.1026 -0.0470
   80loPI   GL2 1270   6.344   8.315  10.216  0.1473  0.0436 -0.0489
   80loPI   C1A 1271   5.746   8.303   9.891  0.2616  0.0196  0.0442
   80loPI   C2A 1272   5.800   8.220   9.485 -0.1490  0.0459  0.0849
   80loPI   C3A 1273   5.835   8.215   8.993  0.2173 -0.0738  0.0161
   80loPI   C4A 1274   5.775   8.213   8.664  0.0820 -0.1984 -0.0199
   80loPI   C5A 1275   6.005   8.334   8.374 -0.2464  0.0089 -0.0756
   80loPI   C6A 1276   6.075   8.568   7.972 -0.0847  0.0329  0.0058
   80loPI   C1B 1277   6.237   8.125   9.830  0.0615  0.3389 -0.1326
   80loPI   C2B 1278   6.279   8.110   9.427 -0.0827  0.0535  0.2111
   80loPI   C3B 1279   6.339   8.145   8.965  0.0782 -0.1659  0.0849
   80loPI   C4B 1280   6.358   8.078   8.557  0.0632 -0.0994 -0.0347
   81loPI    C1 1281   0.814  17.943  10.078  0.0910  0.0537 -0.1533
   81loPI    C2 1282   0.507  18.140  10.241  0.0534 -0.1374  0.0100
   81loPI    C3 1283   0.761  17.936  10.474  0.3169  0.0346 -0.1220
   81loPI   PO4 1284   0.785  18.009   9.820 -0.2287  0.1436 -0.0155
   81loPI   GL1 1285   0.920  17.763   9.379 -0.0442 -0.0734  0.2472
   81loPI   GL2 1286   0.743  17.812   9.207 -0.1325 -0.1358 -0.2005
   81loPI   C1A 1287   1.212  18.020   9.140  0.1670  0.1492 -0.1880
   81loPI   C2A 1288   1.238  18.055   8.664 -0.1129 -0.1687  0.0187
   81loPI   C3A 1289   1.245  18.058   8.197  0.1228  0.0805  0.0044
   81loPI   C4A 1290   1.246  17.972   7.812  0.1122  0.0826  0.2158
   81loPI   C5A 1291   1.161  17.787   7.467  0.2860 -0.2558  0.0384
   81loPI   C6A 1292   1.012  17.351   7.563 -0.1674  0.4345 -0.0398
   81loPI   C1B 1293   0.837  17.841   8.852 -0.3687  0.0490  0.0571
   81loPI   C2B 1294   0.803  17.894   8.440  0.0125 -0.0346  0.2776
   81loPI   C3B 1295   0.730  17.833   8.098  0.0819  0.1548  0.1097
   81loPI   C4B 1296   0.753  17.815   7.689  0.2666 -0.0406  0.0026
   82loPI    C1 1297   9.332   0.988  10.644 -0.1083  0.0233  0.0201
   82loPI    C2 1298   9.281   0.838  11.011  0.2603 -0.1047  0.0238
   82loPI    C3 1299   9.532   1.144  10.953 -0.0549  0.1416 -0.0731
   82loPI   PO4 1300   9.291   0.760  10.541 -0.0969  0.1485  0.3826
   82loPI   GL1 1301   9.381   0.521  10.177 -0.1376 -0.0696 -0.1242
   82loPI   GL2 1302   9.387   0.868   9.899 -0.0783 -0.2322 -0.2856
   82loPI   C1A 1303   9.505   0.342   9.778 -0.0996 -0.1059  0.0201
   82loPI   C2A 1304   9.450   0.198   9.252  0.0642 -0.2095  0.1798
   82loPI   C3A 1305   9.452   0.146   8.803 -0.1369 -0.0230 -0.1815
   82loPI   C4A 1306   9.289  -0.132   8.527  0.4662  0.4078 -0.2206
   82loPI   C5A 1307   9.162  -0.608   8.327 -0.2003 -0.0554  0.3766
   82loPI   C6A 1308   9.336  -0.760   7.921  0.0827  0.2886  0.2118
   82loPI   C1B 1309   9.344   0.763   9.446 -0.3574 -0.1007 -0.0007
   82loPI   C2B 1310   9.278   0.699   9.019  0.2046  0.1740 -0.4340
   82loPI   C3B 1311   9.298   0.745   8.590 -0.0371  0.1254 -0.1332
   82loPI   C4B 1312   9.587   0.772   8.327  0.2533  0.1716  0.0120
   83loPI    C1 1313  11.753  10.869  10.908  0.0224 -0.0892  0.2852
   83loPI    C2 1314  11.374  10.810  11.020 -0.2344  0.0437 -0.4547
   83loPI    C3 1315  11.536  11.174  11.048  0.0071 -0.1023  0.2900
   83loPI   PO4 1316  11.787  10.772  10.644  0.0083  0.2069  0.0596
   83loPI   GL1 1317  11.561  10.779  10.266 -0.3685  0.0557 -0.0121
   83loPI   GL2 1318  11.113  10.817  10.234  0.3418  0.0379  0.0522
   83loPI   C1A 1319  11.459  10.797   9.766 -0.2932 -0.1162  0.0527
   83loPI   C2A 1320  11.308  10.782   9.365  0.1875  0.2323 -0.0221
   83loPI   C3A 1321  11.380  10.864   8.950  0.1664 -0.1777  0.0011
   83loPI   C4A 1322  11.246  10.648   8.543 -0.0682  0.0152  0.1805
   83loPI   C5A 1323  11.331  10.294   8.200 -0.0583  0.1241 -0.2684
   83loPI   C6A 1324  11.499   9.955   7.926  0.0070  0.2942 -0.0308
   83loPI   C1B 1325  10.920  10.877   9.782  0.0545 -0.0008  0.1223
   83loPI   C2B 1326  10.790  10.913   9.372  0.0417 -0.1491  0.2020
   83loPI   C3B 1327  10.839  10.811   8.898 -0.0241  0.0078 -0.1122
   83loPI   C4B 1328  10.767  10.933   8.433 -0.1349  0.0651  0.2709
   84loPI    C1 1329  16.798  12.855  10.447 -0.1207  0.0558 -0.1054
   84loPI    C2 1330  16.626  12.995  10.114 -0.0944  0.0574 -0.1184
   84loPI    C3 1331  16.588  13.194  10.459  0.0130  0.1412 -0.1545
   84loPI   PO4 1332  16.828  12.635  10.427  0.1177 -0.0971 -0.1235
   84loPI   GL1 1333  16.805  12.395  10.034  0.0676 -0.0087 -0.1652
   84loPI   GL2 1334  16.974  12.621   9.854 -0.0355  0.1179 -0.2446
   84loPI   C1A 1335  16.982  12.115   9.673  0.0879 -0.0718 -0.0319
   84loPI   C2A 1336  17.087  11.972   9.272  0.0126 -0.1628  0.3968
   84loPI   C3A 1337  17.033  11.915   8.906  0.1657 -0.2327  0.2450
   84loPI   C4A 1338  17.066  11.862   8.449  0.1933  0.0155  0.1075
   84loPI   C5A 1339  17.215  11.767   8.008 -0.1807  0.2205 -0.5624
   84loPI   C6A 1340  17.316  11.225   8.025  0.0431  0.2529  0.1173
   84loPI   C1B 1341  16.904  12.485   9.384  0.0008  0.0183  0.0266
   84loPI   C2B 1342  16.921  12.397   9.008  0.0707  0.3582  0.0099
   84loPI   C3B 1343  16.932  12.413   8.624  0.1336 -0.1473 -0.0386
   84loPI   C4B 1344  17.068  12.377   8.321 -0.0598 -0.1060  0.1496
   85loPI    C1 1345   3.282   9.690  10.863 -0.4327  0.0056  0.1608
   85loPI    C2 1346   3.533   9.613  11.166  0.0932  0.1542 -0.2220
   85loPI    C3 1347   3.287   9.927  11.185  0.0207  0.0812  0.1055
   85loPI   PO4 1348   3.453   9.662  10.657 -0.1458 -0.1669 -0.0172
   85loPI   GL1 1349   3.403   9.620  10.256 -0.3347  0.2346 -0.1699
   85loPI   GL2 1350   3.058   9.650  10.315  0.0525  0.1245 -0.1143
   85loPI   C1A 1351   3.420   9.724   9.829 -0.0561 -0.0215 -0.0181
   85loPI   C2A 1352   3.443   9.867   9.410 -0.0558  0.2940  0.3070
   85loPI   C3A 1353   3.380   9.814   9.023 -0.1181 -0.2371 -0.1756
   85loPI   C4A 1354   3.370   9.694   8.571  0.1044 -0.1694  0.3961
   85loPI   C5A 1355   3.436   9.734   8.184  0.1601  0.0483  0.3275
   85loPI   C6A 1356   3.618   9.744   7.735 -0.0650  0.1806  0.0473
   85loPI   C1B 1357   3.093   9.338  10.001  0.0326 -0.0810  0.0778
   85loPI   C2B 1358   3.098   9.476   9.546 -0.1319 -0.1583 -0.0904
   85loPI   C3B 1359   3.039   9.547   9.206  0.0441 -0.1426  0.0572
   85loPI   C4B 1360   3.103   9.355   8.828  0.1785 -0.0010 -0.0494
   86loPI    C1 1361  15.356  14.859  10.487  0.1523  0.0197 -0.1243
   86loPI    C2 1362  15.423  14.725  10.858 -0.3169 -0.0308 -0.0522
   86loPI    C3 1363  15.541  15.093  10.753 -0.1256 -0.0400  0.1257
   86loPI   PO4 1364  15.424  14.621  10.352  0.0417  0.2923  0.0132
   86loPI   GL1 1365  15.346  14.494   9.900  0.0364 -0.1696  0.1631
   86loPI   GL2 1366  15.449  14.214   9.782 -0.0423 -0.1900 -0.0473
   86loPI   C1A 1367  15.317  14.774   9.456 -0.3344 -0.4384 -0.4335
   86loPI   C2A 1368  15.397  14.838   8.979 -0.0536 -0.4274 -0.1957
   86loPI   C3A 1369  15.317  14.895   8.473 -0.1166  0.3405  0.0905
   86loPI   C4A 1370  15.157  15.037   8.044 -0.0405  0.1825  0.0348
   86loPI   C5A 1371  15.312  15.308   7.751 -0.2367 -0.1058 -0.0874
   86loPI   C6A 1372  15.695  15.456   7.579 -0.0446 -0.0093 -0.0461
   86loPI   C1B 1373  15.364  14.288   9.383  0.1053  0.2547 -0.0189
   86loPI   C2B 1374  15.486  14.302   8.899 -0.2984  0.1384 -0.0986
   86loPI   C3B 1375  15.534  14.420   8.487  0.1279 -0.2904 -0.2387
   86loPI   C4B 1376  15.446  14.578   8.064  0.0180 -0.0909 -0.1607
   87loPI    C1 1377   3.347   8.814  10.650 -0.0455  0.1655  0.2755
   87loPI    C2 1378   3.397   9.178  10.807 -0.1870  0.1957  0.2517
   87loPI    C3 1379   3.199   9.134  10.462  0.4040  0.1650 -0.0984
   87loPI   PO4 1380   3.565   8.748  10.549  0.0321  0.2196 -0.1171
   87loPI   GL1 1381   3.731   9.017  10.222 -0.3604 -0.0137 -0.3011
   87loPI   GL2 1382   3.977   8.930  10.097 -0.3875 -0.1041  0.0332
   87loPI   C1A 1383   3.588   9.297   9.929 -0.1410 -0.0680 -0.2251
   87loPI   C2A 1384   3.578   9.400   9.474  0.0997  0.2756  0.1675
   87loPI   C3A 1385   3.599   9.360   9.102  0.0280 -0.0563 -0.1848
   87loPI   C4A 1386   3.584   9.182   8.716  0.1415 -0.0340 -0.3427
   87loPI   C5A 1387   3.761   9.394   8.276  0.2341  0.2900 -0.1452
   87loPI   C6A 1388   3.646   9.207   7.848  0.1476 -0.1219 -0.1399
   87loPI   C1B 1389   3.819   8.986   9.623  0.1083 -0.2233  0.2324
   87loPI   C2B 1390   3.737   8.792   9.109  0.0199  0.1121 -0.0409
   87loPI   C3B 1391   3.866   8.776   8.658 -0.2835  0.2740  0.2064
   87loPI   C4B 1392   3.673   8.888   8.278 -0.2625 -0.0769  0.0389
   88loPI    C1 1393  12.940  15.123  10.729  0.0368 -0.1153 -0.4536
   88loPI    C2 1394  12.710  15.063  10.407 -0.0551 -0.0033 -0.4097
   88loPI    C3 1395  12.552  15.222  10.738  0.0766  0.0360 -0.3654
   88loPI   PO4 1396  13.037  14.921  10.817 -0.1486  0.5268 -0.0217
   88loPI   GL1 1397  13.036  14.688  10.444 -0.3199 -0.0828  0.0669
   88loPI   GL2 1398  12.908  14.400  10.334  0.0626  0.1182 -0.0032
   88loPI   C1A 1399  12.895  14.798   9.986 -0.1123  0.0428  0.1700
   88loPI   C2A 1400  12.936  14.818   9.511  0.1796  0.0035  0.3553
   88loPI   C3A 1401  12.971  14.662   9.005  0.1768  0.1419 -0.2523
   88loPI   C4A 1402  13.278  14.807   8.697  0.2088  0.0455 -0.3968
   88loPI   C5A 1403  13.716  14.956   8.730 -0.0119 -0.1536  0.3176
   88loPI   C6A 1404  13.985  14.913   9.164 -0.1452 -0.0121 -0.1274
   88loPI   C1B 1405  12.849  14.294  10.009  0.2019 -0.0551  0.2554
   88loPI   C2B 1406  12.577  14.316   9.682 -0.0737  0.0726  0.1020
   88loPI   C3B 1407  12.611  14.304   9.224  0.1525  0.0854 -0.0207
   88loPI   C4B 1408  12.656  14.184   8.782 -0.2487 -0.0680  0.0071
   89loPI    C1 1409  15.002   6.801  10.962 -0.0310  0.0912  0.1421
   89loPI    C2 1410  14.966   7.123  11.196 -0.3391  0.0332  0.1790
   89loPI    C3 1411  15.108   6.781  11.347  0.0675  0.1693  0.1196
   89loPI   PO4 1412  15.065   6.837  10.722 -0.0476 -0.0219  0.4667
   89loPI   GL1 1413  15.133   6.968  10.305 -0.2138  0.2988 -0.0491
   89loPI   GL2 1414  15.324   6.702  10.125 -0.1128  0.1048  0.5045
   89loPI   C1A 1415  15.149   7.264   9.974  0.1169 -0.0516  0.0845
   89loPI   C2A 1416  15.137   7.347   9.472  0.0472 -0.0091 -0.0875
   89loPI   C3A 1417  15.215   7.298   9.039  0.1002  0.1605  0.0876
   89loPI   C4A 1418  15.243   7.317   8.693 -0.0025  0.1356 -0.0100
   89loPI   C5A 1419  15.171   7.206   8.272  0.1520 -0.0355  0.1717
   89loPI   C6A 1420  15.368   7.126   7.892  0.3117 -0.2907 -0.1915
   89loPI   C1B 1421  15.239   6.814   9.786 -0.0001 -0.1835  0.1225
   89loPI   C2B 1422  15.259   6.860   9.371  0.0604 -0.0938 -0.0120
   89loPI   C3B 1423  15.306   6.736   8.910 -0.1030  0.2384 -0.2090
   89loPI   C4B 1424  15.261   6.758   8.467 -0.0573  0.1077  0.2222
   90loPI    C1 1425   3.448  18.513  10.250  0.1634  0.0986 -0.0666
   90loPI    C2 1426   3.131  18.742  10.337  0.1099  0.0229 -0.0609
   90loPI    C3 1427   3.302  18.520  10.623  0.0409 -0.0936 -0.1093
   90loPI   PO4 1428   3.301  18.350   9.990 -0.1398  0.1261  0.3095
   90loPI   GL1 1429   3.238  18.234   9.593 -0.3716 -0.3201 -0.0079
   90loPI   GL2 1430   3.189  18.515   9.411  0.0035 -0.2342 -0.0627
   90loPI   C1A 1431   3.461  18.037   9.272  0.1426  0.2495 -0.3051
   90loPI   C2A 1432   3.572  17.995   8.892 -0.1513 -0.1825  0.0290
   90loPI   C3A 1433   3.569  17.918   8.460  0.1716  0.0615  0.0092
   90loPI   C4A 1434   3.720  17.758   8.129  0.2273 -0.0737 -0.1896
   90loPI   C5A 1435   4.058  17.724   7.759  0.0575  0.1089 -0.3265
   90loPI   C6A 1436   4.010  17.881   7.427  0.2071 -0.1539  0.4955
   90loPI   C1B 1437   3.324  18.435   8.964  0.3078  0.0581 -0.0609
   90loPI   C2B 1438   3.496  18.425   8.607 -0.1090 -0.0697 -0.0817
   90loPI   C3B 1439   3.481  18.351   8.110 -0.2350 -0.1687 -0.1192
   90loPI   C4B 1440   3.525  18.038   7.798 -0.2368  0.0473  0.0994
   91loPI    C1 1441   0.218   8.096  10.771  0.1179 -0.0456  0.0498
   91loPI    C2 1442   0.035   8.421  10.627  0.0728 -0.1185 -0.0583
   91loPI    C3 1443   0.204   8.431  10.989  0.0971  0.0341 -0.0733
   91loPI   PO4 1444   0.408   7.928  10.568  0.1081  0.0219 -0.0548
   91loPI   GL1 1445   0.600   7.972  10.209 -0.1440  0.0541  0.0092
   91loPI   GL2 1446   0.792   8.183  10.211  0.0579 -0.3937  0.0708
   91loPI   C1A 1447   0.644   7.918   9.721 -0.2197  0.2755 -0.2138
   91loPI   C2A 1448   0.663   8.066   9.245  0.2324  0.0895 -0.0715
   91loPI   C3A 1449   0.607   8.091   8.872  0.1961 -0.4299  0.1224
   91loPI   C4A 1450   0.593   8.139   8.462 -0.2872 -0.2436  0.1206
   91loPI   C5A 1451   0.550   8.063   8.046  0.0185 -0.2713  0.2435
   91loPI   C6A 1452   0.521   8.246   7.667 -0.0773  0.0026 -0.1564
   91loPI   C1B 1453   0.892   8.377   9.799  0.2507 -0.0408 -0.1295
   91loPI   C2B 1454   1.038   8.572   9.392 -0.2098 -0.1022 -0.4231
   91loPI   C3B 1455   0.952   8.510   8.952 -0.0657  0.2964  0.2419
   91loPI   C4B 1456   0.967   8.530   8.558  0.0156  0.1327  0.3400
   92loPI    C1 1457  16.607  16.348  10.237 -0.1561  0.1508 -0.0567
   92loPI    C2 1458  16.408  16.431  10.574  0.0995  0.1461  0.0975
   92loPI    C3 1459  16.346  16.083  10.387 -0.0507  0.1530  0.1331
   92loPI   PO4 1460  16.531  16.513  10.032  0.1170 -0.4325 -0.3419
   92loPI   GL1 1461  16.593  16.449   9.637  0.0104 -0.0272  0.1819
   92loPI   GL2 1462  16.266  16.456   9.624 -0.2725  0.1550  0.4447
   92loPI   C1A 1463  16.862  16.322   9.410 -0.0756  0.2219 -0.1125
   92loPI   C2A 1464  16.899  16.213   8.969 -0.0492  0.0623 -0.0274
   92loPI   C3A 1465  16.834  16.306   8.525  0.3044  0.1470 -0.0484
   92loPI   C4A 1466  16.664  16.105   8.026 -0.0370  0.0503  0.0182
   92loPI   C5A 1467  16.335  15.839   8.021 -0.0796  0.1422  0.0197
   92loPI   C6A 1468  15.902  15.854   7.789 -0.2734  0.2055 -0.1440
   92loPI   C1B 1469  16.310  16.474   9.127 -0.1717  0.2596  0.0719
   92loPI   C2B 1470  16.362  16.473   8.768 -0.1238 -0.4352  0.0031
   92loPI   C3B 1471  16.284  16.425   8.345 -0.6019  0.1932 -0.1549
   92loPI   C4B 1472  16.172  16.560   8.017 -0.0169 -0.0227 -0.0301
   93loPI    C1 1473   4.433   7.168  10.716 -0.2661 -0.0159 -0.0586
   93loPI    C2 1474   4.080   7.297  10.854 -0.2469 -0.0973  0.0681
   93loPI    C3 1475   4.402   7.302  11.091 -0.0951  0.2513 -0.1378
   93loPI   PO4 1476   4.231   7.001  10.490 -0.0212 -0.2262  0.0682
   93loPI   GL1 1477   4.206   6.952  10.054 -0.3272 -0.0374  0.0028
   93loPI   GL2 1478   4.110   7.237   9.966  0.5312  0.3307  0.1623
   93loPI   C1A 1479   4.377   6.857   9.754  0.0943 -0.2630 -0.0027
   93loPI   C2A 1480   4.397   6.905   9.292 -0.2449 -0.0069  0.0154
   93loPI   C3A 1481   4.415   6.819   8.850 -0.1383 -0.1832 -0.1250
   93loPI   C4A 1482   4.489   6.690   8.483 -0.2330 -0.1621  0.0120
   93loPI   C5A 1483   4.246   6.781   8.132 -0.2358  0.0705 -0.3065
   93loPI   C6A 1484   3.911   7.051   7.803  0.1715 -0.0067 -0.2275
   93loPI   C1B 1485   4.120   7.310   9.626  0.4281  0.1041 -0.0007
   93loPI   C2B 1486   4.221   7.305   9.176  0.3348  0.0859 -0.0074
   93loPI   C3B 1487   4.236   7.373   8.760  0.1470 -0.0539  0.0886
   93loPI   C4B 1488   4.325   7.189   8.397 -0.2420  0.0536  0.0151
   94loPI    C1 1489   9.233   4.856  10.869  0.1259 -0.2251 -0.1015
   94loPI    C2 1490   9.146   5.159  11.114 -0.4042 -0.1291 -0.3946
   94loPI    C3 1491   9.278   4.813  11.264  0.0950  0.1990 -0.0475
   94loPI   PO4 1492   9.302   4.991  10.653 -0.0433  0.0709 -0.2129
   94loPI   GL1 1493   9.431   5.131  10.241  0.2285 -0.0251 -0.2334
   94loPI   GL2 1494   9.459   5.453  10.191 -0.1105  0.3137 -0.1578
   94loPI   C1A 1495   9.515   4.927   9.837 -0.0716 -0.0329  0.1844
   94loPI   C2A 1496   9.602   4.880   9.406 -0.4506 -0.0508  0.1340
   94loPI   C3A 1497   9.631   4.994   8.906  0.2940 -0.0341  0.1142
   94loPI   C4A 1498   9.723   5.090   8.507  0.1692  0.0660 -0.1439
   94loPI   C5A 1499   9.766   4.948   8.135  0.1444  0.0225  0.0359
   94loPI   C6A 1500   9.767   4.612   7.758  0.0491 -0.2208  0.0806
   94loPI   C1B 1501   9.386   5.528   9.799  0.0867 -0.0066  0.0451
   94loPI   C2B 1502   9.410   5.430   9.338 -0.0096  0.1363  0.2123
   94loPI   C3B 1503   9.540   5.474   8.845 -0.1461  0.0721  0.2135
   94loPI   C4B 1504   9.675   5.558   8.382  0.0023 -0.0523 -0.1980
   95loPI    C1 1505  14.260  16.128  10.294  0.3196  0.1166 -0.0877
   95loPI    C2 1506  14.063  16.388  10.525 -0.1369 -0.0335 -0.2957
   95loPI    C3 1507  14.170  16.032  10.672  0.1948  0.1368 -0.1119
   95loPI   PO4 1508  14.223  16.145  10.029 -0.2071 -0.2393 -0.5188
   95loPI   GL1 1509  14.491  16.087   9.674  0.0974 -0.0678  0.0985
   95loPI   GL2 1510  14.712  16.191   9.591  0.1508  0.1163  0.2842
   95loPI   C1A 1511  14.349  15.804   9.356  0.2071 -0.1440 -0.1850
   95loPI   C2A 1512  14.222  15.868   8.945  0.1932  0.3429  0.0982
   95loPI   C3A 1513  14.105  15.790   8.495 -0.3404  0.2205 -0.0120
   95loPI   C4A 1514  13.984  15.860   8.033 -0.1154  0.1730 -0.0101
   95loPI   C5A 1515  13.673  15.842   7.797  0.0572  0.0285 -0.0408
   95loPI   C6A 1516  13.700  15.865   7.381  0.0587 -0.0696 -0.1995
   95loPI   C1B 1517  14.644  16.114   9.071 -0.0867  0.0009 -0.1789
   95loPI   C2B 1518  14.557  16.002   8.627  0.0618 -0.0458  0.1971
   95loPI   C3B 1519  14.458  16.062   8.298 -0.0585  0.2357 -0.0703
   95loPI   C4B 1520  14.307  16.188   7.912 -0.1078 -0.0518 -0.4747
   96loPI    C1 1521   2.984  16.752  10.295  0.2072  0.0731 -0.0625
   96loPI    C2 1522   2.913  16.499  10.596  0.3264 -0.1098 -0.1860
   96loPI    C3 1523   3.160  16.809  10.649  0.1095  0.0351 -0.0077
   96loPI   PO4 1524   3.104  16.649  10.023 -0.2371  0.0084  0.2641
   96loPI   GL1 1525   3.129  16.770   9.641  0.0698  0.2145  0.1233
   96loPI   GL2 1526   3.112  16.352   9.591 -0.1912  0.0560  0.0869
   96loPI   C1A 1527   3.410  16.659   9.261 -0.1056  0.1319 -0.1681
   96loPI   C2A 1528   3.425  16.558   8.986 -0.1620  0.0517  0.1874
   96loPI   C3A 1529   3.369  16.460   8.526 -0.0660  0.1349  0.3684
   96loPI   C4A 1530   3.390  16.531   8.115  0.0109  0.0860  0.0254
   96loPI   C5A 1531   3.239  16.467   7.814 -0.3473 -0.0967 -0.2875
   96loPI   C6A 1532   3.041  16.683   7.513  0.0996  0.1281  0.1485
   96loPI   C1B 1533   3.294  16.192   9.302 -0.0155 -0.1436 -0.1700
   96loPI   C2B 1534   3.122  16.199   8.941 -0.2085  0.0174 -0.4924
   96loPI   C3B 1535   2.973  16.104   8.499 -0.2456 -0.2683  0.0857
   96loPI   C4B 1536   2.938  16.131   8.006  0.4201 -0.3870 -0.0293
   97loPI    C1 1537   2.706   7.667  10.491  0.0205 -0.3091  0.0509
   97loPI    C2 1538   2.499   7.345  10.374 -0.0978 -0.2201  0.0135
   97loPI    C3 1539   2.619   7.378  10.755 -0.1861 -0.2541  0.0446
   97loPI   PO4 1540   2.973   7.622  10.210  0.2353  0.1685  0.0784
   97loPI   GL1 1541   3.025   7.793   9.773 -0.1473  0.0387  0.2376
   97loPI   GL2 1542   3.076   7.467   9.640 -0.0842  0.0135 -0.0736
   97loPI   C1A 1543   3.020   7.927   9.390  0.0360 -0.0367  0.1682
   97loPI   C2A 1544   3.123   8.016   8.966  0.0585 -0.2645 -0.1346
   97loPI   C3A 1545   3.061   7.846   8.546  0.0843 -0.1928  0.4028
   97loPI   C4A 1546   3.271   7.990   8.080  0.1829  0.2630  0.2426
   97loPI   C5A 1547   3.593   8.405   8.035  0.0480  0.2328 -0.0317
   97loPI   C6A 1548   4.007   8.374   7.796  0.0698 -0.0468  0.1284
   97loPI   C1B 1549   3.262   7.486   9.183  0.4823  0.1561  0.0725
   97loPI   C2B 1550   3.233   7.456   8.832 -0.1176 -0.2616  0.0699
   97loPI   C3B 1551   3.167   7.356   8.373  0.0077 -0.2935  0.0228
   97loPI   C4B 1552   3.243   7.087   7.871 -0.1467  0.1061 -0.2051
   98loPI    C1 1553   0.479  13.966  10.365 -0.1232 -0.0335  0.2409
   98loPI    C2 1554   0.752  13.872  10.642  0.1223  0.2356  0.0952
   98loPI    C3 1555   0.867  13.951  10.267 -0.1795  0.1451 -0.0187
   98loPI   PO4 1556   0.332  13.797  10.308  0.0753 -0.0312 -0.2441
   98loPI   GL1 1557   0.380  13.381  10.036 -0.3490  0.0578 -0.0748
   98loPI   GL2 1558   0.747  13.462  10.180 -0.0658 -0.0481 -0.0017
   98loPI   C1A 1559   0.533  13.252   9.707 -0.0782 -0.1002 -0.1674
   98loPI   C2A 1560   0.406  13.332   9.319 -0.3203  0.0570  0.0921
   98loPI   C3A 1561   0.512  13.358   8.863 -0.2245  0.0065  0.1635
   98loPI   C4A 1562   0.628  13.243   8.531  0.0595  0.0361  0.1127
   98loPI   C5A 1563   0.697  13.453   8.177 -0.1009 -0.0241  0.0810
   98loPI   C6A 1564   1.037  13.675   8.109  0.0543 -0.0366 -0.1772
   98loPI   C1B 1565   0.962  13.590   9.833  0.0943  0.1285 -0.0088
   98loPI   C2B 1566   0.852  13.627   9.484 -0.0898 -0.1090  0.4071
   98loPI   C3B 1567   0.836  13.648   9.042  0.1874  0.0586 -0.0298
   98loPI   C4B 1568   0.979  13.729   8.604  0.1719  0.1180  0.1647
   99loPI    C1 1569   5.163  12.902  10.676  0.2031  0.2067  0.1115
   99loPI    C2 1570   5.272  12.544  10.818 -0.0608  0.0174 -0.1517
   99loPI    C3 1571   5.023  12.776  11.029 -0.1132 -0.0766 -0.1092
   99loPI   PO4 1572   5.152  12.843  10.354 -0.0055  0.0447  0.1229
   99loPI   GL1 1573   4.934  12.939   9.971  0.2562 -0.0093  0.3836
   99loPI   GL2 1574   5.208  12.618   9.918  0.3096  0.1361 -0.0831
   99loPI   C1A 1575   4.985  12.744   9.545  0.1057  0.4767  0.2042
   99loPI   C2A 1576   5.015  12.762   9.072  0.2459  0.1447  0.0503
   99loPI   C3A 1577   5.014  12.733   8.595  0.1073  0.0277 -0.1752
   99loPI   C4A 1578   4.995  12.885   8.191  0.2210  0.0989  0.1507
   99loPI   C5A 1579   4.844  13.089   7.919 -0.0603  0.1535  0.1538
   99loPI   C6A 1580   5.084  13.427   7.784 -0.0599 -0.2842 -0.0494
   99loPI   C1B 1581   5.450  12.683   9.593 -0.1639  0.1816  0.1330
   99loPI   C2B 1582   5.510  12.585   9.207  0.1785 -0.2162 -0.0965
   99loPI   C3B 1583   5.543  12.659   8.739 -0.2446  0.1219 -0.2196
   99loPI   C4B 1584   5.573  12.702   8.265  0.2360 -0.1175  0.0927
  100loPI    C1 1585   1.171   8.279  10.534  0.0786 -0.0127  0.0008
  100loPI    C2 1586   1.014   8.385  10.886 -0.0810  0.3339 -0.1694
  100loPI    C3 1587   0.905   8.040  10.714 -0.0855  0.2157  0.0660
  100loPI   PO4 1588   1.281   8.466  10.390  0.1955 -0.1248  0.1830
  100loPI   GL1 1589   1.248   8.817  10.259 -0.3421  0.1194 -0.0043
  100loPI   GL2 1590   1.498   8.796  10.065  0.1227  0.0019  0.2179
  100loPI   C1A 1591   1.237   9.206  10.033 -0.2547 -0.1404 -0.1184
  100loPI   C2A 1592   1.157   9.396   9.557  0.0490  0.0615 -0.1032
  100loPI   C3A 1593   1.212   9.361   9.106  0.0970  0.1668  0.1395
  100loPI   C4A 1594   1.216   9.457   8.636 -0.2066 -0.0816  0.1340
  100loPI   C5A 1595   1.052   9.408   8.231  0.1754  0.2715 -0.1998
  100loPI   C6A 1596   0.822   9.226   7.936  0.1768 -0.2699  0.0713
  100loPI   C1B 1597   1.383   8.912   9.524 -0.1359 -0.2882  0.2162
  100loPI   C2B 1598   1.340   8.885   9.080 -0.1712 -0.1172 -0.1745
  100loPI   C3B 1599   1.367   8.938   8.606 -0.0069 -0.2661  0.0904
  100loPI   C4B 1600   1.231   8.853   8.164 -0.0935  0.0241 -0.1427
  101loPI    C1 1601   4.110  15.800  10.536  0.2097 -0.1953  0.0514
  101loPI    C2 1602   4.498  15.882  10.583  0.0988  0.2992  0.1572
  101loPI    C3 1603   4.233  16.006  10.856 -0.1322 -0.0750  0.1096
  101loPI   PO4 1604   4.133  15.633  10.255  0.1864  0.1531  0.0378
  101loPI   GL1 1605   4.472  15.752  10.101  0.0934  0.1008  0.0783
  101loPI   GL2 1606   4.530  16.064   9.882  0.1107  0.1928  0.1996
  101loPI   C1A 1607   4.486  15.625   9.650 -0.0139 -0.1510 -0.0950
  101loPI   C2A 1608   4.525  15.634   9.185  0.3542 -0.0267 -0.1138
  101loPI   C3A 1609   4.706  15.676   8.845  0.1709 -0.1722  0.0449
  101loPI   C4A 1610   4.668  15.673   8.347  0.2886 -0.0245 -0.1299
  101loPI   C5A 1611   4.643  15.511   7.932  0.1429  0.2033 -0.0944
  101loPI   C6A 1612   4.612  15.244   7.639  0.0284 -0.2744 -0.0436
  101loPI   C1B 1613   4.520  16.138   9.521 -0.0157  0.0269 -0.1393
  101loPI   C2B 1614   4.485  16.149   9.088  0.0330  0.4412  0.1032
  101loPI   C3B 1615   4.542  16.267   8.717  0.1776 -0.2619  0.2353
  101loPI   C4B 1616   4.502  16.363   8.301  0.1473  0.1730 -0.0273
  102loPI    C1 1617   7.220   3.067  10.477 -0.1499  0.1392  0.2244
  102loPI    C2 1618   7.128   3.324  10.184  0.0137  0.0125  0.0592
  102loPI    C3 1619   7.015   3.400  10.560 -0.0697  0.2502 -0.0121
  102loPI   PO4 1620   7.499   3.048  10.410  0.0699  0.2126 -0.2096
  102loPI   GL1 1621   7.845   3.328  10.112  0.0961 -0.0807 -0.2062
  102loPI   GL2 1622   7.671   3.151   9.953  0.2285 -0.1865  0.3295
  102loPI   C1A 1623   8.008   3.484   9.681  0.0147 -0.1589  0.0655
  102loPI   C2A 1624   8.153   3.465   9.273 -0.1712 -0.2616 -0.3513
  102loPI   C3A 1625   8.138   3.492   8.838  0.1121  0.0385 -0.2899
  102loPI   C4A 1626   8.165   3.479   8.387 -0.0515 -0.0031 -0.0268
  102loPI   C5A 1627   7.809   3.534   7.964 -0.0135 -0.2166  0.3303
  102loPI   C6A 1628   7.373   3.790   7.874 -0.1029 -0.4536  0.1852
  102loPI   C1B 1629   7.740   3.121   9.427 -0.2498 -0.0915 -0.1542
  102loPI   C2B 1630   7.763   3.155   9.041  0.1409  0.0458 -0.2770
  102loPI   C3B 1631   7.724   3.024   8.685 -0.2425  0.0470  0.0134
  102loPI   C4B 1632   7.740   3.061   8.228 -0.1547 -0.0275 -0.2342
  103loPI    C1 1633   4.214  11.186  10.609  0.2210 -0.3017  0.3340
  103loPI    C2 1634   4.286  10.953  10.292 -0.0353  0.1917 -0.1019
  103loPI    C3 1635   3.928  10.943  10.470  0.0030  0.1460 -0.0270
  103loPI   PO4 1636   4.408  11.368  10.559  0.0456  0.0034 -0.0852
  103loPI   GL1 1637   4.444  11.537  10.206 -0.2302 -0.1843  0.4419
  103loPI   GL2 1638   4.703  11.834  10.090  0.2283 -0.1086  0.0216
  103loPI   C1A 1639   4.407  11.580   9.763 -0.1303  0.3730  0.2469
  103loPI   C2A 1640   4.530  11.430   9.453 -0.0085 -0.0218  0.1342
  103loPI   C3A 1641   4.473  11.451   9.069 -0.0213  0.0982  0.0709
  103loPI   C4A 1642   4.344  11.394   8.619 -0.1951  0.1324 -0.1088
  103loPI   C5A 1643   4.327  11.602   8.213 -0.4011  0.0173 -0.0209
  103loPI   C6A 1644   4.367  11.339   7.801  0.0207  0.1389  0.1183
  103loPI   C1B 1645   4.853  11.797   9.649  0.5073  0.2011 -0.0465
  103loPI   C2B 1646   4.834  11.824   9.148 -0.3553 -0.0337  0.0574
  103loPI   C3B 1647   4.846  11.882   8.669  0.2306 -0.0980 -0.0842
  103loPI   C4B 1648   4.714  11.889   8.290  0.2632 -0.1592 -0.2688
  104loPI    C1 1649   0.549  10.082  10.965 -0.0927  0.1388  0.2904
  104loPI    C2 1650   0.915  10.239  11.008  0.0265 -0.0502  0.0007
  104loPI    C3 1651   0.681  10.184  11.328  0.2025  0.1857  0.1729
  104loPI   PO4 1652   0.628   9.891  10.797  0.2130  0.0486  0.0423
  104loPI   GL1 1653   0.746   9.730  10.334 -0.0905 -0.0727 -0.0197
  104loPI   GL2 1654   0.600   9.945  10.264  0.2322  0.0475  0.1425
  104loPI   C1A 1655   0.717   9.497   9.973 -0.0320  0.2337 -0.1486
  104loPI   C2A 1656   0.692   9.464   9.529  0.0338 -0.0363  0.1262
  104loPI   C3A 1657   0.701   9.494   9.082 -0.1442 -0.1312  0.1310
  104loPI   C4A 1658   0.649   9.473   8.629  0.5066 -0.0263 -0.0372
  104loPI   C5A 1659   0.482   9.528   8.185 -0.0030  0.0674  0.1141
  104loPI   C6A 1660   0.165   9.406   7.743  0.0404  0.1318 -0.1617
  104loPI   C1B 1661   0.616   9.969   9.785 -0.0313 -0.1708  0.3580
  104loPI   C2B 1662   0.550   9.879   9.351 -0.1244  0.2595 -0.4409
  104loPI   C3B 1663   0.407  10.021   8.935 -0.0502  0.1787 -0.0040
  104loPI   C4B 1664   0.507   9.925   8.458 -0.2843  0.0452  0.1175
  105loPI    C1 1665   6.542   1.487  10.432  0.0841 -0.0094  0.1333
  105loPI    C2 1666   6.864   1.516  10.667  0.0962 -0.0307  0.1194
  105loPI    C3 1667   6.578   1.795  10.685  0.1963  0.0803  0.0095
  105loPI   PO4 1668   6.574   1.325  10.207  0.0132 -0.1687  0.1170
  105loPI   GL1 1669   6.921   1.181   9.930  0.0624 -0.1058  0.3099
  105loPI   GL2 1670   6.647   1.317   9.694 -0.2628  0.0137  0.1591
  105loPI   C1A 1671   7.098   1.416   9.531  0.4739 -0.1232 -0.2540
  105loPI   C2A 1672   7.197   1.348   9.201 -0.0457  0.2390  0.5022
  105loPI   C3A 1673   7.354   1.292   8.749 -0.0131  0.1582 -0.0811
  105loPI   C4A 1674   7.404   1.204   8.303 -0.0801 -0.1697  0.1158
  105loPI   C5A 1675   7.236   1.305   7.871  0.1382  0.1567  0.0875
  105loPI   C6A 1676   7.304   1.155   7.550 -0.2643  0.2467 -0.0847
  105loPI   C1B 1677   6.662   1.398   9.214 -0.1260 -0.0625 -0.2712
  105loPI   C2B 1678   6.819   1.440   8.711 -0.2416  0.1227 -0.0871
  105loPI   C3B 1679   6.948   1.300   8.304  0.0394  0.0094  0.0939
  105loPI   C4B 1680   6.693   1.328   7.882 -0.5591  0.0957 -0.2387
  106loPI    C1 1681  12.044   5.821  10.906  0.0065  0.1501  0.0158
  106loPI    C2 1682  12.296   5.514  10.866 -0.1714 -0.0280  0.2327
  106loPI    C3 1683  11.919   5.449  10.983 -0.2949  0.2445 -0.0017
  106loPI   PO4 1684  12.131   5.998  10.745 -0.3482 -0.3351 -0.2448
  106loPI   GL1 1685  12.171   6.125  10.289 -0.2963  0.1822 -0.0287
  106loPI   GL2 1686  12.424   6.439  10.292  0.2407 -0.1086  0.2503
  106loPI   C1A 1687  12.203   6.212   9.828  0.1170  0.4095  0.2050
  106loPI   C2A 1688  12.071   6.262   9.385  0.2272  0.0821  0.0135
  106loPI   C3A 1689  12.072   6.238   8.923 -0.1381  0.1707  0.0591
  106loPI   C4A 1690  12.253   6.173   8.474  0.2497 -0.2237  0.2759
  106loPI   C5A 1691  12.155   5.839   8.035 -0.3361 -0.2759  0.0391
  106loPI   C6A 1692  11.799   5.795   7.788  0.2012  0.1751  0.0124
  106loPI   C1B 1693  12.469   6.637   9.935  0.1911 -0.2269 -0.0697
  106loPI   C2B 1694  12.481   6.588   9.590  0.1739 -0.1073 -0.0290
  106loPI   C3B 1695  12.500   6.697   9.176 -0.0930  0.1522 -0.2259
  106loPI   C4B 1696  12.422   6.539   8.866  0.0455  0.1186  0.0864
  107loPI    C1 1697   6.465  11.123  10.253  0.0216  0.0871  0.1374
  107loPI    C2 1698   6.490  11.513  10.336  0.0749  0.1074  0.0288
  107loPI    C3 1699   6.171  11.303  10.456 -0.0801  0.2424 -0.1425
  107loPI   PO4 1700   6.654  11.071  10.075 -0.2827 -0.0169 -0.4355
  107loPI   GL1 1701   6.764  10.703   9.769 -0.0601 -0.1626 -0.0191
  107loPI   GL2 1702   6.743  10.370   9.800 -0.1233  0.1327 -0.0860
  107loPI   C1A 1703   6.585  10.914   9.425 -0.5187  0.2479 -0.1696
  107loPI   C2A 1704   6.462  10.890   8.970 -0.2631 -0.0106  0.3471
  107loPI   C3A 1705   6.288  10.853   8.527  0.0842  0.1833  0.1406
  107loPI   C4A 1706   6.131  10.714   8.120 -0.0112  0.1950 -0.5490
  107loPI   C5A 1707   5.898  10.522   7.723  0.0454 -0.1659  0.0169
  107loPI   C6A 1708   5.739  10.797   7.360 -0.1208  0.1799  0.2477
  107loPI   C1B 1709   6.664  10.435   9.314  0.1106 -0.0305 -0.2357
  107loPI   C2B 1710   6.510  10.362   8.842 -0.1479  0.0080  0.0561
  107loPI   C3B 1711   6.619  10.303   8.387  0.2301 -0.3017 -0.0298
  107loPI   C4B 1712   6.685  10.126   7.857  0.0289 -0.1890  0.0571
  108loPI    C1 1713  13.567   2.864  10.551  0.1295  0.3308  0.2034
  108loPI    C2 1714  13.270   2.845  10.818  0.0488 -0.1238  0.0889
  108loPI    C3 1715  13.650   2.861  10.942 -0.0009 -0.0268  0.2318
  108loPI   PO4 1716  13.491   2.724  10.271 -0.1671 -0.0035  0.1405
  108loPI   GL1 1717  13.740   2.917   9.934 -0.1278 -0.3374 -0.0889
  108loPI   GL2 1718  13.592   3.253   9.829  0.0346  0.2763  0.0809
  108loPI   C1A 1719  13.759   2.584   9.652 -0.0465  0.0003 -0.0244
  108loPI   C2A 1720  13.638   2.602   9.203 -0.1173  0.0552  0.2919
  108loPI   C3A 1721  13.754   2.618   8.746 -0.1148  0.0193  0.3120
  108loPI   C4A 1722  13.580   2.487   8.316 -0.1204  0.2172 -0.0760
  108loPI   C5A 1723  13.580   2.346   7.986 -0.0619  0.1307  0.1883
  108loPI   C6A 1724  13.384   2.253   7.663  0.3248  0.2120 -0.0212
  108loPI   C1B 1725  13.603   3.005   9.426 -0.0367  0.0205  0.1893
  108loPI   C2B 1726  13.513   3.021   8.966  0.1334 -0.1343  0.0578
  108loPI   C3B 1727  13.503   2.997   8.482 -0.0228 -0.0464 -0.0836
  108loPI   C4B 1728  13.487   2.876   8.070 -0.1433  0.0968  0.4990
  109loPI    C1 1729  13.094   4.134  10.784  0.0288 -0.1596  0.3598
  109loPI    C2 1730  13.222   4.027  11.148  0.2865 -0.0166  0.3125
  109loPI    C3 1731  13.392   4.336  10.958  0.1957 -0.1287  0.0445
  109loPI   PO4 1732  13.105   3.920  10.573 -0.0900 -0.2249 -0.2449
  109loPI   GL1 1733  13.068   3.713  10.193  0.2566 -0.2328  0.0786
  109loPI   GL2 1734  13.402   3.872  10.209 -0.0805  0.0506 -0.2082
  109loPI   C1A 1735  12.920   3.681   9.708 -0.0838  0.0047  0.1341
  109loPI   C2A 1736  12.975   3.670   9.262 -0.1201 -0.0206 -0.1815
  109loPI   C3A 1737  12.837   3.632   8.826 -0.1211 -0.3355  0.2737
  109loPI   C4A 1738  12.836   3.602   8.395 -0.0557  0.0435  0.0219
  109loPI   C5A 1739  12.596   3.670   8.039 -0.1334 -0.1220 -0.1068
  109loPI   C6A 1740  12.691   3.422   7.742 -0.0176  0.1270  0.3440
  109loPI   C1B 1741  13.408   3.662   9.824 -0.2520 -0.1521 -0.1319
  109loPI   C2B 1742  13.434   3.470   9.388 -0.1997  0.1058 -0.0444
  109loPI   C3B 1743  13.342   3.529   8.877  0.0400  0.1661  0.2046
  109loPI   C4B 1744  13.319   3.513   8.428 -0.1189  0.0151  0.3231
  110loPI    C1 1745  18.055   8.098  10.762  0.0358  0.1452  0.0874
  110loPI    C2 1746  17.863   8.208  11.095 -0.0968 -0.2512  0.1477
  110loPI    C3 1747  18.207   8.007  11.121 -0.1524 -0.3609  0.0482
  110loPI   PO4 1748  18.091   8.325  10.564 -0.0958 -0.2622  0.1001
  110loPI   GL1 1749  18.218   8.403  10.227  0.3446  0.2092  0.1674
  110loPI   GL2 1750  18.427   8.709  10.000  0.1396 -0.0301 -0.0889
  110loPI   C1A 1751  18.108   8.272   9.787 -0.3871 -0.1173 -0.0493
  110loPI   C2A 1752  18.104   8.358   9.481  0.1051 -0.0854  0.2870
  110loPI   C3A 1753  18.107   8.406   9.068 -0.2859  0.1619  0.2289
  110loPI   C4A 1754  18.038   8.325   8.571  0.1423 -0.0132  0.2033
  110loPI   C5A 1755  18.103   8.242   8.135  0.0629  0.3740  0.0097
  110loPI   C6A 1756  18.189   7.954   7.767 -0.2966  0.3215  0.1087
  110loPI   C1B 1757  18.448   8.788   9.565  0.2876  0.2427  0.1257
  110loPI   C2B 1758  18.577   8.759   9.113  0.0966 -0.1327 -0.3114
  110loPI   C3B 1759  18.446   8.748   8.715 -0.1571 -0.1544  0.0088
  110loPI   C4B 1760  18.347   8.654   8.308 -0.0319 -0.3774  0.2204
  111loPI    C1 1761   3.307  15.721  10.221  0.0747  0.2386  0.3172
  111loPI    C2 1762   3.652  15.912  10.285  0.2719  0.0234 -0.0698
  111loPI    C3 1763   3.593  15.548  10.440  0.2261  0.0508 -0.0223
  111loPI   PO4 1764   3.273  15.789   9.914 -0.3266  0.0183  0.1680
  111loPI   GL1 1765   3.153  15.755   9.436 -0.2750  0.0357 -0.4104
  111loPI   GL2 1766   2.948  15.506   9.627  0.3641 -0.0065 -0.3705
  111loPI   C1A 1767   3.108  15.682   9.063  0.2603  0.0090 -0.3686
  111loPI   C2A 1768   3.230  15.568   8.825  0.0987  0.1033 -0.3767
  111loPI   C3A 1769   3.236  15.492   8.434  0.0846 -0.2285 -0.1960
  111loPI   C4A 1770   3.407  15.566   7.994 -0.0549 -0.3439  0.1697
  111loPI   C5A 1771   3.217  15.699   7.591  0.3429 -0.3265 -0.2735
  111loPI   C6A 1772   3.203  15.447   7.153  0.0432 -0.2212 -0.0249
  111loPI   C1B 1773   2.900  15.218   9.336  0.0008  0.0381  0.1685
  111loPI   C2B 1774   2.914  15.219   8.967 -0.2701 -0.1965  0.0206
  111loPI   C3B 1775   2.816  15.110   8.467 -0.1304 -0.0455  0.0617
  111loPI   C4B 1776   2.991  15.217   8.095 -0.0285 -0.2908  0.0788
  112loPI    C1 1777   1.191  11.918  10.851 -0.0382 -0.0575 -0.0373
  112loPI    C2 1778   0.867  12.147  10.799  0.0230  0.0111 -0.1204
  112loPI    C3 1779   0.827  11.766  10.917 -0.0785  0.0681  0.0323
  112loPI   PO4 1780   1.342  11.873  10.562 -0.3098  0.2693  0.1208
  112loPI   GL1 1781   1.195  12.047  10.258  0.0345  0.1437 -0.1458
  112loPI   GL2 1782   1.023  12.302  10.312  0.1463 -0.1486 -0.0168
  112loPI   C1A 1783   1.197  12.146   9.753 -0.0005  0.1231 -0.1102
  112loPI   C2A 1784   1.323  12.255   9.387 -0.2369  0.2993  0.0133
  112loPI   C3A 1785   1.312  12.141   9.035  0.0350  0.1873 -0.2374
  112loPI   C4A 1786   1.358  12.200   8.662 -0.0739  0.3221  0.3488
  112loPI   C5A 1787   1.432  12.284   8.227 -0.0174  0.2285  0.0555
  112loPI   C6A 1788   1.120  12.239   7.910  0.3286  0.0017 -0.4161
  112loPI   C1B 1789   0.753  12.296   9.996  0.2398  0.1505  0.5514
  112loPI   C2B 1790   0.734  12.299   9.560 -0.1177  0.1016 -0.2647
  112loPI   C3B 1791   0.865  12.363   9.255 -0.3724  0.2326  0.1032
  112loPI   C4B 1792   0.812  12.289   8.820  0.1545  0.1403  0.0748
  113loPI    C1 1793  17.123  14.166  10.349 -0.1514  0.1121 -0.0509
  113loPI    C2 1794  17.343  14.429  10.555  0.1229 -0.2375  0.1147
  113loPI    C3 1795  17.181  14.115  10.742 -0.1365 -0.2320 -0.0952
  113loPI   PO4 1796  17.298  14.060  10.145  0.4459 -0.1814 -0.1257
  113loPI   GL1 1797  17.399  13.985   9.651 -0.1254 -0.0467 -0.1091
  113loPI   GL2 1798  17.338  14.292   9.666  0.2158 -0.1043  0.2015
  113loPI   C1A 1799  17.358  13.777   9.325  0.1908  0.0490 -0.2127
  113loPI   C2A 1800  17.444  13.730   8.850  0.1525  0.2218 -0.5707
  113loPI   C3A 1801  17.669  13.627   8.611 -0.2861  0.0389 -0.0936
  113loPI   C4A 1802  17.603  13.608   8.116 -0.0042 -0.0856  0.1819
  113loPI   C5A 1803  17.645  13.917   7.805 -0.0565  0.1248  0.1617
  113loPI   C6A 1804  18.159  13.968   7.659  0.1212  0.0849 -0.1600
  113loPI   C1B 1805  17.404  14.313   9.236 -0.2524  0.1806  0.0302
  113loPI   C2B 1806  17.369  14.328   8.783 -0.2972  0.2034 -0.2999
  113loPI   C3B 1807  17.453  14.192   8.325 -0.0360 -0.0960 -0.1980
  113loPI   C4B 1808  17.775  14.379   8.090  0.1608  0.2261 -0.0928
  114loPI    C1 1809   4.497   8.330  10.550 -0.0523 -0.1173  0.0407
  114loPI    C2 1810   4.530   8.142  10.901 -0.1752 -0.0210  0.1042
  114loPI    C3 1811   4.806   8.409  10.791 -0.0905 -0.1144  0.0887
  114loPI   PO4 1812   4.500   8.159  10.368 -0.0835  0.3218  0.2156
  114loPI   GL1 1813   4.283   8.155  10.068  0.2725  0.1679 -0.0289
  114loPI   GL2 1814   4.283   8.496  10.089  0.2833  0.3577 -0.1380
  114loPI   C1A 1815   4.478   8.272   9.634  0.0511 -0.0757  0.1140
  114loPI   C2A 1816   4.481   8.187   9.150 -0.1227  0.0668 -0.2034
  114loPI   C3A 1817   4.520   8.175   8.698  0.1525 -0.1543 -0.0305
  114loPI   C4A 1818   4.598   8.087   8.254  0.0810  0.0686  0.2517
  114loPI   C5A 1819   4.808   8.310   7.936 -0.1137 -0.0951 -0.1616
  114loPI   C6A 1820   4.825   8.205   7.586  0.1341  0.0282 -0.0893
  114loPI   C1B 1821   4.233   8.739   9.731 -0.2284 -0.0728  0.2463
  114loPI   C2B 1822   4.398   8.688   9.262  0.0771 -0.0147  0.0062
  114loPI   C3B 1823   4.372   8.750   8.914 -0.2417 -0.0794 -0.0760
  114loPI   C4B 1824   4.451   8.696   8.514  0.1182  0.2561  0.2371
  115loPI    C1 1825   3.715  13.805  10.350  0.1654 -0.0405  0.1797
  115loPI    C2 1826   3.405  13.635  10.536  0.1245 -0.1394  0.0229
  115loPI    C3 1827   3.626  13.908  10.726 -0.3031  0.2337  0.0016
  115loPI   PO4 1828   3.657  13.825  10.127  0.0690 -0.4153 -0.3420
  115loPI   GL1 1829   3.549  14.075   9.818 -0.2754 -0.0659 -0.2391
  115loPI   GL2 1830   3.337  13.756   9.747 -0.0012  0.1849 -0.1196
  115loPI   C1A 1831   3.702  13.974   9.495 -0.0911 -0.2529  0.0581
  115loPI   C2A 1832   3.617  14.060   9.028  0.1745  0.0308  0.2066
  115loPI   C3A 1833   3.559  14.063   8.566 -0.2339  0.3158 -0.3211
  115loPI   C4A 1834   3.731  14.128   8.107  0.2452  0.2823 -0.0346
  115loPI   C5A 1835   3.815  14.321   7.687  0.0989  0.0350 -0.1733
  115loPI   C6A 1836   3.693  14.609   7.251  0.0098  0.1037  0.0458
  115loPI   C1B 1837   3.299  13.627   9.348  0.0116  0.1736  0.2289
  115loPI   C2B 1838   3.250  13.606   8.919  0.0266 -0.3824  0.1278
  115loPI   C3B 1839   3.295  13.613   8.528 -0.1122  0.1211  0.1382
  115loPI   C4B 1840   3.442  13.717   8.085  0.1979  0.0349 -0.1309
  116loPI    C1 1841  17.782   2.980  10.302  0.1905  0.0762 -0.0265
  116loPI    C2 1842  17.483   2.927  10.562  0.0781  0.0781 -0.1540
  116loPI    C3 1843  17.836   3.067  10.689  0.0220  0.0862 -0.0043
  116loPI   PO4 1844  17.575   3.102  10.081 -0.0177  0.1379  0.1179
  116loPI   GL1 1845  17.678   3.139   9.623 -0.0528 -0.1981  0.0419
  116loPI   GL2 1846  17.860   3.227   9.344 -0.1728 -0.0255 -0.1817
  116loPI   C1A 1847  17.456   3.031   9.089 -0.2656  0.0571 -0.0430
  116loPI   C2A 1848  17.527   2.976   8.699  0.0561 -0.0135 -0.0518
  116loPI   C3A 1849  17.789   2.971   8.378  0.1183 -0.0701 -0.0879
  116loPI   C4A 1850  17.793   3.003   8.029 -0.1326  0.1403  0.0882
  116loPI   C5A 1851  17.997   2.916   7.646  0.0504 -0.0435  0.1181
  116loPI   C6A 1852  18.146   2.988   7.177  0.1787 -0.1537  0.0175
  116loPI   C1B 1853  17.842   3.356   8.955 -0.0331 -0.3317  0.0199
  116loPI   C2B 1854  17.909   3.392   8.587  0.0460  0.0489  0.1902
  116loPI   C3B 1855  18.121   3.343   8.173 -0.0089 -0.1686  0.1184
  116loPI   C4B 1856  18.219   3.517   7.760 -0.1716 -0.0905  0.0794
  117loPI    C1 1857  16.535  18.393  10.208 -0.0035  0.1181 -0.0330
  117loPI    C2 1858  16.543  18.551  10.575 -0.0460  0.2487 -0.0877
  117loPI    C3 1859  16.737  18.209  10.500  0.0719  0.2902  0.0243
  117loPI   PO4 1860  16.460  18.533  10.027  0.3470  0.0837 -0.2616
  117loPI   GL1 1861  16.338  18.444   9.596 -0.1386  0.1827  0.2588
  117loPI   GL2 1862  16.040  18.361   9.418 -0.1264 -0.0698 -0.0457
  117loPI   C1A 1863  16.409  18.050   9.367 -0.1681 -0.1703  0.1463
  117loPI   C2A 1864  16.421  17.904   8.935  0.0644  0.0019  0.0698
  117loPI   C3A 1865  16.416  17.898   8.491 -0.1725 -0.1051 -0.1968
  117loPI   C4A 1866  16.302  18.092   8.057 -0.2762 -0.0746 -0.2392
  117loPI   C5A 1867  16.627  18.029   7.691  0.1665  0.2175  0.0206
  117loPI   C6A 1868  17.067  17.892   7.523  0.1321 -0.1501  0.0277
  117loPI   C1B 1869  15.969  18.212   9.085 -0.1021  0.2291  0.0581
  117loPI   C2B 1870  15.932  18.059   8.632 -0.1286  0.1965 -0.0353
  117loPI   C3B 1871  15.835  18.008   8.248  0.3000  0.0407  0.0147
  117loPI   C4B 1872  15.702  18.078   7.842  0.0731 -0.1142 -0.2573
  118loPI    C1 1873   8.484  17.644  10.937  0.0978 -0.0130  0.0010
  118loPI    C2 1874   8.769  17.830  10.727 -0.0305  0.2699  0.0727
  118loPI    C3 1875   8.543  18.037  10.984 -0.0272 -0.0297  0.3225
  118loPI   PO4 1876   8.374  17.557  10.693  0.2473 -0.2029  0.0406
  118loPI   GL1 1877   8.382  17.587  10.275  0.1193  0.1917 -0.0409
  118loPI   GL2 1878   8.718  17.517  10.285 -0.0858 -0.2512 -0.1775
  118loPI   C1A 1879   8.362  17.600   9.757 -0.1137  0.3279 -0.0460
  118loPI   C2A 1880   8.411  17.558   9.282 -0.0267  0.1744 -0.0997
  118loPI   C3A 1881   8.352  17.647   8.797 -0.2941  0.2459  0.0580
  118loPI   C4A 1882   8.387  17.516   8.305 -0.3798 -0.1107 -0.0333
  118loPI   C5A 1883   8.786  17.364   8.151  0.0355 -0.1692  0.1483
  118loPI   C6A 1884   9.268  17.294   8.121 -0.1729 -0.0880 -0.0260
  118loPI   C1B 1885   8.950  17.492   9.962  0.1259  0.0503 -0.4006
  118loPI   C2B 1886   8.914  17.517   9.483  0.1137 -0.3150 -0.2225
  118loPI   C3B 1887   8.872  17.435   9.103 -0.1683  0.2931  0.0824
  118loPI   C4B 1888   8.843  17.427   8.630 -0.1572  0.0533 -0.1707
  119loPI    C1 1889   8.616  10.027  10.506 -0.0781  0.0189 -0.0956
  119loPI    C2 1890   8.346   9.794  10.325 -0.1042 -0.0184 -0.0092
  119loPI    C3 1891   8.716   9.656  10.393 -0.1948 -0.1297  0.2730
  119loPI   PO4 1892   8.659  10.252  10.354 -0.3911 -0.2731 -0.0515
  119loPI   GL1 1893   8.654  10.368   9.976 -0.1441  0.1882  0.2437
  119loPI   GL2 1894   8.757  10.674  10.034  0.1463  0.0484  0.2199
  119loPI   C1A 1895   8.604  10.092   9.567 -0.1919  0.3364 -0.0766
  119loPI   C2A 1896   8.800   9.997   9.079  0.3065  0.1646 -0.0721
  119loPI   C3A 1897   8.734   9.746   8.730 -0.3732 -0.1226  0.1556
  119loPI   C4A 1898   8.636   9.726   8.361  0.2889  0.1014  0.0066
  119loPI   C5A 1899   8.709   9.368   8.035  0.0821  0.0740 -0.1917
  119loPI   C6A 1900   8.901   9.061   7.701  0.0958 -0.1345 -0.1622
  119loPI   C1B 1901   8.638  10.619   9.558 -0.0116  0.1699  0.2208
  119loPI   C2B 1902   8.526  10.417   9.088 -0.0543 -0.3025 -0.3157
  119loPI   C3B 1903   8.452  10.295   8.646 -0.1715  0.1890  0.2875
  119loPI   C4B 1904   8.477  10.228   8.265  0.2061  0.5961 -0.1314
  120loPI    C1 1905  11.228   4.611  10.905  0.0231 -0.0303  0.1760
  120loPI    C2 1906  11.085   4.397  11.211 -0.1431  0.0717  0.1706
  120loPI    C3 1907  11.179   4.782  11.263  0.1108  0.0118  0.1682
  120loPI   PO4 1908  11.097   4.596  10.655 -0.2662  0.0579 -0.0003
  120loPI   GL1 1909  10.989   4.661  10.198 -0.2192  0.1817  0.1145
  120loPI   GL2 1910  10.745   4.624  10.107  0.1015  0.0858 -0.0677
  120loPI   C1A 1911  11.188   4.525   9.780  0.0908  0.0461  0.1837
  120loPI   C2A 1912  11.098   4.482   9.303 -0.2520  0.0131 -0.4343
  120loPI   C3A 1913  11.191   4.568   8.872  0.0842 -0.0669 -0.1034
  120loPI   C4A 1914  11.279   4.587   8.430  0.2369  0.2525  0.0666
  120loPI   C5A 1915  11.260   4.601   7.971 -0.2897  0.3480  0.1955
  120loPI   C6A 1916  11.358   4.884   7.686 -0.2759 -0.1883 -0.0729
  120loPI   C1B 1917  10.494   4.733   9.765 -0.0211 -0.0931 -0.2233
  120loPI   C2B 1918  10.600   4.677   9.291  0.1301  0.1140 -0.0212
  120loPI   C3B 1919  10.656   4.678   8.943 -0.2213  0.3048 -0.4323
  120loPI   C4B 1920  10.762   4.683   8.513 -0.0182  0.2109 -0.2495
  121loPI    C1 1921  10.550  13.535  10.709  0.1228 -0.1090  0.1116
  121loPI    C2 1922  10.660  13.872  10.524 -0.1036 -0.0278  0.1217
  121loPI    C3 1923  10.651  13.857  10.924 -0.0588 -0.0579  0.1217
  121loPI   PO4 1924  10.674  13.267  10.672 -0.1759 -0.0385  0.2011
  121loPI   GL1 1925  10.627  13.008  10.220 -0.0183 -0.3085  0.4495
  121loPI   GL2 1926  10.610  12.721  10.159 -0.0818  0.0220 -0.1068
  121loPI   C1A 1927  10.532  13.278   9.939  0.2824  0.0155  0.0958
  121loPI   C2A 1928  10.519  13.453   9.611  0.0486  0.0377 -0.2544
  121loPI   C3A 1929  10.607  13.400   9.139  0.3047 -0.3704  0.0917
  121loPI   C4A 1930  10.588  13.327   8.670  0.0199  0.1179 -0.2318
  121loPI   C5A 1931  10.657  13.543   8.310  0.0639 -0.1103 -0.2820
  121loPI   C6A 1932  10.793  13.790   8.073  0.1535  0.0796 -0.3130
  121loPI   C1B 1933  10.719  12.828   9.725  0.0462 -0.0307 -0.2770
  121loPI   C2B 1934  10.698  12.971   9.367  0.0238 -0.2682 -0.0520
  121loPI   C3B 1935  10.616  12.918   8.988 -0.1858  0.2879 -0.0165
  121loPI   C4B 1936  10.619  12.745   8.616 -0.0575  0.2571 -0.1512
  122loPI    C1 1937   7.648   6.032  10.961  0.0236 -0.1644  0.1676
  122loPI    C2 1938   7.442   6.261  11.217  0.0524  0.1060 -0.0475
  122loPI    C3 1939   7.554   5.893  11.324 -0.0662  0.1603  0.2724
  122loPI   PO4 1940   7.576   6.014  10.742 -0.0102  0.1558 -0.0720
  122loPI   GL1 1941   7.707   5.856  10.332  0.1671 -0.0098 -0.2140
  122loPI   GL2 1942   7.662   6.188  10.261  0.0157  0.0081 -0.0511
  122loPI   C1A 1943   7.900   5.737   9.955 -0.0229  0.1025  0.0439
  122loPI   C2A 1944   7.979   5.846   9.604 -0.2265 -0.1328 -0.1700
  122loPI   C3A 1945   7.976   5.808   9.148 -0.1013  0.1422 -0.3918
  122loPI   C4A 1946   8.006   5.854   8.704  0.2021 -0.0066 -0.0668
  122loPI   C5A 1947   7.823   6.061   8.301 -0.2986  0.0194 -0.0180
  122loPI   C6A 1948   7.403   6.332   8.280 -0.0326  0.0563  0.3052
  122loPI   C1B 1949   7.727   6.412   9.907 -0.0069  0.0457  0.0830
  122loPI   C2B 1950   7.799   6.523   9.463  0.0168 -0.3972 -0.3272
  122loPI   C3B 1951   7.907   6.373   9.044  0.0198  0.1808 -0.4094
  122loPI   C4B 1952   7.969   6.402   8.713  0.2006  0.2175  0.2247
  123loPI    C1 1953   1.703  10.860  10.462 -0.0779  0.0070  0.1023
  123loPI    C2 1954   1.717  11.135  10.751  0.1892  0.0891  0.0145
  123loPI    C3 1955   1.394  10.902  10.713 -0.0105  0.3400  0.1341
  123loPI   PO4 1956   1.812  10.918  10.325  0.2413 -0.2134 -0.2848
  123loPI   GL1 1957   1.730  10.909   9.911 -0.0882  0.3104 -0.0493
  123loPI   GL2 1958   1.639  11.206   9.901 -0.0049  0.4359 -0.0683
  123loPI   C1A 1959   1.863  10.614   9.581 -0.2957  0.0718 -0.2895
  123loPI   C2A 1960   1.685  10.538   9.056 -0.0027 -0.1167  0.1796
  123loPI   C3A 1961   1.722  10.570   8.549 -0.3469  0.3466 -0.1263
  123loPI   C4A 1962   1.740  10.561   8.132 -0.1996  0.3139 -0.1441
  123loPI   C5A 1963   1.860  10.487   7.662 -0.1468  0.2534  0.1098
  123loPI   C6A 1964   1.944  10.390   7.196  0.0469  0.0926 -0.0601
  123loPI   C1B 1965   1.664  11.095   9.467 -0.4494  0.0763 -0.1413
  123loPI   C2B 1966   1.557  11.096   8.908  0.1047  0.0563 -0.1502
  123loPI   C3B 1967   1.567  11.228   8.468 -0.1574 -0.1772 -0.3912
  123loPI   C4B 1968   1.568  11.080   8.104  0.3643 -0.0213 -0.1439
  124loPI    C1 1969   7.106  16.322  10.374  0.0568  0.0527  0.0131
  124loPI    C2 1970   7.022  16.456  10.741  0.1781  0.1310  0.0129
  124loPI    C3 1971   6.923  16.083  10.637  0.1798  0.0950  0.1386
  124loPI   PO4 1972   6.954  16.417  10.210  0.4889 -0.0950  0.0195
  124loPI   GL1 1973   6.995  16.767   9.934 -0.1339 -0.0765 -0.0612
  124loPI   GL2 1974   6.643  16.677   9.865  0.2486 -0.0616 -0.0460
  124loPI   C1A 1975   6.923  16.795   9.421  0.2202 -0.0921 -0.6755
  124loPI   C2A 1976   6.829  16.648   9.003  0.1244  0.2107 -0.0900
  124loPI   C3A 1977   6.776  16.687   8.592 -0.1990 -0.0915  0.3015
  124loPI   C4A 1978   6.813  16.544   8.192 -0.3054  0.2956 -0.1925
  124loPI   C5A 1979   6.465  16.398   7.974 -0.2215 -0.2449 -0.1654
  124loPI   C6A 1980   6.230  16.111   7.819 -0.2174 -0.2412  0.1341
  124loPI   C1B 1981   6.467  16.629   9.454  0.0299 -0.1371 -0.1390
  124loPI   C2B 1982   6.344  16.580   9.143 -0.1337 -0.1470  0.2575
  124loPI   C3B 1983   6.345  16.594   8.769  0.2656  0.3739 -0.1006
  124loPI   C4B 1984   6.309  16.688   8.342 -0.4767  0.1656 -0.3622
  125loPI    C1 1985   1.498  16.367  10.233 -0.1266 -0.0734 -0.1119
  125loPI    C2 1986   1.868  16.251  10.329 -0.0274  0.2699 -0.0675
  125loPI    C3 1987   1.560  16.148  10.562  0.0391 -0.0091 -0.0995
  125loPI   PO4 1988   1.582  16.281   9.912 -0.1418  0.0744 -0.1813
  125loPI   GL1 1989   1.706  16.327   9.548 -0.3118  0.2693  0.1970
  125loPI   GL2 1990   1.697  16.575   9.340  0.0048 -0.0573 -0.1239
  125loPI   C1A 1991   1.641  15.968   9.242  0.0744  0.3006 -0.0168
  125loPI   C2A 1992   1.644  15.849   8.787  0.1098  0.2245 -0.2980
  125loPI   C3A 1993   1.689  15.559   8.517  0.2546 -0.0097  0.2247
  125loPI   C4A 1994   1.846  15.274   8.204 -0.1337 -0.0592  0.0945
  125loPI   C5A 1995   2.154  15.226   7.937 -0.1555  0.0507 -0.0984
  125loPI   C6A 1996   2.570  15.118   7.744  0.0103 -0.0694 -0.2177
  125loPI   C1B 1997   1.494  16.363   8.994 -0.3541 -0.2286 -0.0158
  125loPI   C2B 1998   1.410  16.410   8.581  0.1292 -0.0291  0.1451
  125loPI   C3B 1999   1.560  16.460   8.154  0.0680 -0.1018 -0.0871
  125loPI   C4B 2000   1.241  16.547   7.928 -0.1864  0.0577  0.1105
  126loPI    C1 2001  16.338  17.302  10.194 -0.0756 -0.2293  0.1567
  126loPI    C2 2002  16.063  17.375  10.475 -0.0746 -0.2231  0.1560
  126loPI    C3 2003  16.425  17.240  10.579 -0.0334 -0.1042  0.1675
  126loPI   PO4 2004  16.263  17.233   9.955 -0.1653 -0.2892 -0.3682
  126loPI   GL1 2005  16.116  17.340   9.535  0.2278 -0.2178 -0.0866
  126loPI   GL2 2006  15.818  17.224   9.462  0.0678 -0.1956  0.0570
  126loPI   C1A 2007  16.163  16.962   9.224  0.0044  0.1827  0.0662
  126loPI   C2A 2008  16.214  17.043   8.773 -0.1399  0.0281 -0.2069
  126loPI   C3A 2009  16.153  16.902   8.350  0.2738 -0.3811 -0.3972
  126loPI   C4A 2010  16.074  17.003   7.937 -0.1335 -0.0462 -0.4027
  126loPI   C5A 2011  16.139  17.208   7.572 -0.0058 -0.0331  0.0569
  126loPI   C6A 2012  16.092  17.661   7.503  0.3046 -0.0501 -0.2643
  126loPI   C1B 2013  15.732  17.133   9.005 -0.2360 -0.0031 -0.1028
  126loPI   C2B 2014  15.740  17.115   8.546  0.0356 -0.0475 -0.1666
  126loPI   C3B 2015  15.705  17.285   8.202 -0.1610  0.0705  0.1140
  126loPI   C4B 2016  15.681  17.465   7.849  0.3107  0.0575  0.0780
  127loPI    C1 2017   2.971  13.442  10.372 -0.2631 -0.1509  0.1085
  127loPI    C2 2018   2.800  13.090  10.454 -0.1857 -0.1295  0.3688
  127loPI    C3 2019   2.594  13.430  10.505 -0.2291 -0.1310  0.2076
  127loPI   PO4 2020   3.165  13.365  10.150  0.2768 -0.0861  0.0743
  127loPI   GL1 2021   3.146  13.291   9.805  0.1045 -0.1262 -0.0387
  127loPI   GL2 2022   3.423  13.263   9.678  0.0498 -0.0612  0.2696
  127loPI   C1A 2023   2.957  13.292   9.429  0.2396 -0.0245 -0.0512
  127loPI   C2A 2024   2.859  13.220   8.966  0.1704  0.0540  0.0475
  127loPI   C3A 2025   2.920  13.220   8.546  0.0252 -0.0827  0.1520
  127loPI   C4A 2026   3.007  13.430   8.105  0.1358 -0.2756  0.0354
  127loPI   C5A 2027   3.070  13.412   7.741  0.0369 -0.0500 -0.0625
  127loPI   C6A 2028   3.339  13.688   7.549 -0.0502  0.2015  0.1755
  127loPI   C1B 2029   3.374  13.076   9.239 -0.0583 -0.0589 -0.0529
  127loPI   C2B 2030   3.381  13.103   8.776 -0.0297  0.0877  0.1316
  127loPI   C3B 2031   3.373  13.068   8.340  0.1479  0.0737 -0.1640
  127loPI   C4B 2032   3.121  12.997   8.008  0.2982 -0.1631  0.4217
  128loPI    C1 2033  10.332   1.027  10.733 -0.0208  0.0814 -0.1456
  128loPI    C2 2034   9.992   1.203  10.849 -0.1084 -0.2082  0.0483
  128loPI    C3 2035  10.138   0.893  11.056  0.1042 -0.2911 -0.2196
  128loPI   PO4 2036  10.256   0.989  10.451  0.0509 -0.3638 -0.1806
  128loPI   GL1 2037  10.432   0.916  10.062 -0.0810 -0.0618 -0.1472
  128loPI   GL2 2038  10.440   0.621  10.025  0.0114  0.1059  0.3026
  128loPI   C1A 2039  10.278   1.137   9.677 -0.0644 -0.1667  0.0335
  128loPI   C2A 2040  10.270   1.025   9.225  0.1573 -0.2368 -0.1678
  128loPI   C3A 2041  10.129   1.069   8.876  0.0412 -0.5331 -0.0559
  128loPI   C4A 2042  10.127   0.908   8.581  0.1675 -0.1210  0.0448
  128loPI   C5A 2043  10.061   0.580   8.264 -0.0313  0.0597  0.2357
  128loPI   C6A 2044   9.797   0.457   7.895  0.0685  0.0493 -0.2307
  128loPI   C1B 2045  10.470   0.662   9.510 -0.2078 -0.1720  0.3290
  128loPI   C2B 2046  10.335   0.565   9.058 -0.2370 -0.1179 -0.0136
  128loPI   C3B 2047  10.379   0.483   8.685  0.1069  0.3949 -0.2606
  128loPI   C4B 2048  10.335   0.126   8.273  0.1708 -0.4908 -0.2733
  129loPI    C1 2049   3.907   2.398  10.435 -0.2750  0.2651 -0.0473
  129loPI    C2 2050   4.116   2.718  10.552  0.0106 -0.0045  0.2017
  129loPI    C3 2051   3.874   2.531  10.810 -0.1740  0.0220  0.0505
  129loPI   PO4 2052   3.699   2.387  10.163  0.2002 -0.0377 -0.1494
  129loPI   GL1 2053   3.562   2.548   9.776  0.1727 -0.0250 -0.3473
  129loPI   GL2 2054   3.799   2.291   9.667  0.1811 -0.0170  0.0966
  129loPI   C1A 2055   3.319   2.648   9.418  0.0471 -0.2484 -0.2525
  129loPI   C2A 2056   3.203   2.872   9.063  0.0162 -0.0170 -0.2104
  129loPI   C3A 2057   3.322   2.861   8.658 -0.0993 -0.2170  0.0307
  129loPI   C4A 2058   3.406   3.014   8.274  0.1058 -0.1860  0.2720
  129loPI   C5A 2059   3.203   3.087   7.945  0.0956 -0.0924  0.0359
  129loPI   C6A 2060   3.140   3.238   7.461 -0.0980 -0.1441  0.0401
  129loPI   C1B 2061   3.901   2.463   9.338  0.1077  0.2661  0.2803
  129loPI   C2B 2062   3.935   2.331   8.874 -0.2206  0.0352  0.4501
  129loPI   C3B 2063   3.841   2.102   8.406 -0.2540 -0.0046 -0.1034
  129loPI   C4B 2064   3.996   2.050   8.029  0.1456  0.0026 -0.4600
  130loPI    C1 2065   0.753  15.017  10.615  0.3393  0.2477  0.0588
  130loPI    C2 2066   1.058  14.860  10.820  0.2377  0.2305  0.1983
  130loPI    C3 2067   0.707  14.923  11.001  0.0779  0.0067 -0.0279
  130loPI   PO4 2068   0.770  14.855  10.403  0.0668  0.1244 -0.0851
  130loPI   GL1 2069   0.827  14.847   9.996  0.1060  0.1834 -0.2413
  130loPI   GL2 2070   0.546  14.759   9.775  0.1467 -0.2566 -0.0798
  130loPI   C1A 2071   0.980  15.071   9.561  0.0295  0.2228  0.1728
  130loPI   C2A 2072   0.968  14.988   9.093  0.2869 -0.0040  0.1463
  130loPI   C3A 2073   0.871  15.084   8.653 -0.0304  0.0104  0.2426
  130loPI   C4A 2074   0.900  15.130   8.155  0.1589  0.0549 -0.5025
  130loPI   C5A 2075   0.872  14.857   7.791  0.2256 -0.1041 -0.1547
  130loPI   C6A 2076   1.087  14.515   7.535  0.3224 -0.0543  0.0127
  130loPI   C1B 2077   0.599  14.776   9.336  0.0623  0.0863 -0.0677
  130loPI   C2B 2078   0.529  14.767   8.959  0.1336 -0.2545 -0.2725
  130loPI   C3B 2079   0.521  14.670   8.649 -0.2265 -0.1700  0.2007
  130loPI   C4B 2080   0.655  14.704   8.292  0.0150  0.1520  0.1294
  131loPI    C1 2081  16.518   3.842  10.173  0.4179  0.1213 -0.0312
  131loPI    C2 2082  16.678   4.031  10.487  0.0905  0.0372  0.1913
  131loPI    C3 2083  16.517   3.667  10.532 -0.0144  0.0501 -0.0615
  131loPI   PO4 2084  16.277   4.043  10.012 -0.0828  0.2498 -0.0634
  131loPI   GL1 2085  16.455   4.108   9.568 -0.2155  0.1869 -0.3255
  131loPI   GL2 2086  16.561   3.819   9.638  0.2935  0.1004  0.2080
  131loPI   C1A 2087  16.492   4.120   9.124 -0.1624 -0.3982  0.1373
  131loPI   C2A 2088  16.521   4.112   8.689  0.0383 -0.0839  0.3660
  131loPI   C3A 2089  16.521   3.809   8.378 -0.0203 -0.1512 -0.1496
  131loPI   C4A 2090  16.788   3.432   8.099 -0.1683  0.0198  0.2684
  131loPI   C5A 2091  16.844   3.380   7.687 -0.1985 -0.1932  0.0752
  131loPI   C6A 2092  17.153   3.492   7.410  0.1744 -0.1928 -0.2361
  131loPI   C1B 2093  16.571   3.630   9.170 -0.2322  0.0813  0.1933
  131loPI   C2B 2094  16.665   3.505   8.740 -0.0652  0.0597 -0.1036
  131loPI   C3B 2095  16.619   3.142   8.450 -0.0641  0.0695  0.2346
  131loPI   C4B 2096  16.843   2.952   8.046 -0.1793  0.3725 -0.1027
  132loPI    C1 2097   3.461   8.305  10.817 -0.0226  0.1042 -0.0703
  132loPI    C2 2098   3.601   8.212  11.180 -0.1648 -0.4394 -0.1454
  132loPI    C3 2099   3.265   8.426  11.144  0.1427  0.0934  0.0341
  132loPI   PO4 2100   3.608   8.132  10.630 -0.1624 -0.0338 -0.0227
  132loPI   GL1 2101   3.477   8.086  10.128 -0.2725 -0.0945 -0.3611
  132loPI   GL2 2102   3.386   7.932  10.010  0.0875 -0.0361 -0.2424
  132loPI   C1A 2103   3.375   8.343   9.722 -0.1357  0.2291  0.3558
  132loPI   C2A 2104   3.364   8.333   9.239  0.0718 -0.4525 -0.4507
  132loPI   C3A 2105   3.442   8.385   8.847  0.0190 -0.0218  0.1912
  132loPI   C4A 2106   3.269   8.302   8.499  0.1837  0.0593 -0.1235
  132loPI   C5A 2107   3.078   8.604   8.134  0.0296  0.0101 -0.0195
  132loPI   C6A 2108   2.806   8.773   7.795  0.1622  0.4734  0.0944
  132loPI   C1B 2109   3.511   7.906   9.543  0.3763  0.0112 -0.3140
  132loPI   C2B 2110   3.632   7.891   9.186 -0.1962 -0.1486 -0.0611
  132loPI   C3B 2111   3.550   7.916   8.740  0.0835  0.0255  0.2707
  132loPI   C4B 2112   3.647   7.993   8.411 -0.1704 -0.2078  0.2468
  133loPI    C1 2113   3.491   7.692  10.525  0.3258 -0.2354 -0.1304
  133loPI    C2 2114   3.752   7.634  10.822  0.1728 -0.1407  0.0237
  133loPI    C3 2115   3.382   7.765  10.903  0.1057 -0.1881 -0.2014
  133loPI   PO4 2116   3.540   7.595  10.359 -0.0763  0.1640 -0.2194
  133loPI   GL1 2117   3.688   7.546  10.014  0.1536  0.0827  0.1864
  133loPI   GL2 2118   3.586   7.349   9.784 -0.1664  0.3260  0.0743
  133loPI   C1A 2119   4.069   7.752   9.811 -0.3213  0.1416  0.1565
  133loPI   C2A 2120   4.117   7.792   9.385  0.1971  0.1540 -0.1659
  133loPI   C3A 2121   4.162   7.820   8.971 -0.0955  0.2165 -0.0987
  133loPI   C4A 2122   4.196   7.832   8.541  0.0967  0.5679 -0.0974
  133loPI   C5A 2123   4.070   8.194   8.237  0.2512  0.0915  0.1725
  133loPI   C6A 2124   4.102   8.639   8.164 -0.1150 -0.0206  0.1419
  133loPI   C1B 2125   3.728   7.307   9.356  0.0173 -0.2085  0.0313
  133loPI   C2B 2126   3.770   7.333   8.928 -0.0071  0.1941  0.1655
  133loPI   C3B 2127   3.664   7.463   8.514 -0.1267  0.0478 -0.1901
  133loPI   C4B 2128   4.072   7.520   8.182  0.0392  0.1521 -0.1648
  134loPI    C1 2129  18.102  15.633  10.693  0.0705 -0.0234  0.1680
  134loPI    C2 2130  18.262  15.290  10.824 -0.3244 -0.1916  0.2243
  134loPI    C3 2131  18.254  15.611  11.063  0.1722 -0.0948  0.1225
  134loPI   PO4 2132  17.845  15.681  10.638 -0.0534 -0.0173 -0.1402
  134loPI   GL1 2133  17.743  15.797  10.224 -0.0338  0.1322 -0.1890
  134loPI   GL2 2134  17.404  16.009  10.117 -0.2522 -0.0328  0.0507
  134loPI   C1A 2135  17.615  15.781   9.738 -0.2315 -0.2684 -0.0565
  134loPI   C2A 2136  17.470  15.643   9.274  0.2106 -0.1560  0.2580
  134loPI   C3A 2137  17.489  15.694   8.744 -0.2495  0.1216 -0.1245
  134loPI   C4A 2138  17.475  15.654   8.389 -0.1773 -0.2273 -0.0725
  134loPI   C5A 2139  17.467  15.584   7.908  0.1136  0.1375 -0.2752
  134loPI   C6A 2140  17.483  15.842   7.671 -0.0629 -0.0407 -0.3498
  134loPI   C1B 2141  17.003  16.017   9.814 -0.0386  0.0453 -0.0479
  134loPI   C2B 2142  17.005  15.846   9.354  0.2220  0.1052  0.0651
  134loPI   C3B 2143  17.000  15.735   8.957  0.1751  0.0108 -0.0366
  134loPI   C4B 2144  16.981  15.768   8.545  0.0611 -0.0994 -0.0407
  135loPI    C1 2145   2.149   4.330  10.444  0.1112  0.0436  0.0056
  135loPI    C2 2146   1.771   4.451  10.486  0.1090  0.0124  0.0762
  135loPI    C3 2147   2.068   4.663  10.650  0.1092 -0.0498  0.1567
  135loPI   PO4 2148   2.160   4.247  10.245 -0.0662  0.3375 -0.0691
  135loPI   GL1 2149   2.202   4.257   9.831 -0.0186  0.1024 -0.1067
  135loPI   GL2 2150   2.517   4.192   9.682 -0.0764  0.2154  0.0482
  135loPI   C1A 2151   2.115   4.173   9.372  0.0253 -0.0868  0.1015
  135loPI   C2A 2152   2.299   4.200   8.998  0.2935 -0.0437 -0.1008
  135loPI   C3A 2153   2.485   4.239   8.540 -0.0043  0.0643 -0.1576
  135loPI   C4A 2154   2.728   4.394   8.266  0.1209 -0.1096 -0.1196
  135loPI   C5A 2155   2.835   4.578   7.889  0.2980 -0.2900  0.0625
  135loPI   C6A 2156   3.138   4.604   7.638 -0.3187  0.0509 -0.2130
  135loPI   C1B 2157   2.939   4.251   9.397  0.1659  0.0033 -0.0940
  135loPI   C2B 2158   3.285   4.226   9.232 -0.0817  0.3407  0.1983
  135loPI   C3B 2159   3.644   4.143   9.012  0.1755 -0.1354  0.0756
  135loPI   C4B 2160   3.691   4.074   8.524 -0.0424 -0.1444 -0.1489
  136loPI    C1 2161  17.768  17.480   9.986  0.0299 -0.2902 -0.1905
  136loPI    C2 2162  18.019  17.370  10.277  0.0545 -0.0565 -0.1221
  136loPI    C3 2163  17.628  17.296  10.312  0.0296  0.1537  0.0665
  136loPI   PO4 2164  17.787  17.392   9.773  0.0694  0.3744 -0.2229
  136loPI   GL1 2165  17.858  17.577   9.323 -0.1627  0.2102  0.7168
  136loPI   GL2 2166  17.481  17.560   9.389  0.1208 -0.1098  0.1465
  136loPI   C1A 2167  18.002  17.493   8.884 -0.1148  0.1180  0.1446
  136loPI   C2A 2168  17.968  17.435   8.445 -0.3339  0.2647 -0.2754
  136loPI   C3A 2169  17.872  17.465   8.038 -0.2248  0.0552 -0.1040
  136loPI   C4A 2170  18.110  17.597   7.761 -0.1097 -0.0712  0.3752
  136loPI   C5A 2171  18.385  17.596   7.347 -0.2092  0.1729 -0.0517
  136loPI   C6A 2172  18.889  17.644   7.306 -0.1371 -0.0263 -0.0124
  136loPI   C1B 2173  17.521  17.615   8.965  0.2215  0.1612  0.2594
  136loPI   C2B 2174  17.397  17.540   8.498 -0.1432  0.0980 -0.1879
  136loPI   C3B 2175  17.366  17.415   8.039 -0.1771  0.0405  0.1292
  136loPI   C4B 2176  17.289  17.435   7.623  0.3520  0.0688  0.1266
  137loPI    C1 2177   9.747   1.238  10.380  0.1961 -0.1962  0.3928
  137loPI    C2 2178  10.022   1.208  10.091 -0.0228 -0.4145  0.2031
  137loPI    C3 2179  10.081   1.458  10.398  0.2306 -0.2099 -0.0076
  137loPI   PO4 2180   9.537   1.282  10.212  0.1312 -0.0908 -0.0448
  137loPI   GL1 2181   9.464   1.443   9.748 -0.2723  0.0991 -0.0799
  137loPI   GL2 2182   9.719   1.214   9.636 -0.2099 -0.2209 -0.2056
  137loPI   C1A 2183   9.584   1.594   9.353 -0.0894 -0.2755 -0.0271
  137loPI   C2A 2184   9.579   1.869   8.935  0.1132 -0.1181 -0.1226
  137loPI   C3A 2185   9.541   2.173   8.615  0.2575 -0.1594  0.3497
  137loPI   C4A 2186   9.554   2.200   8.120  0.1537 -0.2656  0.2659
  137loPI   C5A 2187   9.493   2.368   7.662 -0.1278 -0.1947  0.0174
  137loPI   C6A 2188   9.410   2.772   7.541 -0.0049 -0.0223  0.0806
  137loPI   C1B 2189   9.655   1.105   9.187 -0.0299 -0.1152 -0.1072
  137loPI   C2B 2190   9.623   1.099   8.689  0.0050 -0.5933 -0.3492
  137loPI   C3B 2191   9.804   1.240   8.319  0.1493  0.1053 -0.2000
  137loPI   C4B 2192  10.108   1.041   8.102  0.3178 -0.1456 -0.1160
  138loPI    C1 2193  18.466  15.236  10.397 -0.2002 -0.1535  0.0016
  138loPI    C2 2194  18.786  15.159  10.624 -0.0131  0.0365 -0.1925
  138loPI    C3 2195  18.480  14.902  10.617  0.1668 -0.1855 -0.0626
  138loPI   PO4 2196  18.524  15.315  10.180 -0.0943  0.0437 -0.0308
  138loPI   GL1 2197  18.273  15.228   9.718  0.3447 -0.0137  0.0377
  138loPI   GL2 2198  18.473  15.468   9.504 -0.0370 -0.0563 -0.2559
  138loPI   C1A 2199  18.073  15.022   9.334 -0.2136 -0.2433  0.2795
  138loPI   C2A 2200  18.035  15.090   8.854  0.0362  0.0977 -0.1426
  138loPI   C3A 2201  18.055  15.091   8.460 -0.1570  0.0899  0.0073
  138loPI   C4A 2202  17.924  14.880   8.127 -0.1407  0.2316  0.4222
  138loPI   C5A 2203  17.976  14.690   7.753 -0.0237 -0.0900  0.2071
  138loPI   C6A 2204  18.184  14.516   7.431 -0.2789 -0.1121  0.2940
  138loPI   C1B 2205  18.492  15.359   9.094 -0.0707 -0.1088 -0.1356
  138loPI   C2B 2206  18.481  15.413   8.589 -0.1932 -0.0754  0.3659
  138loPI   C3B 2207  18.491  15.261   8.149 -0.2597 -0.3835  0.3837
  138loPI   C4B 2208  18.470  15.025   7.786 -0.0218 -0.0199  0.1112
  139loPI    C1 2209   0.657   2.764   9.967 -0.1171  0.0429 -0.1657
  139loPI    C2 2210   0.478   2.898  10.299  0.1758  0.1042 -0.0303
  139loPI    C3 2211   0.566   2.510  10.262 -0.1216  0.0474 -0.1632
  139loPI   PO4 2212   0.546   2.879   9.701 -0.2139 -0.0298  0.0689
  139loPI   GL1 2213   0.745   3.045   9.367  0.0253 -0.0638 -0.1154
  139loPI   GL2 2214   0.970   3.323   9.310 -0.1222 -0.2250 -0.0645
  139loPI   C1A 2215   0.796   2.835   8.995 -0.0218 -0.1315  0.0001
  139loPI   C2A 2216   1.024   2.680   8.642  0.2485 -0.4025  0.1585
  139loPI   C3A 2217   0.996   2.490   8.269 -0.3289 -0.0791 -0.2368
  139loPI   C4A 2218   0.968   2.380   7.993  0.0037  0.1835  0.0895
  139loPI   C5A 2219   0.762   2.089   7.717  0.1936 -0.2533 -0.0677
  139loPI   C6A 2220   0.725   1.678   7.489 -0.4840  0.1579 -0.5215
  139loPI   C1B 2221   1.181   3.130   8.953  0.0528 -0.0643 -0.3151
  139loPI   C2B 2222   1.354   3.279   8.466 -0.1166  0.3160  0.3090
  139loPI   C3B 2223   1.256   3.544   8.205 -0.1191  0.1986  0.2658
  139loPI   C4B 2224   1.409   3.515   7.752 -0.0451  0.1931 -0.2286
  140loPI    C1 2225  12.506  15.754  10.954  0.0070 -0.1420 -0.0269
  140loPI    C2 2226  12.176  15.834  11.165  0.0809  0.2398 -0.0495
  140loPI    C3 2227  12.510  15.720  11.353 -0.0267 -0.0268 -0.0163
  140loPI   PO4 2228  12.352  15.768  10.701 -0.2531 -0.1516 -0.3058
  140loPI   GL1 2229  12.279  16.006  10.287 -0.1185 -0.1377  0.1051
  140loPI   GL2 2230  12.366  16.251  10.254 -0.0825  0.1137  0.2570
  140loPI   C1A 2231  12.389  15.888   9.891  0.0778 -0.0477 -0.1012
  140loPI   C2A 2232  12.196  15.881   9.521 -0.1999 -0.1826 -0.6006
  140loPI   C3A 2233  12.144  15.678   9.088 -0.0661 -0.0644 -0.1705
  140loPI   C4A 2234  12.180  15.690   8.663  0.1894  0.0666  0.2816
  140loPI   C5A 2235  12.239  15.741   8.203 -0.0617  0.2013 -0.0277
  140loPI   C6A 2236  12.362  15.481   7.778 -0.2593 -0.0688  0.1197
  140loPI   C1B 2237  12.161  16.367   9.851 -0.1564 -0.1299  0.2710
  140loPI   C2B 2238  12.084  16.312   9.341 -0.1451  0.1036  0.1104
  140loPI   C3B 2239  12.067  16.199   8.928 -0.1892  0.0483  0.2315
  140loPI   C4B 2240  12.069  16.271   8.451  0.0305  0.3222 -0.0733
  141loPI    C1 2241   6.228   9.580  10.833  0.0779 -0.0851 -0.0743
  141loPI    C2 2242   6.323   9.289  11.091  0.1488  0.1209  0.1354
  141loPI    C3 2243   6.065   9.575  11.199  0.2543  0.2638  0.0130
  141loPI   PO4 2244   6.132   9.513  10.617 -0.2403 -0.0739 -0.0906
  141loPI   GL1 2245   5.873   9.320  10.280 -0.1946  0.0578 -0.0403
  141loPI   GL2 2246   6.218   9.349  10.161 -0.0401 -0.1421 -0.1215
  141loPI   C1A 2247   5.584   9.355   9.928 -0.1017  0.0398  0.0297
  141loPI   C2A 2248   5.663   9.313   9.462  0.1708  0.1852  0.2984
  141loPI   C3A 2249   5.497   9.341   8.988  0.4472  0.0693  0.3545
  141loPI   C4A 2250   5.435   9.350   8.554  0.1448  0.0837  0.0216
  141loPI   C5A 2251   5.335   9.310   8.142  0.1904  0.3303 -0.0339
  141loPI   C6A 2252   5.164   9.073   7.848 -0.1980 -0.2490 -0.1617
  141loPI   C1B 2253   6.036   9.278   9.741  0.1198  0.5029  0.1508
  141loPI   C2B 2254   6.031   9.143   9.200  0.1710 -0.4626 -0.1033
  141loPI   C3B 2255   5.915   9.145   8.814  0.1634 -0.2286  0.0439
  141loPI   C4B 2256   5.897   9.180   8.369  0.0240 -0.1604  0.0896
  142loPI    C1 2257  14.929  17.628  10.213 -0.3381  0.0005 -0.2043
  142loPI    C2 2258  14.722  17.300  10.312 -0.0204 -0.0870  0.1952
  142loPI    C3 2259  14.773  17.593  10.579  0.0902  0.0821 -0.0078
  142loPI   PO4 2260  14.816  17.768   9.968 -0.1020  0.0327  0.1857
  142loPI   GL1 2261  14.548  17.840   9.515  0.1154 -0.2830 -0.0764
  142loPI   GL2 2262  14.722  17.547   9.435 -0.0783 -0.2681 -0.1969
  142loPI   C1A 2263  14.538  17.926   9.118  0.1064 -0.0513 -0.0744
  142loPI   C2A 2264  14.519  17.906   8.703 -0.1132  0.1312  0.1597
  142loPI   C3A 2265  14.376  18.017   8.313  0.0712 -0.0041  0.4398
  142loPI   C4A 2266  14.410  17.964   7.902  0.4907 -0.1485  0.2660
  142loPI   C5A 2267  14.279  18.001   7.574  0.3061  0.0466 -0.0237
  142loPI   C6A 2268  13.966  17.936   7.228 -0.1700 -0.3408 -0.0288
  142loPI   C1B 2269  14.705  17.450   8.971  0.2221  0.0327 -0.1424
  142loPI   C2B 2270  14.543  17.418   8.512  0.1271 -0.0490 -0.1131
  142loPI   C3B 2271  14.414  17.438   8.134 -0.0359  0.3032  0.1705
  142loPI   C4B 2272  14.339  17.490   7.746 -0.0323  0.2084  0.0591
  143loPI    C1 2273  13.408   8.400  10.855  0.2175  0.2112 -0.0794
  143loPI    C2 2274  13.366   8.006  10.911  0.1151  0.1884 -0.3064
  143loPI    C3 2275  13.500   8.237  11.209  0.0823 -0.0032 -0.1409
  143loPI   PO4 2276  13.608   8.340  10.657 -0.0833  0.0095 -0.0137
  143loPI   GL1 2277  13.789   8.262  10.272 -0.0814  0.1101 -0.0833
  143loPI   GL2 2278  13.590   8.439  10.124  0.2585  0.2513 -0.0891
  143loPI   C1A 2279  13.980   8.052   9.850  0.1732 -0.1537 -0.1561
  143loPI   C2A 2280  13.987   8.169   9.413  0.2239  0.0325 -0.4401
  143loPI   C3A 2281  14.051   8.040   9.041  0.1544  0.1131 -0.2938
  143loPI   C4A 2282  14.074   8.091   8.585  0.1173 -0.0896 -0.2357
  143loPI   C5A 2283  13.904   7.891   8.202  0.0471 -0.3270 -0.2162
  143loPI   C6A 2284  13.669   8.003   7.787 -0.2559 -0.1762  0.2522
  143loPI   C1B 2285  13.559   8.333   9.773  0.2310  0.2566 -0.1005
  143loPI   C2B 2286  13.423   8.250   9.384  0.0425 -0.1308 -0.1027
  143loPI   C3B 2287  13.527   8.267   8.951  0.2033  0.1254 -0.1241
  143loPI   C4B 2288  13.606   8.199   8.487  0.0937  0.1254 -0.0130
  144loPI    C1 2289  18.320  16.575  10.603 -0.0754  0.0249 -0.0591
  144loPI    C2 2290  18.632  16.782  10.742 -0.0783 -0.0279  0.0271
  144loPI    C3 2291  18.339  16.970  10.546  0.0170  0.0190 -0.0715
  144loPI   PO4 2292  18.378  16.397  10.378  0.1539  0.1164 -0.0784
  144loPI   GL1 2293  18.164  16.345   9.936 -0.1515 -0.2391 -0.2148
  144loPI   GL2 2294  18.261  16.592   9.812  0.2597 -0.0235  0.1195
  144loPI   C1A 2295  17.876  16.199   9.577  0.1547 -0.4315  0.1519
  144loPI   C2A 2296  17.903  16.068   9.214  0.1815  0.0027 -0.1987
  144loPI   C3A 2297  17.898  16.042   8.814  0.2201 -0.0719 -0.1573
  144loPI   C4A 2298  17.795  16.051   8.367 -0.1476  0.0266  0.3864
  144loPI   C5A 2299  17.932  15.948   7.948  0.1244 -0.1085 -0.1593
  144loPI   C6A 2300  17.983  15.841   7.515 -0.2984  0.0757  0.2869
  144loPI   C1B 2301  18.230  16.474   9.342  0.0691 -0.1208  0.1832
  144loPI   C2B 2302  18.356  16.401   8.954 -0.1134  0.2175  0.0321
  144loPI   C3B 2303  18.094  16.498   8.550  0.0030 -0.2614  0.3135
  144loPI   C4B 2304  18.147  16.420   8.124 -0.0156  0.0504 -0.2405
  145loPI    C1 2305   7.651  15.225  11.000  0.2334  0.1923  0.2114
  145loPI    C2 2306   7.807  15.262  11.367  0.2187 -0.0697  0.2462
  145loPI    C3 2307   7.554  14.963  11.286  0.0482  0.1161  0.0803
  145loPI   PO4 2308   7.884  15.257  10.818 -0.0497 -0.0485  0.0739
  145loPI   GL1 2309   7.816  15.017  10.345 -0.1184  0.2013  0.0730
  145loPI   GL2 2310   7.544  14.935  10.142  0.2038 -0.2010  0.2462
  145loPI   C1A 2311   8.051  14.751  10.102 -0.1832 -0.2960  0.0279
  145loPI   C2A 2312   8.183  14.831   9.707  0.4671  0.1268 -0.1733
  145loPI   C3A 2313   8.222  14.830   9.291  0.1502  0.0451  0.1981
  145loPI   C4A 2314   8.175  14.861   8.861  0.1312  0.0888  0.0052
  145loPI   C5A 2315   8.187  14.756   8.404  0.0109 -0.0321  0.1603
  145loPI   C6A 2316   8.356  14.664   8.111  0.0084  0.0465 -0.0014
  145loPI   C1B 2317   7.658  14.870   9.682  0.1074 -0.0188 -0.2366
  145loPI   C2B 2318   7.647  14.871   9.180 -0.4513 -0.2554 -0.1032
  145loPI   C3B 2319   7.670  14.821   8.708 -0.0802  0.3925 -0.0973
  145loPI   C4B 2320   7.635  14.890   8.277  0.1544 -0.3753 -0.2974
  146loPI    C1 2321   5.826   2.947  10.474 -0.2010  0.2317  0.2408
  146loPI    C2 2322   5.435   3.030  10.490 -0.3240 -0.2963  0.1760
  146loPI    C3 2323   5.589   2.748  10.728  0.1084  0.2062  0.5168
  146loPI   PO4 2324   5.875   2.812  10.202  0.1975  0.0534 -0.3413
  146loPI   GL1 2325   5.931   2.531   9.896  0.4532 -0.0226 -0.0938
  146loPI   GL2 2326   6.256   2.477   9.917  0.2375 -0.2973 -0.0003
  146loPI   C1A 2327   5.909   2.595   9.301 -0.2893 -0.1645  0.4024
  146loPI   C2A 2328   5.974   2.577   8.814  0.4277 -0.3566  0.0990
  146loPI   C3A 2329   6.024   2.427   8.345 -0.1255 -0.2108 -0.1143
  146loPI   C4A 2330   5.955   2.371   8.037  0.2471  0.0392  0.1421
  146loPI   C5A 2331   5.693   2.493   7.619 -0.1328 -0.2263  0.0199
  146loPI   C6A 2332   5.792   2.731   7.278 -0.2217 -0.0628  0.1448
  146loPI   C1B 2333   6.345   2.362   9.421  0.1319  0.4578 -0.0100
  146loPI   C2B 2334   6.515   2.315   8.963  0.2542  0.1019 -0.1580
  146loPI   C3B 2335   6.562   2.379   8.493  0.1350  0.1017  0.2048
  146loPI   C4B 2336   6.552   2.425   8.154 -0.1854  0.1624 -0.0592
  147loPI    C1 2337   9.168  10.607  10.685 -0.0490 -0.1075  0.0333
  147loPI    C2 2338   8.826  10.731  10.518 -0.0387  0.1370  0.1884
  147loPI    C3 2339   8.925  10.854  10.885  0.2719  0.1606  0.0987
  147loPI   PO4 2340   9.339  10.640  10.483  0.2637 -0.0725  0.1302
  147loPI   GL1 2341   9.222  10.875  10.121  0.0463  0.3689 -0.0393
  147loPI   GL2 2342   9.569  10.907  10.175 -0.0092 -0.2199  0.1654
  147loPI   C1A 2343   9.014  10.915   9.710 -0.0815  0.1913 -0.0472
  147loPI   C2A 2344   8.972  10.882   9.346  0.1538 -0.1238  0.0068
  147loPI   C3A 2345   8.892  10.764   9.062 -0.3747  0.1980  0.2872
  147loPI   C4A 2346   8.850  10.782   8.589 -0.1962  0.0865  0.2149
  147loPI   C5A 2347   9.017  10.634   8.230 -0.0986 -0.1331  0.1749
  147loPI   C6A 2348   8.835  10.331   7.902 -0.1083 -0.0810  0.0890
  147loPI   C1B 2349   9.498  10.884   9.745 -0.1442 -0.0252 -0.3081
  147loPI   C2B 2350   9.448  10.854   9.271  0.2765 -0.2762  0.2086
  147loPI   C3B 2351   9.411  10.704   8.902 -0.0551 -0.0201 -0.0617
  147loPI   C4B 2352   9.434  10.611   8.526 -0.1110  0.3179  0.0715
  148loPI    C1 2353  16.355  15.186  10.561  0.0827 -0.0063 -0.0870
  148loPI    C2 2354  16.219  14.970  10.869  0.1712  0.1005  0.0278
  148loPI    C3 2355  16.608  14.962  10.776  0.1446  0.0686 -0.0818
  148loPI   PO4 2356  16.215  15.196  10.411  0.0164 -0.2224 -0.2626
  148loPI   GL1 2357  16.175  15.062   9.948 -0.2943 -0.1419 -0.2848
  148loPI   GL2 2358  16.521  14.886   9.881 -0.0391 -0.1892 -0.3350
  148loPI   C1A 2359  16.271  14.970   9.492 -0.2563 -0.0077 -0.1449
  148loPI   C2A 2360  16.210  15.023   9.036 -0.0078 -0.3307  0.0560
  148loPI   C3A 2361  16.234  15.059   8.523 -0.0474 -0.0731  0.0966
  148loPI   C4A 2362  16.300  14.884   8.121 -0.1830  0.1136 -0.0952
  148loPI   C5A 2363  16.109  14.659   7.856 -0.0548  0.1233  0.0274
  148loPI   C6A 2364  15.809  14.502   7.646  0.3245  0.1668 -0.1904
  148loPI   C1B 2365  16.777  15.009   9.671 -0.1540  0.2735  0.0518
  148loPI   C2B 2366  16.766  14.954   9.234  0.2926  0.1183 -0.2632
  148loPI   C3B 2367  16.659  14.958   8.843  0.0020  0.1361  0.1737
  148loPI   C4B 2368  16.757  14.877   8.419 -0.0654 -0.0298 -0.1938
  149loPI    C1 2369  15.457  13.050  10.614  0.1519  0.0412 -0.1092
  149loPI    C2 2370  15.677  13.039  10.948 -0.0478  0.0240  0.0238
  149loPI    C3 2371  15.501  12.706  10.814  0.0042  0.0381 -0.0808
  149loPI   PO4 2372  15.608  13.329  10.525 -0.1093 -0.1562 -0.1374
  149loPI   GL1 2373  15.658  13.267  10.123  0.0580 -0.0715  0.0291
  149loPI   GL2 2374  15.498  13.580  10.026 -0.2905  0.0439 -0.0861
  149loPI   C1A 2375  15.667  13.207   9.739 -0.1463 -0.0851 -0.1196
  149loPI   C2A 2376  15.742  13.212   9.309  0.1073  0.2290 -0.2462
  149loPI   C3A 2377  15.821  13.250   8.893 -0.2953 -0.1370  0.0171
  149loPI   C4A 2378  15.681  13.284   8.450  0.0312 -0.1885 -0.1206
  149loPI   C5A 2379  15.888  13.080   8.099 -0.0291 -0.1171 -0.3065
  149loPI   C6A 2380  16.301  12.962   7.805 -0.0625 -0.1628 -0.1360
  149loPI   C1B 2381  15.573  13.708   9.730 -0.1663 -0.0629 -0.0425
  149loPI   C2B 2382  15.626  13.741   9.295  0.0116  0.1600 -0.1140
  149loPI   C3B 2383  15.664  13.759   8.825 -0.3677  0.2168  0.4884
  149loPI   C4B 2384  15.498  13.900   8.405 -0.2189  0.0106 -0.2765
  150loPI    C1 2385   8.421   8.712  10.579  0.1178 -0.1398  0.1738
  150loPI    C2 2386   8.604   8.933  10.857  0.1537  0.2877 -0.1784
  150loPI    C3 2387   8.223   8.822  10.909  0.1897  0.2787  0.0827
  150loPI   PO4 2388   8.447   8.850  10.344 -0.1978  0.0751  0.0346
  150loPI   GL1 2389   8.547   8.846   9.931  0.0318 -0.1765 -0.1133
  150loPI   GL2 2390   8.721   8.502   9.817 -0.4344 -0.0653  0.2041
  150loPI   C1A 2391   8.555   9.004   9.518 -0.2414  0.3100 -0.0940
  150loPI   C2A 2392   8.464   9.037   8.983 -0.3249  0.0467  0.1282
  150loPI   C3A 2393   8.448   8.865   8.600  0.0998  0.1611 -0.1189
  150loPI   C4A 2394   8.589   8.874   8.192 -0.1221 -0.1563 -0.0817
  150loPI   C5A 2395   8.882   8.614   7.962  0.2261 -0.0509  0.3942
  150loPI   C6A 2396   8.944   8.145   7.888  0.1284 -0.1842  0.0108
  150loPI   C1B 2397   8.747   8.506   9.401  0.2192  0.1051 -0.1308
  150loPI   C2B 2398   8.663   8.501   8.930 -0.3671 -0.2547  0.0755
  150loPI   C3B 2399   8.548   8.409   8.382 -0.4310  0.1030  0.2563
  150loPI   C4B 2400   8.451   8.178   8.044  0.1682  0.0193 -0.2622
  151loPI    C1 2401  10.496   1.685  10.454 -0.2161  0.0874 -0.1564
  151loPI    C2 2402  10.502   1.468  10.790  0.1482  0.1144 -0.1406
  151loPI    C3 2403  10.242   1.770  10.750  0.1459  0.1520  0.1428
  151loPI   PO4 2404  10.779   1.726  10.293  0.0519 -0.0585  0.0285
  151loPI   GL1 2405  11.030   1.508  10.029 -0.0424  0.1726 -0.0817
  151loPI   GL2 2406  10.739   1.480   9.766 -0.3119  0.1956  0.1074
  151loPI   C1A 2407  11.268   1.261   9.762  0.0022  0.0615 -0.2038
  151loPI   C2A 2408  11.189   1.178   9.280 -0.2584 -0.1029 -0.0337
  151loPI   C3A 2409  11.138   1.199   8.793  0.1032  0.0174 -0.0140
  151loPI   C4A 2410  11.008   1.133   8.376  0.2907  0.1168  0.1682
  151loPI   C5A 2411  10.791   1.072   7.994 -0.1396 -0.3898  0.2274
  151loPI   C6A 2412  10.470   1.271   7.863 -0.0996 -0.2195 -0.2765
  151loPI   C1B 2413  10.623   1.428   9.332  0.0404  0.0079  0.0760
  151loPI   C2B 2414  10.509   1.376   8.863  0.1153 -0.1246 -0.2739
  151loPI   C3B 2415  10.367   1.358   8.514  0.3657 -0.2979  0.2156
  151loPI   C4B 2416  10.113   1.536   8.091  0.0740 -0.2403 -0.2416
  152loPI    C1 2417   8.589   4.820  10.957  0.0983  0.0110  0.0100
  152loPI    C2 2418   8.769   4.853  11.312 -0.0384  0.1455  0.0680
  152loPI    C3 2419   8.395   4.714  11.290 -0.0602  0.2161 -0.0149
  152loPI   PO4 2420   8.753   4.705  10.772 -0.1068  0.5572  0.0033
  152loPI   GL1 2421   8.944   4.872  10.343 -0.2025  0.1665 -0.1641
  152loPI   GL2 2422   9.175   4.685  10.149  0.0416  0.0946  0.0393
  152loPI   C1A 2423   8.942   5.124  10.000 -0.0587 -0.3829  0.0267
  152loPI   C2A 2424   9.135   5.075   9.571  0.2639 -0.1626  0.0690
  152loPI   C3A 2425   9.159   5.042   9.146  0.0663 -0.1469 -0.0211
  152loPI   C4A 2426   9.096   5.105   8.654  0.1663 -0.1789 -0.1711
  152loPI   C5A 2427   9.255   5.250   8.231  0.0897 -0.0108 -0.0894
  152loPI   C6A 2428   9.120   5.276   7.785 -0.1539 -0.1143  0.0212
  152loPI   C1B 2429   9.164   4.508   9.726 -0.3489 -0.0440  0.0141
  152loPI   C2B 2430   9.291   4.578   9.316  0.0396 -0.0345  0.1084
  152loPI   C3B 2431   9.247   4.664   8.862  0.0503 -0.1174 -0.2334
  152loPI   C4B 2432   9.308   4.683   8.423 -0.0082  0.2513 -0.3161
  153loPI    C1 2433   8.878   8.522  10.590 -0.0673  0.2359  0.2633
  153loPI    C2 2434   9.245   8.564  10.744  0.0510  0.1699  0.0044
  153loPI    C3 2435   8.930   8.521  10.986  0.2560 -0.1172  0.2255
  153loPI   PO4 2436   8.926   8.643  10.349  0.2878 -0.1558  0.2915
  153loPI   GL1 2437   9.190   8.693  10.043  0.1469 -0.0104  0.1629
  153loPI   GL2 2438   9.242   8.460   9.865  0.1304  0.1710  0.0380
  153loPI   C1A 2439   9.023   8.911   9.661  0.2362 -0.1865 -0.0588
  153loPI   C2A 2440   8.996   8.891   9.232  0.0852 -0.0617 -0.1352
  153loPI   C3A 2441   9.056   8.783   8.870 -0.0390  0.1822  0.0709
  153loPI   C4A 2442   9.035   8.800   8.513  0.0496 -0.0890  0.0498
  153loPI   C5A 2443   9.254   8.944   8.131 -0.0217 -0.0429  0.1743
  153loPI   C6A 2444   9.597   8.851   7.959 -0.3023  0.0728 -0.0625
  153loPI   C1B 2445   9.203   8.464   9.550 -0.0243 -0.2040  0.4549
  153loPI   C2B 2446   9.249   8.460   9.101 -0.1531 -0.1411 -0.0397
  153loPI   C3B 2447   9.123   8.279   8.782  0.0449 -0.1275 -0.0494
  153loPI   C4B 2448   9.122   8.363   8.336  0.1032  0.0020 -0.0682
  154loPI    C1 2449   4.926   4.343  10.743 -0.0055 -0.2246 -0.2632
  154loPI    C2 2450   4.740   4.632  10.947 -0.1392 -0.2628 -0.3296
  154loPI    C3 2451   4.964   4.363  11.141  0.3046  0.1117 -0.3040
  154loPI   PO4 2452   4.682   4.364  10.492  0.1511 -0.1274  0.2145
  154loPI   GL1 2453   4.729   4.505  10.064  0.2728  0.0280  0.1343
  154loPI   GL2 2454   4.732   4.834   9.996  0.0509 -0.0252  0.0128
  154loPI   C1A 2455   4.931   4.337   9.670 -0.2023  0.0896  0.1571
  154loPI   C2A 2456   5.102   4.229   9.226  0.0413 -0.1176 -0.1688
  154loPI   C3A 2457   5.191   4.246   8.764  0.2516  0.3138 -0.0648
  154loPI   C4A 2458   5.076   4.177   8.349  0.0394  0.2115 -0.3036
  154loPI   C5A 2459   5.021   4.303   7.928  0.0743 -0.0692 -0.2142
  154loPI   C6A 2460   4.619   4.491   7.879  0.2678 -0.1347 -0.0625
  154loPI   C1B 2461   4.908   4.816   9.632  0.0074  0.1212  0.1422
  154loPI   C2B 2462   5.045   4.712   9.202  0.1087 -0.2177 -0.1524
  154loPI   C3B 2463   4.989   4.723   8.816 -0.0099 -0.1072 -0.1797
  154loPI   C4B 2464   4.880   4.652   8.459  0.1081  0.5459  0.1574
  155loPI    C1 2465   6.386  10.353  10.762 -0.1514  0.0274 -0.4116
  155loPI    C2 2466   6.282  10.046  10.996  0.1834  0.2601  0.0596
  155loPI    C3 2467   6.026  10.347  10.935  0.1665  0.2972  0.3021
  155loPI   PO4 2468   6.451  10.308  10.570  0.0686 -0.2131 -0.2848
  155loPI   GL1 2469   6.411  10.360  10.203  0.2882  0.1779  0.1243
  155loPI   GL2 2470   6.321  10.672  10.102 -0.0137  0.1006  0.0483
  155loPI   C1A 2471   6.301  10.087   9.808 -0.2039 -0.1507 -0.3078
  155loPI   C2A 2472   6.288  10.042   9.289  0.1083 -0.0899  0.1111
  155loPI   C3A 2473   6.157   9.953   8.848 -0.5128  0.1856  0.1007
  155loPI   C4A 2474   6.131   9.888   8.356 -0.1397  0.1797  0.4708
  155loPI   C5A 2475   6.451   9.747   8.050 -0.1006  0.3820 -0.0750
  155loPI   C6A 2476   6.754   9.638   7.739 -0.1493  0.2332  0.0969
  155loPI   C1B 2477   6.194  10.593   9.631 -0.0949  0.2708 -0.0491
  155loPI   C2B 2478   6.158  10.607   9.241 -0.0574  0.2498  0.0737
  155loPI   C3B 2479   6.032  10.592   8.900  0.0708  0.1426 -0.0554
  155loPI   C4B 2480   6.049  10.395   8.492 -0.0619  0.0171  0.2195
  156loPI    C1 2481   8.055   2.401  10.237  0.1946 -0.1651 -0.1728
  156loPI    C2 2482   7.972   2.010  10.232  0.0198 -0.1274 -0.3065
  156loPI    C3 2483   7.964   2.211  10.578 -0.1014 -0.1979 -0.2674
  156loPI   PO4 2484   8.212   2.457  10.059 -0.1140  0.0533  0.1289
  156loPI   GL1 2485   8.253   2.345   9.647 -0.1605 -0.2333  0.0154
  156loPI   GL2 2486   8.166   2.071   9.641 -0.0997  0.1040 -0.1580
  156loPI   C1A 2487   8.297   2.446   9.226  0.2974  0.1187  0.2048
  156loPI   C2A 2488   8.360   2.391   8.760  0.1770 -0.1693 -0.0602
  156loPI   C3A 2489   8.628   2.230   8.333 -0.0429 -0.1640  0.0673
  156loPI   C4A 2490   8.605   2.411   7.943 -0.4029  0.1030  0.0563
  156loPI   C5A 2491   8.520   2.866   7.857 -0.1238  0.0212 -0.0563
  156loPI   C6A 2492   8.283   3.087   8.115 -0.0364 -0.1545  0.1928
  156loPI   C1B 2493   8.164   2.011   9.195  0.0746 -0.1852  0.4270
  156loPI   C2B 2494   8.017   1.993   8.745  0.2291 -0.0942 -0.1445
  156loPI   C3B 2495   8.160   2.055   8.337  0.0753  0.1234  0.1454
  156loPI   C4B 2496   8.081   2.134   7.912  0.1520 -0.3091  0.3238
  157loPI    C1 2497   8.362   9.434  10.854  0.0298 -0.0312 -0.0962
  157loPI    C2 2498   8.594   9.756  10.901 -0.2276  0.1127  0.2257
  157loPI    C3 2499   8.210   9.800  10.799 -0.1904 -0.1096 -0.0200
  157loPI   PO4 2500   8.380   9.309  10.587 -0.1061  0.2124 -0.0629
  157loPI   GL1 2501   8.379   9.277  10.116  0.2359  0.0139 -0.1812
  157loPI   GL2 2502   8.089   9.096  10.028 -0.0378  0.0339 -0.0483
  157loPI   C1A 2503   8.395   9.495   9.890 -0.2728  0.1080  0.2969
  157loPI   C2A 2504   8.457   9.621   9.544  0.0724 -0.0099 -0.0368
  157loPI   C3A 2505   8.284   9.426   9.138 -0.0986 -0.2690 -0.2683
  157loPI   C4A 2506   8.252   9.409   8.684 -0.3344 -0.1604  0.1598
  157loPI   C5A 2507   8.236   9.436   8.279 -0.0359 -0.0422  0.2483
  157loPI   C6A 2508   8.138   9.657   7.983 -0.0832  0.1542 -0.1839
  157loPI   C1B 2509   8.004   9.091   9.538  0.1497  0.2844 -0.1909
  157loPI   C2B 2510   7.934   9.095   9.049 -0.1262 -0.2427  0.0595
  157loPI   C3B 2511   7.954   9.041   8.685  0.2812 -0.0364  0.0009
  157loPI   C4B 2512   7.965   8.953   8.225 -0.1647 -0.0078 -0.1444
  158loPI    C1 2513  11.037  18.507  10.700  0.1954  0.0117 -0.2571
  158loPI    C2 2514  11.358  18.439  10.929  0.0318 -0.1042 -0.0585
  158loPI    C3 2515  10.992  18.432  11.091 -0.0668  0.1108 -0.2666
  158loPI   PO4 2516  11.212  18.507  10.452  0.0353 -0.0678  0.3102
  158loPI   GL1 2517  11.206  18.477   9.953  0.1169 -0.1596  0.0040
  158loPI   GL2 2518  11.325  18.795   9.997 -0.0850  0.1662 -0.0319
  158loPI   C1A 2519  11.134  18.558   9.544 -0.6671 -0.4149 -0.2759
  158loPI   C2A 2520  10.978  18.481   9.205 -0.2635  0.3591  0.1017
  158loPI   C3A 2521  10.971  18.350   8.818 -0.0980  0.1474  0.0880
  158loPI   C4A 2522  10.933  18.204   8.387 -0.0340 -0.0408 -0.0866
  158loPI   C5A 2523  10.603  18.220   8.154 -0.2045  0.0372 -0.0304
  158loPI   C6A 2524  10.458  17.787   8.109  0.0888  0.2686  0.1458
  158loPI   C1B 2525  11.522  18.789   9.634  0.2469 -0.0632  0.0540
  158loPI   C2B 2526  11.396  18.780   9.186 -0.2025 -0.0476 -0.2552
  158loPI   C3B 2527  11.358  18.746   8.805 -0.0207  0.0982 -0.0671
  158loPI   C4B 2528  11.350  18.791   8.344  0.1325  0.1345 -0.1802
  159loPI    C1 2529   1.310   4.267  10.536  0.0605  0.2117  0.0817
  159loPI    C2 2530   0.953   4.440  10.592 -0.0942 -0.0635 -0.0330
  159loPI    C3 2531   1.111   4.210  10.879 -0.0582 -0.0286 -0.0247
  159loPI   PO4 2532   1.288   4.319  10.246  0.0047 -0.1616 -0.3136
  159loPI   GL1 2533   1.297   4.408   9.869  0.0530  0.1612  0.0855
  159loPI   GL2 2534   1.054   4.235   9.766 -0.1793  0.0522  0.0887
  159loPI   C1A 2535   1.565   4.158   9.591 -0.0522  0.1417 -0.0301
  159loPI   C2A 2536   1.684   4.146   9.168 -0.1700 -0.0772 -0.0048
  159loPI   C3A 2537   1.767   4.160   8.802 -0.0675  0.1206 -0.3522
  159loPI   C4A 2538   1.933   4.389   8.482 -0.2871 -0.2396 -0.0195
  159loPI   C5A 2539   2.149   4.374   8.130 -0.0939  0.1978  0.2600
  159loPI   C6A 2540   2.333   4.594   7.799 -0.1647  0.1370 -0.4617
  159loPI   C1B 2541   1.135   4.420   9.388  0.1750  0.2321 -0.2235
  159loPI   C2B 2542   1.308   4.454   8.950  0.2356 -0.1580 -0.2520
  159loPI   C3B 2543   1.464   4.396   8.547  0.3645  0.1129 -0.0610
  159loPI   C4B 2544   1.634   4.552   8.127 -0.2358  0.2404 -0.0835
  160loPI    C1 2545   7.634   1.441  10.576  0.0690 -0.0939  0.0539
  160loPI    C2 2546   7.673   1.069  10.719  0.0167 -0.0244  0.2520
  160loPI    C3 2547   7.326   1.264  10.761 -0.0042 -0.0082  0.0146
  160loPI   PO4 2548   7.803   1.563  10.289 -0.2181  0.2946 -0.0027
  160loPI   GL1 2549   7.581   1.462   9.960 -0.1002 -0.4537  0.2936
  160loPI   GL2 2550   7.977   1.365   9.867 -0.1818 -0.0543 -0.0003
  160loPI   C1A 2551   7.530   1.654   9.461 -0.2272  0.0439  0.0359
  160loPI   C2A 2552   7.693   1.702   8.993  0.2172  0.0184  0.0270
  160loPI   C3A 2553   7.717   1.548   8.594  0.0135 -0.0872  0.1956
  160loPI   C4A 2554   7.767   1.640   8.167 -0.1695  0.3172 -0.0680
  160loPI   C5A 2555   7.636   1.815   7.846  0.1367 -0.0747  0.1233
  160loPI   C6A 2556   7.426   1.743   7.372 -0.1726  0.2090 -0.0918
  160loPI   C1B 2557   8.001   1.598   9.479 -0.1157  0.0657 -0.0089
  160loPI   C2B 2558   8.130   1.487   8.957  0.3173 -0.0543  0.2397
  160loPI   C3B 2559   8.178   1.488   8.460 -0.1675  0.0056 -0.0604
  160loPI   C4B 2560   8.110   1.322   8.002  0.1708 -0.2208 -0.0250
  161loPI    C1 2561  11.081  11.600  10.823 -0.1575  0.2513 -0.0012
  161loPI    C2 2562  11.016  11.318  11.098 -0.1836  0.0291 -0.2313
  161loPI    C3 2563  10.713  11.542  10.967 -0.1383  0.2636  0.0534
  161loPI   PO4 2564  11.168  11.533  10.540  0.2560  0.1909  0.3901
  161loPI   GL1 2565  11.480  11.419  10.178  0.1037 -0.0940 -0.2926
  161loPI   GL2 2566  11.543  11.200  10.051  0.0061 -0.0472  0.0853
  161loPI   C1A 2567  11.548  11.738   9.857 -0.0820 -0.1084  0.0487
  161loPI   C2A 2568  11.597  11.736   9.452  0.2243 -0.3718  0.1282
  161loPI   C3A 2569  11.529  11.600   9.034 -0.2168  0.0680 -0.1650
  161loPI   C4A 2570  11.466  11.524   8.585 -0.0081 -0.1125 -0.1123
  161loPI   C5A 2571  11.700  11.459   8.176  0.2086  0.1475 -0.1400
  161loPI   C6A 2572  12.059  11.202   7.994 -0.1299  0.2950  0.1731
  161loPI   C1B 2573  11.634  11.197   9.603 -0.1364 -0.1807 -0.4739
  161loPI   C2B 2574  11.670  11.203   9.221  0.0301  0.0256  0.2206
  161loPI   C3B 2575  11.729  11.154   8.844 -0.1467  0.0484 -0.1947
  161loPI   C4B 2576  11.645  11.070   8.396 -0.0356 -0.0637  0.2289
  162loPI    C1 2577   2.783   8.932  10.705  0.0456 -0.0973  0.0052
  162loPI    C2 2578   2.956   8.854  11.057 -0.0845 -0.2104  0.0452
  162loPI    C3 2579   2.558   8.852  11.026 -0.0722 -0.2732 -0.1196
  162loPI   PO4 2580   2.878   8.748  10.559  0.0280 -0.0320  0.2802
  162loPI   GL1 2581   2.806   8.437  10.143 -0.1223 -0.0039 -0.2373
  162loPI   GL2 2582   2.990   8.253   9.959 -0.0200  0.2063  0.3809
  162loPI   C1A 2583   2.558   8.553   9.768 -0.1544 -0.2599 -0.3744
  162loPI   C2A 2584   2.444   8.676   9.334 -0.2987 -0.0100  0.0370
  162loPI   C3A 2585   2.339   8.536   8.962  0.0628  0.1438 -0.1102
  162loPI   C4A 2586   2.360   8.712   8.513  0.0091  0.0223  0.1963
  162loPI   C5A 2587   2.197   8.874   8.196  0.0789 -0.0534  0.2116
  162loPI   C6A 2588   2.268   8.761   7.852  0.0218 -0.1358  0.2400
  162loPI   C1B 2589   2.947   8.468   9.486  0.1599 -0.3476 -0.3327
  162loPI   C2B 2590   2.956   8.513   9.054 -0.0486 -0.1084 -0.2489
  162loPI   C3B 2591   2.815   8.530   8.577 -0.0647 -0.1719 -0.1887
  162loPI   C4B 2592   2.600   8.468   8.136  0.0967  0.0157  0.2957
  163loPI    C1 2593  15.380  17.019   9.996  0.0957  0.0845 -0.2652
  163loPI    C2 2594  15.035  16.837  10.086  0.2977 -0.1070  0.1501
  163loPI    C3 2595  15.160  17.148  10.304  0.4432 -0.1112  0.0747
  163loPI   PO4 2596  15.344  17.106   9.690  0.0836  0.1579  0.0737
  163loPI   GL1 2597  15.331  16.829   9.355 -0.1406 -0.0362 -0.1810
  163loPI   GL2 2598  15.732  16.639   9.402 -0.2020  0.2123 -0.0514
  163loPI   C1A 2599  15.319  16.798   8.898 -0.1883  0.1333 -0.3022
  163loPI   C2A 2600  15.222  16.755   8.478  0.0072  0.3072 -0.3057
  163loPI   C3A 2601  15.126  16.815   8.034 -0.0667  0.3816  0.2212
  163loPI   C4A 2602  15.163  16.772   7.616 -0.0325  0.0207 -0.0065
  163loPI   C5A 2603  15.046  16.807   7.235  0.1248  0.1845 -0.4008
  163loPI   C6A 2604  15.233  16.709   6.896 -0.1894 -0.3258 -0.0338
  163loPI   C1B 2605  15.876  16.635   8.951 -0.0239 -0.0268  0.2280
  163loPI   C2B 2606  15.819  16.542   8.552  0.1302 -0.0005  0.0858
  163loPI   C3B 2607  15.612  16.738   8.151 -0.2380 -0.3161 -0.2606
  163loPI   C4B 2608  15.624  16.942   7.770 -0.0527  0.3594  0.2350
  164loPI    C1 2609   9.400  17.130  10.741 -0.1152 -0.2535 -0.0244
  164loPI    C2 2610   9.575  17.068  11.095  0.1747  0.1497 -0.0895
  164loPI    C3 2611   9.184  16.998  11.051  0.1911 -0.1770  0.2274
  164loPI   PO4 2612   9.459  17.032  10.569 -0.0012  0.1952 -0.2477
  164loPI   GL1 2613   9.485  16.978  10.245 -0.0638 -0.0877 -0.0606
  164loPI   GL2 2614   9.298  16.665  10.218 -0.1808 -0.0684 -0.0265
  164loPI   C1A 2615   9.552  16.905   9.793 -0.0981  0.2029  0.5335
  164loPI   C2A 2616   9.574  16.878   9.297 -0.2182 -0.1202  0.1394
  164loPI   C3A 2617   9.525  16.815   8.884  0.3172 -0.1140 -0.0386
  164loPI   C4A 2618   9.419  16.791   8.423  0.3682 -0.0982  0.0503
  164loPI   C5A 2619   9.395  16.813   7.987  0.1722 -0.0797 -0.0446
  164loPI   C6A 2620   9.505  16.607   7.653  0.0157  0.0538  0.1679
  164loPI   C1B 2621   9.110  16.555   9.790  0.2155  0.0446  0.4972
  164loPI   C2B 2622   9.170  16.541   9.285  0.0307 -0.2781 -0.2316
  164loPI   C3B 2623   9.125  16.455   8.874  0.0432 -0.0097 -0.0501
  164loPI   C4B 2624   9.100  16.384   8.462  0.2510  0.0561 -0.1656
  165loPI    C1 2625  14.454   6.745  11.003 -0.1345  0.1967 -0.0475
  165loPI    C2 2626  14.373   6.972  11.322 -0.0159 -0.0989  0.1970
  165loPI    C3 2627  14.610   6.651  11.359  0.0197 -0.1222 -0.1950
  165loPI   PO4 2628  14.547   6.942  10.810  0.0285  0.1221 -0.1070
  165loPI   GL1 2629  14.600   6.944  10.401 -0.1560 -0.1109 -0.1859
  165loPI   GL2 2630  14.409   6.734  10.259  0.0586 -0.0948  0.1491
  165loPI   C1A 2631  14.716   6.910   9.939  0.2970  0.1875 -0.1362
  165loPI   C2A 2632  14.684   6.934   9.484 -0.1047  0.1509 -0.2834
  165loPI   C3A 2633  14.758   6.909   9.114  0.2209 -0.3747 -0.4789
  165loPI   C4A 2634  14.827   6.830   8.623 -0.0084  0.1248 -0.0197
  165loPI   C5A 2635  14.780   6.856   8.215 -0.3623 -0.3004  0.2146
  165loPI   C6A 2636  14.972   6.750   7.764 -0.0947  0.0514 -0.0407
  165loPI   C1B 2637  14.364   6.537   9.783  0.1985 -0.0537 -0.1845
  165loPI   C2B 2638  14.412   6.495   9.288 -0.2138 -0.3277 -0.0830
  165loPI   C3B 2639  14.472   6.486   8.871  0.0786  0.0605  0.0928
  165loPI   C4B 2640  14.529   6.454   8.405  0.1825  0.3973 -0.1224
  166loPI    C1 2641  16.848  15.430  10.729 -0.0663  0.2488 -0.0011
  166loPI    C2 2642  16.940  15.737  10.968  0.1547  0.2067 -0.0299
  166loPI    C3 2643  16.915  15.367  11.118  0.1163  0.2057 -0.0387
  166loPI   PO4 2644  16.636  15.573  10.556  0.0901 -0.1632 -0.2220
  166loPI   GL1 2645  16.484  15.552  10.121  0.1226 -0.2268  0.0503
  166loPI   GL2 2646  16.639  15.463   9.864 -0.4162  0.0544 -0.2013
  166loPI   C1A 2647  16.213  15.513   9.702  0.1423 -0.2519  0.4841
  166loPI   C2A 2648  16.158  15.462   9.271  0.0461 -0.1416 -0.3054
  166loPI   C3A 2649  16.102  15.603   8.756 -0.0704  0.3093  0.0890
  166loPI   C4A 2650  16.079  15.552   8.323 -0.0757  0.1669  0.0156
  166loPI   C5A 2651  16.073  15.320   7.958 -0.5724  0.2710  0.0721
  166loPI   C6A 2652  16.031  15.172   7.524  0.0518  0.0455 -0.0489
  166loPI   C1B 2653  16.638  15.478   9.382 -0.0507 -0.2484 -0.1555
  166loPI   C2B 2654  16.534  15.442   8.961 -0.1418 -0.3717  0.1742
  166loPI   C3B 2655  16.606  15.382   8.530 -0.1158 -0.1958 -0.1598
  166loPI   C4B 2656  16.573  15.358   8.099 -0.1424  0.1590  0.2963
  167loPI    C1 2657   4.047  14.359  10.647  0.0771  0.0931 -0.0182
  167loPI    C2 2658   3.784  14.354  10.948 -0.1957 -0.0170 -0.2532
  167loPI    C3 2659   4.165  14.251  11.014 -0.2475 -0.0227  0.0557
  167loPI   PO4 2660   3.982  14.278  10.431  0.0206 -0.1339 -0.3577
  167loPI   GL1 2661   3.992  14.227   9.995  0.2539 -0.1203  0.0667
  167loPI   GL2 2662   4.155  13.988   9.858  0.0371 -0.3673 -0.0782
  167loPI   C1A 2663   4.002  14.352   9.561 -0.0584  0.0811  0.2325
  167loPI   C2A 2664   4.051  14.340   9.192 -0.2161  0.1639 -0.0208
  167loPI   C3A 2665   3.978  14.379   8.710 -0.2128  0.1934  0.0931
  167loPI   C4A 2666   3.912  14.480   8.318 -0.1316  0.5854  0.2280
  167loPI   C5A 2667   3.844  14.803   7.992 -0.2653 -0.2126  0.2574
  167loPI   C6A 2668   3.809  14.969   7.621 -0.0158  0.0262  0.0036
  167loPI   C1B 2669   4.176  13.866   9.366 -0.1226  0.1288  0.2594
  167loPI   C2B 2670   4.138  13.909   8.885  0.1101 -0.2992 -0.1055
  167loPI   C3B 2671   4.038  13.937   8.481  0.0178  0.3927 -0.1456
  167loPI   C4B 2672   4.229  14.084   8.084 -0.1849 -0.3260 -0.0887
  168loPI    C1 2673  16.559  10.551  10.802 -0.0155 -0.0563  0.0687
  168loPI    C2 2674  16.739  10.196  10.761 -0.3674 -0.2609  0.2487
  168loPI    C3 2675  16.770  10.397  11.105  0.1200  0.0542  0.0316
  168loPI   PO4 2676  16.589  10.660  10.565  0.1504 -0.0074  0.1940
  168loPI   GL1 2677  16.553  10.403  10.195  0.1529 -0.1335 -0.2635
  168loPI   GL2 2678  16.264  10.597  10.093 -0.2202 -0.2187 -0.0324
  168loPI   C1A 2679  16.661  10.213   9.784 -0.1153  0.0041 -0.0028
  168loPI   C2A 2680  16.681  10.154   9.358 -0.0970  0.1256 -0.3706
  168loPI   C3A 2681  16.663  10.112   8.933 -0.0451 -0.1803 -0.3211
  168loPI   C4A 2682  16.534  10.202   8.465  0.4703 -0.0560 -0.0953
  168loPI   C5A 2683  16.619  10.168   8.048 -0.0838 -0.3066  0.1143
  168loPI   C6A 2684  16.389  10.039   7.645 -0.0635  0.4245  0.1196
  168loPI   C1B 2685  16.172  10.373   9.773  0.0312  0.2576  0.0971
  168loPI   C2B 2686  16.107  10.255   9.479 -0.0241 -0.0885 -0.0098
  168loPI   C3B 2687  16.122  10.143   9.082 -0.1241  0.3901  0.0751
  168loPI   C4B 2688  16.142  10.294   8.750 -0.3098 -0.0945 -0.1116
  169loPI    C1 2689   7.584   9.408  10.772  0.0776  0.6221  0.2814
  169loPI    C2 2690   7.869   9.321  11.039  0.1102 -0.0884  0.0360
  169loPI    C3 2691   7.483   9.293  11.142  0.1239 -0.1321  0.0755
  169loPI   PO4 2692   7.572   9.248  10.548  0.3401  0.1559  0.3710
  169loPI   GL1 2693   7.523   9.172  10.134 -0.1775  0.1295  0.0714
  169loPI   GL2 2694   7.226   9.262  10.072 -0.1203 -0.1059  0.4415
  169loPI   C1A 2695   7.466   9.397   9.656 -0.0590 -0.0799 -0.2417
  169loPI   C2A 2696   7.466   9.305   9.304 -0.0115 -0.0636 -0.0184
  169loPI   C3A 2697   7.459   9.299   8.859 -0.0290 -0.2700 -0.1448
  169loPI   C4A 2698   7.286   9.288   8.412 -0.1716 -0.0236 -0.0083
  169loPI   C5A 2699   7.169   9.382   7.974  0.0703 -0.0100  0.3693
  169loPI   C6A 2700   7.387   9.306   7.616 -0.0565 -0.0188 -0.0205
  169loPI   C1B 2701   6.960   9.431   9.636  0.3175 -0.3280 -0.1640
  169loPI   C2B 2702   6.910   9.410   9.211  0.3102 -0.2658 -0.1807
  169loPI   C3B 2703   6.872   9.420   8.738 -0.3149 -0.1196 -0.1067
  169loPI   C4B 2704   6.793   9.412   8.280  0.2252 -0.0371 -0.0743
  170loPI    C1 2705   0.138  14.488  10.505 -0.0715 -0.0236 -0.0993
  170loPI    C2 2706   0.375  14.303  10.769 -0.0629 -0.0532 -0.1277
  170loPI    C3 2707   0.410  14.697  10.710 -0.0324 -0.0547 -0.1195
  170loPI   PO4 2708   0.094  14.326  10.316  0.0003  0.3294  0.0336
  170loPI   GL1 2709   0.072  14.002   9.970 -0.0586 -0.2275 -0.2140
  170loPI   GL2 2710   0.206  14.292   9.814  0.0419  0.0341  0.1195
  170loPI   C1A 2711  -0.206  14.035   9.592  0.1569  0.1109 -0.1145
  170loPI   C2A 2712  -0.243  14.038   9.196 -0.0143 -0.5398 -0.0159
  170loPI   C3A 2713  -0.168  13.963   8.747  0.0005 -0.1140  0.1560
  170loPI   C4A 2714  -0.052  13.756   8.370 -0.0547  0.3823 -0.0226
  170loPI   C5A 2715   0.050  13.713   7.954 -0.1385 -0.0351  0.1442
  170loPI   C6A 2716   0.250  13.931   7.593  0.3508  0.0648  0.3987
  170loPI   C1B 2717   0.137  14.396   9.398  0.2675  0.2396 -0.2109
  170loPI   C2B 2718   0.132  14.473   9.013  0.2137  0.1586  0.2211
  170loPI   C3B 2719   0.129  14.345   8.593 -0.1221  0.1479 -0.0348
  170loPI   C4B 2720   0.240  14.207   8.233  0.1996 -0.2018  0.0293
  171loPI    C1 2721  13.612   1.566  11.091 -0.1339 -0.0175 -0.1445
  171loPI    C2 2722  13.594   1.167  11.102 -0.2989 -0.0169 -0.3321
  171loPI    C3 2723  13.368   1.384  11.350  0.0359 -0.0398  0.0015
  171loPI   PO4 2724  13.593   1.659  10.771 -0.0669 -0.2645 -0.1809
  171loPI   GL1 2725  13.689   1.631  10.340  0.3180 -0.0226  0.2230
  171loPI   GL2 2726  13.684   1.377  10.088  0.0924  0.4807  0.1292
  171loPI   C1A 2727  13.925   1.747   9.905 -0.0064 -0.2026  0.0448
  171loPI   C2A 2728  13.874   1.990   9.563 -0.0681  0.0041 -0.1711
  171loPI   C3A 2729  13.830   2.138   9.169  0.1918 -0.0682 -0.0191
  171loPI   C4A 2730  13.743   2.020   8.792 -0.2480  0.0613 -0.1455
  171loPI   C5A 2731  13.692   1.969   8.359 -0.2961 -0.4061  0.2047
  171loPI   C6A 2732  13.471   1.813   7.951  0.4436 -0.3459  0.0221
  171loPI   C1B 2733  13.633   1.151   9.720 -0.2137  0.0249 -0.0244
  171loPI   C2B 2734  13.644   1.110   9.193  0.2778 -0.0698 -0.2701
  171loPI   C3B 2735  13.662   1.173   8.807 -0.1372  0.0439  0.1040
  171loPI   C4B 2736  13.481   1.095   8.527  0.1354 -0.2961  0.3295
  172loPI    C1 2737   5.636   4.793  10.280  0.2083  0.1092 -0.0672
  172loPI    C2 2738   5.736   4.616  10.624  0.0857  0.0708 -0.0509
  172loPI    C3 2739   5.556   4.405  10.336  0.2612  0.0828 -0.1712
  172loPI   PO4 2740   5.806   4.966  10.266 -0.2633  0.1830  0.0924
  172loPI   GL1 2741   6.016   5.126  10.053  0.2365 -0.2299 -0.0325
  172loPI   GL2 2742   6.140   5.418  10.000 -0.0521 -0.0556 -0.3559
  172loPI   C1A 2743   5.825   4.974   9.670 -0.0939 -0.0903  0.2341
  172loPI   C2A 2744   5.784   4.955   9.178 -0.0750 -0.0674  0.1362
  172loPI   C3A 2745   5.842   4.998   8.635  0.2730 -0.0482 -0.5385
  172loPI   C4A 2746   5.886   4.952   8.239  0.2987 -0.1748 -0.0870
  172loPI   C5A 2747   6.056   5.219   7.916  0.1260 -0.1254 -0.1247
  172loPI   C6A 2748   6.450   5.548   7.808  0.0410  0.1599 -0.0499
  172loPI   C1B 2749   6.137   5.398   9.613 -0.0142  0.2444 -0.2282
  172loPI   C2B 2750   6.193   5.359   9.164 -0.0873  0.1456  0.1078
  172loPI   C3B 2751   6.222   5.366   8.712  0.0330 -0.0548 -0.2994
  172loPI   C4B 2752   6.385   5.349   8.356  0.0139 -0.0711  0.0686
  173loPI    C1 2753  13.041   7.583  10.824  0.3065  0.3250 -0.0375
  173loPI    C2 2754  12.817   7.880  10.678 -0.0936  0.0700  0.0413
  173loPI    C3 2755  12.738   7.729  11.040  0.0564 -0.1839 -0.0291
  173loPI   PO4 2756  13.255   7.585  10.577  0.3091 -0.0408  0.1020
  173loPI   GL1 2757  13.404   7.616  10.159 -0.0662 -0.0474 -0.1496
  173loPI   GL2 2758  13.487   7.904   9.976  0.2231  0.3947  0.2259
  173loPI   C1A 2759  13.313   7.365   9.760  0.1659  0.0425  0.6579
  173loPI   C2A 2760  13.250   7.372   9.281 -0.0414 -0.0372 -0.0159
  173loPI   C3A 2761  13.227   7.297   8.824  0.1439 -0.0398 -0.1144
  173loPI   C4A 2762  13.325   7.179   8.488 -0.2070 -0.1546  0.1115
  173loPI   C5A 2763  13.345   7.250   8.031 -0.0569 -0.0116 -0.0113
  173loPI   C6A 2764  13.043   7.099   7.845  0.0968  0.0663 -0.0970
  173loPI   C1B 2765  13.541   7.797   9.509  0.1935  0.4209 -0.0271
  173loPI   C2B 2766  13.707   7.756   9.066 -0.1061  0.0402  0.3150
  173loPI   C3B 2767  13.580   7.613   8.614  0.1206  0.0940  0.2160
  173loPI   C4B 2768  13.395   7.684   8.237  0.0027 -0.2249  0.0194
  174loPI    C1 2769   9.581   6.333  10.906 -0.1390  0.1356 -0.0906
  174loPI    C2 2770   9.392   6.176  11.222 -0.0132  0.0082 -0.0777
  174loPI    C3 2771   9.776   6.285  11.252  0.0237 -0.0823 -0.2094
  174loPI   PO4 2772   9.410   6.319  10.734 -0.3091  0.2984 -0.2814
  174loPI   GL1 2773   9.569   6.282  10.246  0.2282  0.1845  0.0749
  174loPI   GL2 2774   9.297   6.400  10.103  0.0250 -0.1359 -0.0693
  174loPI   C1A 2775   9.706   6.248   9.817  0.1330 -0.1584 -0.0669
  174loPI   C2A 2776   9.623   6.272   9.401 -0.1534  0.0667 -0.3995
  174loPI   C3A 2777   9.800   6.214   8.939  0.4421 -0.2504  0.4066
  174loPI   C4A 2778   9.921   6.347   8.519  0.2859 -0.1347  0.0676
  174loPI   C5A 2779   9.814   6.562   8.121  0.0953 -0.0594 -0.0358
  174loPI   C6A 2780   9.743   6.686   7.728  0.1066  0.1034  0.0726
  174loPI   C1B 2781   9.146   6.471   9.686 -0.0953  0.0005  0.2778
  174loPI   C2B 2782   9.160   6.487   9.287  0.1577  0.2000 -0.3062
  174loPI   C3B 2783   9.310   6.411   8.916 -0.1368  0.0035  0.1294
  174loPI   C4B 2784   9.346   6.435   8.524  0.0877  0.0728 -0.0786
  175loPI    C1 2785   9.803  15.419  11.086 -0.0094 -0.1213 -0.1134
  175loPI    C2 2786   9.550  15.621  11.322 -0.0335 -0.0076 -0.2356
  175loPI    C3 2787   9.698  15.270  11.442 -0.0903  0.0223 -0.0760
  175loPI   PO4 2788   9.565  15.351  10.830 -0.2283 -0.1428  0.1619
  175loPI   GL1 2789   9.575  15.328  10.364  0.0844  0.2931  0.2399
  175loPI   GL2 2790   9.215  15.362  10.427 -0.0907 -0.2880  0.3293
  175loPI   C1A 2791   9.524  15.106   9.989  0.2011  0.1516  0.1681
  175loPI   C2A 2792   9.569  15.022   9.588  0.0646 -0.1791  0.1167
  175loPI   C3A 2793   9.592  15.014   9.154  0.0896 -0.1021 -0.1375
  175loPI   C4A 2794   9.654  14.893   8.776  0.0622 -0.0394  0.0823
  175loPI   C5A 2795   9.608  14.649   8.380 -0.1474  0.4450 -0.0922
  175loPI   C6A 2796   9.720  14.211   8.157  0.2715 -0.1842  0.1091
  175loPI   C1B 2797   9.265  15.590  10.032  0.2051 -0.0954 -0.1536
  175loPI   C2B 2798   9.499  15.581   9.630 -0.2216 -0.2013 -0.1324
  175loPI   C3B 2799   9.474  15.486   9.248  0.0282 -0.1003 -0.1860
  175loPI   C4B 2800   9.512  15.383   8.797  0.2042 -0.0251 -0.2140
  176loPI    C1 2801   0.478   9.045  10.658  0.2944 -0.1056 -0.0560
  176loPI    C2 2802   0.374   9.394  10.493 -0.2241 -0.1900  0.0745
  176loPI    C3 2803   0.432   9.369  10.888  0.0011 -0.2128  0.0414
  176loPI   PO4 2804   0.305   8.916  10.595  0.0247  0.1636 -0.1534
  176loPI   GL1 2805   0.178   9.049  10.235  0.0169  0.0054 -0.1664
  176loPI   GL2 2806  -0.188   9.248  10.112 -0.0275  0.2839  0.1175
  176loPI   C1A 2807   0.283   9.136   9.813  0.1989 -0.0928  0.3279
  176loPI   C2A 2808   0.363   9.111   9.341  0.1139  0.4674 -0.1097
  176loPI   C3A 2809   0.322   9.174   8.873 -0.0720  0.1361 -0.0575
  176loPI   C4A 2810   0.246   9.134   8.468 -0.0733 -0.1317  0.0195
  176loPI   C5A 2811   0.327   9.061   8.053 -0.0687 -0.1521  0.0018
  176loPI   C6A 2812   0.282   8.767   7.745  0.1540 -0.0731 -0.0327
  176loPI   C1B 2813  -0.250   9.325   9.618 -0.0728  0.0831  0.0189
  176loPI   C2B 2814  -0.170   9.238   9.291 -0.6094  0.0820  0.2553
  176loPI   C3B 2815  -0.163   9.330   8.851  0.0374 -0.0097 -0.3184
  176loPI   C4B 2816  -0.229   9.173   8.457  0.0065 -0.1266  0.0692
  177loPI    C1 2817  15.671  18.288  10.153  0.1152  0.2481  0.2817
  177loPI    C2 2818  15.837  18.514   9.867 -0.0047 -0.0865 -0.0604
  177loPI    C3 2819  15.598  18.681  10.140 -0.0898  0.2017 -0.3061
  177loPI   PO4 2820  15.673  18.027   9.955 -0.0405  0.1422  0.1709
  177loPI   GL1 2821  15.713  17.969   9.551  0.3410  0.1982 -0.0932
  177loPI   GL2 2822  15.952  17.806   9.572  0.1625 -0.2316  0.3530
  177loPI   C1A 2823  15.596  17.730   9.275  0.0356 -0.0355 -0.1056
  177loPI   C2A 2824  15.510  17.698   8.920 -0.2565 -0.0689 -0.1951
  177loPI   C3A 2825  15.481  17.649   8.520  0.2172 -0.0025 -0.0983
  177loPI   C4A 2826  15.372  17.712   8.137  0.1388 -0.2171  0.1656
  177loPI   C5A 2827  15.222  17.835   7.825 -0.0372 -0.1529  0.1011
  177loPI   C6A 2828  15.288  18.202   7.581  0.1261 -0.0738  0.3092
  177loPI   C1B 2829  16.034  17.701   9.185 -0.0730 -0.0805 -0.1459
  177loPI   C2B 2830  15.997  17.568   8.755 -0.3438 -0.0004 -0.4008
  177loPI   C3B 2831  16.079  17.584   8.396 -0.1582 -0.0847  0.1470
  177loPI   C4B 2832  16.108  17.649   8.007  0.2511  0.0964 -0.2087
  178loPI    C1 2833  17.042   3.631  10.151  0.1001 -0.1067 -0.0600
  178loPI    C2 2834  17.228   3.332  10.340 -0.2200 -0.1310  0.2267
  178loPI    C3 2835  17.031   3.609  10.550 -0.1614  0.1272 -0.0515
  178loPI   PO4 2836  16.887   3.493   9.926  0.1114 -0.1365 -0.2444
  178loPI   GL1 2837  16.965   3.357   9.533  0.1430 -0.1548  0.1562
  178loPI   GL2 2838  17.343   3.507   9.413 -0.0737  0.2311 -0.1235
  178loPI   C1A 2839  16.930   3.240   9.094  0.4541 -0.2666 -0.0805
  178loPI   C2A 2840  16.891   2.831   8.831  0.2411 -0.1455 -0.2164
  178loPI   C3A 2841  16.672   2.618   8.581  0.0898 -0.2072  0.0792
  178loPI   C4A 2842  16.426   2.726   8.210 -0.2911 -0.0727  0.2141
  178loPI   C5A 2843  16.373   3.129   7.956  0.1839  0.0880 -0.1515
  178loPI   C6A 2844  16.091   3.342   7.839  0.2923  0.2474  0.2033
  178loPI   C1B 2845  17.369   3.553   9.022 -0.3051 -0.3657  0.0538
  178loPI   C2B 2846  17.226   3.371   8.713 -0.1749  0.0119  0.0560
  178loPI   C3B 2847  17.260   3.200   8.289 -0.1680 -0.0248  0.3031
  178loPI   C4B 2848  17.275   3.173   7.857  0.2975 -0.3513 -0.1336
  179loPI    C1 2849   1.670   2.773  10.293  0.2217  0.2065  0.1909
  179loPI    C2 2850   1.416   3.079  10.333 -0.1194 -0.0641  0.1431
  179loPI    C3 2851   1.379   2.756  10.567  0.0350 -0.2042 -0.0233
  179loPI   PO4 2852   1.779   2.721  10.088  0.2021 -0.0238 -0.1521
  179loPI   GL1 2853   1.733   2.999   9.737 -0.1962 -0.2645  0.0833
  179loPI   GL2 2854   2.045   3.212   9.824  0.0924 -0.1379 -0.2793
  179loPI   C1A 2855   1.789   2.653   9.406  0.2544 -0.0121 -0.0185
  179loPI   C2A 2856   1.892   2.722   8.973 -0.1408 -0.0788  0.1195
  179loPI   C3A 2857   1.539   2.598   8.737 -0.1784  0.2983  0.0310
  179loPI   C4A 2858   1.479   2.813   8.311 -0.0054 -0.0649  0.0181
  179loPI   C5A 2859   1.450   2.674   7.934 -0.3486  0.0827 -0.0258
  179loPI   C6A 2860   1.599   2.715   7.642 -0.2851 -0.0910 -0.1562
  179loPI   C1B 2861   2.033   3.476   9.441 -0.0291 -0.0208 -0.1616
  179loPI   C2B 2862   1.986   3.754   9.098  0.2741  0.2899  0.0286
  179loPI   C3B 2863   2.211   3.820   8.750  0.1680  0.0219  0.0344
  179loPI   C4B 2864   2.120   3.895   8.298  0.2843  0.0313  0.0503
  180loPI    C1 2865   8.325   5.359  10.946  0.0400  0.0483 -0.1911
  180loPI    C2 2866   8.104   5.106  11.162  0.2164 -0.0643 -0.1402
  180loPI    C3 2867   8.450   5.242  11.307 -0.0028  0.4188 -0.0522
  180loPI   PO4 2868   8.315   5.266  10.698  0.1356 -0.1232 -0.0426
  180loPI   GL1 2869   8.562   5.360  10.186  0.0735  0.1548 -0.0751
  180loPI   GL2 2870   8.890   5.549  10.245  0.1989  0.0736 -0.4644
  180loPI   C1A 2871   8.597   5.131   9.674  0.1932  0.0520  0.0485
  180loPI   C2A 2872   8.588   5.120   9.195  0.0053  0.1653 -0.2571
  180loPI   C3A 2873   8.626   5.282   8.752 -0.0591  0.2081 -0.1041
  180loPI   C4A 2874   8.614   5.354   8.306  0.1382 -0.3097  0.0060
  180loPI   C5A 2875   8.851   5.632   8.124  0.1811  0.1688 -0.1526
  180loPI   C6A 2876   9.309   5.722   7.994 -0.1384  0.0375 -0.2845
  180loPI   C1B 2877   8.888   5.597   9.807  0.3063 -0.1345  0.0519
  180loPI   C2B 2878   8.939   5.662   9.441  0.0862  0.2870 -0.3796
  180loPI   C3B 2879   9.016   5.510   8.952 -0.2552  0.2567  0.0286
  180loPI   C4B 2880   9.096   5.635   8.532  0.1162  0.2383 -0.1643
  181loPI    C1 2881   3.455   0.460  10.057  0.0857 -0.0337 -0.0027
  181loPI    C2 2882   3.827   0.366  10.169  0.2413  0.0365 -0.4418
  181loPI    C3 2883   3.742   0.739  10.052 -0.0147  0.0686 -0.1646
  181loPI   PO4 2884   3.445   0.286   9.818 -0.0922  0.1246 -0.0476
  181loPI   GL1 2885   3.691   0.012   9.543 -0.1451  0.2203  0.1674
  181loPI   GL2 2886   3.594   0.290   9.318  0.0184 -0.1826 -0.0553
  181loPI   C1A 2887   3.835  -0.123   9.198  0.3071  0.0070  0.3580
  181loPI   C2A 2888   4.001  -0.294   8.839  0.1232  0.0037  0.2910
  181loPI   C3A 2889   3.954  -0.293   8.311  0.1116 -0.1986 -0.0895
  181loPI   C4A 2890   4.025  -0.233   7.949 -0.0425  0.1103 -0.0897
  181loPI   C5A 2891   3.953  -0.015   7.487  0.0826  0.2090 -0.0269
  181loPI   C6A 2892   3.810   0.296   7.208 -0.0720 -0.1810 -0.1743
  181loPI   C1B 2893   3.540   0.325   8.976  0.2979  0.2098 -0.0721
  181loPI   C2B 2894   3.498   0.402   8.505  0.2182 -0.1408 -0.3338
  181loPI   C3B 2895   3.636   0.268   8.161 -0.1102  0.1059  0.2450
  181loPI   C4B 2896   3.879   0.361   7.838  0.4306 -0.2762 -0.0434
  182loPI    C1 2897   9.874  14.911  10.796 -0.1628  0.3599 -0.0939
  182loPI    C2 2898   9.931  14.908  11.191 -0.1416  0.1893 -0.0976
  182loPI    C3 2899   9.568  14.835  11.041 -0.1970  0.4667 -0.1030
  182loPI   PO4 2900  10.039  15.100  10.663  0.1493 -0.0876  0.2542
  182loPI   GL1 2901  10.298  15.077  10.243 -0.0443  0.2327  0.3077
  182loPI   GL2 2902  10.103  15.359  10.225 -0.1016  0.0872 -0.1155
  182loPI   C1A 2903  10.049  14.911   9.818 -0.1729  0.3900 -0.1323
  182loPI   C2A 2904  10.075  14.827   9.400 -0.3075 -0.0602  0.2878
  182loPI   C3A 2905  10.142  14.825   9.006  0.1490  0.1386  0.2665
  182loPI   C4A 2906  10.118  14.775   8.545  0.1212  0.1758 -0.0543
  182loPI   C5A 2907   9.980  15.078   8.258  0.4310 -0.1894 -0.2942
  182loPI   C6A 2908   9.618  15.206   8.343  0.2128  0.2707 -0.0779
  182loPI   C1B 2909   9.935  15.439   9.862 -0.1241 -0.0429 -0.1584
  182loPI   C2B 2910   9.976  15.346   9.460 -0.0448 -0.1801 -0.4093
  182loPI   C3B 2911   9.970  15.380   8.969 -0.1174 -0.0286  0.2402
  182loPI   C4B 2912  10.087  15.439   8.577 -0.5133  0.3060 -0.1724
  183loPI    C1 2913  12.890  13.461  10.691  0.2016  0.2415 -0.1247
  183loPI    C2 2914  13.267  13.528  10.575  0.3965  0.0431  0.3689
  183loPI    C3 2915  13.075  13.799  10.798  0.2145  0.1791  0.0530
  183loPI   PO4 2916  12.750  13.452  10.499  0.3431  0.1015  0.1056
  183loPI   GL1 2917  12.982  13.341  10.062 -0.2757  0.0435 -0.3087
  183loPI   GL2 2918  13.222  13.559  10.038  0.1528 -0.1073  0.2444
  183loPI   C1A 2919  12.936  13.218   9.739  0.2156 -0.0170  0.3560
  183loPI   C2A 2920  13.064  13.270   9.324  0.2381  0.0757 -0.0509
  183loPI   C3A 2921  13.048  13.068   9.008 -0.4680  0.0348 -0.1790
  183loPI   C4A 2922  12.984  13.054   8.618 -0.2024  0.0578  0.0919
  183loPI   C5A 2923  12.925  13.239   8.236  0.2810  0.1991 -0.0514
  183loPI   C6A 2924  12.841  13.609   8.100  0.1200  0.0745  0.1621
  183loPI   C1B 2925  13.294  13.774   9.538  0.0452 -0.3381  0.0791
  183loPI   C2B 2926  13.279  13.612   9.049 -0.1171 -0.2034 -0.0428
  183loPI   C3B 2927  13.319  13.415   8.667  0.1564 -0.0778  0.5161
  183loPI   C4B 2928  13.266  13.672   8.310 -0.0018  0.1196 -0.0909
  184loPI    C1 2929   9.461   7.219  10.532 -0.1275  0.1607 -0.1078
  184loPI    C2 2930   9.629   7.445  10.816  0.3231 -0.1133 -0.1472
  184loPI    C3 2931   9.276   7.270  10.883  0.2065  0.1961  0.0674
  184loPI   PO4 2932   9.728   7.113  10.412 -0.2408 -0.0970 -0.2119
  184loPI   GL1 2933   9.923   7.225  10.045  0.1499  0.2719  0.2718
  184loPI   GL2 2934  10.166   7.431  10.020 -0.2302  0.0964  0.3817
  184loPI   C1A 2935   9.961   7.213   9.603 -0.2552  0.1354 -0.1973
  184loPI   C2A 2936   9.942   7.296   9.232  0.1665 -0.1410  0.1050
  184loPI   C3A 2937   9.977   7.218   8.868  0.4514  0.3511  0.0496
  184loPI   C4A 2938   9.963   7.290   8.442  0.0992 -0.1509  0.0777
  184loPI   C5A 2939   9.802   7.191   8.068  0.1644 -0.1881  0.0211
  184loPI   C6A 2940   9.437   7.011   8.015 -0.0949 -0.3908  0.2795
  184loPI   C1B 2941  10.246   7.575   9.477 -0.0832 -0.2333  0.0764
  184loPI   C2B 2942  10.330   7.629   9.120  0.0096  0.0146  0.3635
  184loPI   C3B 2943  10.445   7.723   8.752 -0.0611  0.1025  0.2876
  184loPI   C4B 2944  10.342   7.694   8.329  0.1016 -0.0390  0.0808
  185loPI    C1 2945   3.717   1.265  10.182 -0.2738 -0.1187 -0.2677
  185loPI    C2 2946   3.601   0.992  10.451 -0.2585  0.1047 -0.0302
  185loPI    C3 2947   3.991   1.048  10.379 -0.2503  0.2502  0.1211
  185loPI   PO4 2948   3.630   1.236   9.975 -0.2470 -0.0295  0.2198
  185loPI   GL1 2949   3.618   1.418   9.596 -0.0990  0.0658 -0.2408
  185loPI   GL2 2950   3.936   1.328   9.571 -0.1435  0.0177  0.2633
  185loPI   C1A 2951   3.784   1.830   9.429  0.0648 -0.0413 -0.1533
  185loPI   C2A 2952   4.079   1.979   9.186 -0.2315  0.1100  0.0735
  185loPI   C3A 2953   4.258   2.016   8.760 -0.6052  0.2531 -0.1005
  185loPI   C4A 2954   4.343   2.196   8.397  0.1122 -0.2391  0.1556
  185loPI   C5A 2955   4.252   2.599   8.101  0.3404  0.0887 -0.0200
  185loPI   C6A 2956   4.108   2.610   7.724 -0.0000  0.1322  0.1707
  185loPI   C1B 2957   3.894   1.456   9.141 -0.2603  0.0024 -0.1084
  185loPI   C2B 2958   3.932   1.561   8.717 -0.0223  0.0630  0.0172
  185loPI   C3B 2959   4.308   1.620   8.390  0.0409  0.0089  0.0445
  185loPI   C4B 2960   4.351   1.411   8.073  0.0441  0.0979 -0.0905
  186loPI    C1 2961  12.360  12.473  10.965 -0.0320 -0.0428 -0.2459
  186loPI    C2 2962  12.659  12.683  11.126 -0.1943 -0.0137  0.0242
  186loPI    C3 2963  12.387  12.510  11.363 -0.2402 -0.2660 -0.2082
  186loPI   PO4 2964  12.318  12.558  10.678  0.1868 -0.2167 -0.2155
  186loPI   GL1 2965  12.115  12.477  10.291 -0.1009 -0.0202  0.2839
  186loPI   GL2 2966  11.862  12.744  10.181 -0.2199  0.3758 -0.1698
  186loPI   C1A 2967  12.189  12.502   9.832 -0.0273 -0.3833 -0.0430
  186loPI   C2A 2968  12.275  12.391   9.382  0.1130  0.0137  0.1051
  186loPI   C3A 2969  12.232  12.417   8.916 -0.1855  0.1587 -0.1851
  186loPI   C4A 2970  12.385  12.214   8.503  0.1152  0.2798  0.1545
  186loPI   C5A 2971  12.639  12.279   8.114 -0.2349  0.0852 -0.0135
  186loPI   C6A 2972  12.874  12.399   7.813 -0.1337 -0.3215  0.1953
  186loPI   C1B 2973  11.754  12.631   9.736  0.4070 -0.0498  0.1477
  186loPI   C2B 2974  11.750  12.584   9.236 -0.0771 -0.2905  0.0369
  186loPI   C3B 2975  11.761  12.516   8.820 -0.1182 -0.0628 -0.0018
  186loPI   C4B 2976  11.663  12.328   8.459  0.3564  0.1858  0.2974
  187loPI    C1 2977  13.311   0.271  10.635  0.0343  0.3613  0.1492
  187loPI    C2 2978  13.303  -0.096  10.794  0.2495  0.2847 -0.0122
  187loPI    C3 2979  13.115   0.206  10.977 -0.0475  0.0667  0.0489
  187loPI   PO4 2980  13.345   0.185  10.388 -0.1939  0.1449 -0.0498
  187loPI   GL1 2981  13.346   0.320   9.995 -0.0310  0.0372 -0.2373
  187loPI   GL2 2982  13.149   0.012   9.975  0.1945  0.2126  0.1977
  187loPI   C1A 2983  13.471   0.201   9.651 -0.0414 -0.3744  0.1476
  187loPI   C2A 2984  13.488   0.215   9.287 -0.2254  0.1682 -0.0465
  187loPI   C3A 2985  13.428   0.191   8.837  0.0484 -0.0474  0.2593
  187loPI   C4A 2986  13.269   0.192   8.426  0.2227 -0.0018 -0.1148
  187loPI   C5A 2987  13.156   0.221   8.088 -0.1022 -0.0869 -0.1873
  187loPI   C6A 2988  12.771   0.521   7.998 -0.2208  0.0222  0.1997
  187loPI   C1B 2989  13.164  -0.142   9.601 -0.0137  0.2720 -0.0816
  187loPI   C2B 2990  12.952  -0.194   9.248 -0.0780  0.2181 -0.1001
  187loPI   C3B 2991  12.943  -0.091   8.772 -0.1774 -0.2913  0.1438
  187loPI   C4B 2992  12.947  -0.289   8.292  0.1167 -0.1382  0.0670
  188loPI    C1 2993   6.915  18.254  10.448  0.2907  0.0498  0.1068
  188loPI    C2 2994   7.103  18.058  10.741 -0.0029 -0.0642  0.2236
  188loPI    C3 2995   7.015  18.446  10.784  0.2163 -0.0061  0.1614
  188loPI   PO4 2996   7.091  18.180  10.214  0.0108 -0.1607  0.0996
  188loPI   GL1 2997   7.211  18.219   9.837 -0.0889  0.0789  0.0175
  188loPI   GL2 2998   7.413  17.914   9.893 -0.0529  0.2794 -0.1754
  188loPI   C1A 2999   7.058  18.215   9.412  0.2009 -0.1457 -0.2810
  188loPI   C2A 3000   7.170  18.449   8.933  0.3764 -0.0416  0.1072
  188loPI   C3A 3001   7.238  18.427   8.482 -0.1259 -0.0253 -0.0271
  188loPI   C4A 3002   7.365  18.371   8.092  0.1376 -0.1343  0.2640
  188loPI   C5A 3003   7.623  18.271   7.678  0.1290 -0.3946 -0.2650
  188loPI   C6A 3004   8.051  18.406   7.441  0.2942 -0.5235 -0.1752
  188loPI   C1B 3005   7.363  17.847   9.482  0.1877  0.1401  0.0690
  188loPI   C2B 3006   7.416  17.941   9.031  0.2864  0.0928  0.0111
  188loPI   C3B 3007   7.381  17.898   8.599 -0.0969  0.0450 -0.1178
  188loPI   C4B 3008   7.504  17.858   8.061  0.0611 -0.4814  0.1088
  189loPI    C1 3009  13.202  10.497  10.982 -0.3452 -0.2478 -0.3917
  189loPI    C2 3010  13.137  10.113  11.071 -0.1277 -0.1700  0.1357
  189loPI    C3 3011  12.916  10.399  11.243  0.1073 -0.0295  0.2086
  189loPI   PO4 3012  13.148  10.505  10.646 -0.0515 -0.4483  0.0830
  189loPI   GL1 3013  12.749  10.359  10.326 -0.2141 -0.2325 -0.0912
  189loPI   GL2 3014  12.947  10.244  10.121  0.0263  0.0640 -0.1312
  189loPI   C1A 3015  12.476  10.437   9.932 -0.2198  0.0759  0.1051
  189loPI   C2A 3016  12.281  10.455   9.516  0.0794 -0.0469  0.1033
  189loPI   C3A 3017  12.291  10.516   9.055 -0.2417 -0.2075 -0.0350
  189loPI   C4A 3018  12.384  10.364   8.718 -0.0345  0.3061  0.1467
  189loPI   C5A 3019  12.419  10.408   8.301 -0.0218  0.0701 -0.1255
  189loPI   C6A 3020  12.482  10.722   8.026 -0.1974 -0.1851  0.1039
  189loPI   C1B 3021  12.865  10.392   9.586 -0.1077  0.1239 -0.0175
  189loPI   C2B 3022  12.878  10.311   9.039 -0.1930 -0.1612  0.1435
  189loPI   C3B 3023  12.927  10.274   8.636 -0.2095 -0.1072  0.1671
  189loPI   C4B 3024  12.929  10.331   8.171 -0.1271 -0.2827 -0.0582
  190loPI    C1 3025  10.506  18.083  10.893 -0.3342 -0.3371 -0.0705
  190loPI    C2 3026  10.541  18.264  11.248  0.1028  0.2329 -0.3873
  190loPI    C3 3027  10.180  18.158  11.112 -0.0751  0.0624  0.1916
  190loPI   PO4 3028  10.759  18.118  10.716 -0.0425  0.0129 -0.0414
  190loPI   GL1 3029  10.839  17.866  10.257 -0.0406 -0.1088 -0.1372
  190loPI   GL2 3030  10.891  18.219  10.224  0.1105 -0.0418  0.1741
  190loPI   C1A 3031  10.831  17.586   9.835  0.0140  0.4379  0.1727
  190loPI   C2A 3032  10.841  17.436   9.412  0.1320  0.3342 -0.3489
  190loPI   C3A 3033  10.737  17.514   8.929 -0.2886 -0.1190  0.1818
  190loPI   C4A 3034  10.985  17.548   8.469 -0.1074  0.1373  0.4128
  190loPI   C5A 3035  10.913  17.750   7.999 -0.1313 -0.1760  0.1476
  190loPI   C6A 3036  11.177  17.818   7.635  0.2475 -0.2292 -0.0323
  190loPI   C1B 3037  10.737  18.089   9.813 -0.0973  0.0017  0.2744
  190loPI   C2B 3038  10.843  18.056   9.473 -0.0381 -0.0161  0.1007
  190loPI   C3B 3039  10.628  17.978   9.035  0.0855  0.1707  0.0230
  190loPI   C4B 3040  10.604  17.887   8.546  0.0002  0.0668 -0.2854
  191loPI    C1 3041  15.129  16.358  10.254  0.0054  0.0003 -0.1907
  191loPI    C2 3042  15.415  16.617  10.361  0.0869 -0.0280 -0.3362
  191loPI    C3 3043  15.396  16.257  10.534 -0.2053  0.1788  0.0795
  191loPI   PO4 3044  15.157  16.301   9.991  0.2132  0.1051 -0.2592
  191loPI   GL1 3045  15.130  16.518   9.695  0.1064  0.0156 -0.1321
  191loPI   GL2 3046  14.885  16.864   9.603  0.1105  0.3041 -0.2314
  191loPI   C1A 3047  14.958  16.472   9.246 -0.0129  0.0556  0.0029
  191loPI   C2A 3048  14.947  16.366   8.747  0.0564 -0.0133 -0.0752
  191loPI   C3A 3049  14.794  16.448   8.319  0.0787  0.2976  0.0941
  191loPI   C4A 3050  14.781  16.445   7.887  0.0596 -0.0111 -0.1924
  191loPI   C5A 3051  14.549  16.637   7.648 -0.0452 -0.0126 -0.0380
  191loPI   C6A 3052  14.573  16.923   7.381 -0.2336  0.2055 -0.2473
  191loPI   C1B 3053  14.893  16.960   9.175  0.0887 -0.1564  0.3810
  191loPI   C2B 3054  14.829  16.872   8.795 -0.1601  0.4055  0.0770
  191loPI   C3B 3055  14.737  16.994   8.345 -0.2466  0.0259  0.1907
  191loPI   C4B 3056  14.609  17.059   7.899  0.2734  0.1528 -0.0518
  192loPI    C1 3057  17.093  14.978  10.782  0.3668 -0.2185 -0.2057
  192loPI    C2 3058  17.333  15.130  11.064  0.0924  0.1637 -0.1691
  192loPI    C3 3059  17.033  14.886  11.167  0.1749  0.0633 -0.1644
  192loPI   PO4 3060  17.172  14.860  10.526  0.1580 -0.1260 -0.1056
  192loPI   GL1 3061  17.185  14.909  10.046  0.1493 -0.0793  0.1370
  192loPI   GL2 3062  17.361  14.598  10.086 -0.0789 -0.0066 -0.3663
  192loPI   C1A 3063  17.199  14.837   9.550  0.0648  0.2778  0.2539
  192loPI   C2A 3064  17.193  14.752   9.125 -0.0065  0.0731  0.0369
  192loPI   C3A 3065  17.182  14.861   8.789 -0.1317  0.1395  0.1991
  192loPI   C4A 3066  17.239  14.710   8.442  0.0090 -0.1628 -0.1991
  192loPI   C5A 3067  17.284  14.565   7.996  0.0152 -0.1291  0.1641
  192loPI   C6A 3068  17.233  14.288   7.673 -0.0888 -0.3220  0.2573
  192loPI   C1B 3069  17.729  14.668   9.728 -0.3069  0.0448 -0.0690
  192loPI   C2B 3070  17.690  14.772   9.387  0.0449 -0.1784  0.2261
  192loPI   C3B 3071  17.704  14.690   8.959 -0.0766  0.0224  0.2696
  192loPI   C4B 3072  17.756  14.673   8.505 -0.1867  0.1032  0.1837
  193loPI    C1 3073  10.434  10.567  10.799  0.0177 -0.4181 -0.3645
  193loPI    C2 3074  10.215  10.280  10.972 -0.0011 -0.0847  0.1905
  193loPI    C3 3075  10.094  10.661  10.989  0.2183  0.0082 -0.2046
  193loPI   PO4 3076  10.379  10.522  10.546  0.0590 -0.0178 -0.2768
  193loPI   GL1 3077  10.381  10.809  10.207 -0.0756  0.2088 -0.3667
  193loPI   GL2 3078  10.608  10.690  10.114  0.2258 -0.1632  0.0983
  193loPI   C1A 3079  10.388  11.027   9.828 -0.0412  0.1198  0.2340
  193loPI   C2A 3080  10.281  11.015   9.425  0.1049  0.0114 -0.0961
  193loPI   C3A 3081  10.255  11.081   9.027 -0.1666 -0.0539  0.2788
  193loPI   C4A 3082  10.268  11.027   8.591 -0.0271 -0.0768 -0.2287
  193loPI   C5A 3083  10.169  10.855   8.237 -0.3214 -0.0036 -0.2169
  193loPI   C6A 3084  10.034  10.895   7.947  0.0469 -0.0784  0.0264
  193loPI   C1B 3085  10.532  10.579   9.648  0.2150 -0.1066  0.0410
  193loPI   C2B 3086  10.372  10.573   9.250  0.0227  0.1106 -0.0696
  193loPI   C3B 3087  10.430  10.547   8.897  0.0390  0.4300  0.2167
  193loPI   C4B 3088  10.385  10.390   8.550 -0.0511  0.2994 -0.1969
  194loPI    C1 3089  12.756   5.820  10.688 -0.2042 -0.1171 -0.1626
  194loPI    C2 3090  12.567   5.984  11.000  0.2395  0.0767  0.0119
  194loPI    C3 3091  12.769   5.642  11.046 -0.1055 -0.1599 -0.1872
  194loPI   PO4 3092  12.568   5.804  10.448  0.2414 -0.2186 -0.1335
  194loPI   GL1 3093  12.386   5.731  10.036 -0.2633  0.4342 -0.0882
  194loPI   GL2 3094  12.754   5.571  10.014  0.0184  0.0216 -0.1385
  194loPI   C1A 3095  12.229   5.701   9.622  0.0205 -0.0143  0.0478
  194loPI   C2A 3096  12.264   5.767   9.239  0.1842  0.0214 -0.2835
  194loPI   C3A 3097  12.279   5.682   8.810 -0.0125 -0.0833  0.0930
  194loPI   C4A 3098  12.445   5.677   8.408 -0.3521  0.1831  0.0360
  194loPI   C5A 3099  12.614   5.647   8.013  0.0814  0.2330 -0.1274
  194loPI   C6A 3100  12.663   5.614   7.615 -0.1363  0.0742 -0.1598
  194loPI   C1B 3101  12.794   5.593   9.646 -0.0264 -0.0798  0.0601
  194loPI   C2B 3102  12.711   5.507   9.220  0.1761 -0.1100 -0.1470
  194loPI   C3B 3103  12.769   5.538   8.769 -0.0262 -0.4793  0.1033
  194loPI   C4B 3104  12.912   5.545   8.364  0.0683  0.4884  0.0618
  195loPI    C1 3105  10.557  15.568  10.712  0.1502 -0.1407  0.0625
  195loPI    C2 3106  10.270  15.444  10.962  0.1238 -0.1018  0.0514
  195loPI    C3 3107  10.548  15.702  11.088  0.0062  0.0563 -0.0093
  195loPI   PO4 3108  10.497  15.616  10.513  0.1791  0.4035 -0.2743
  195loPI   GL1 3109  10.674  15.503  10.166  0.0760  0.0335  0.0383
  195loPI   GL2 3110  10.788  15.733  10.038  0.1873  0.1225 -0.3800
  195loPI   C1A 3111  10.466  15.319   9.827  0.1868  0.3123  0.1513
  195loPI   C2A 3112  10.422  15.230   9.306  0.0936  0.1168 -0.2944
  195loPI   C3A 3113  10.448  15.256   8.866 -0.0671 -0.1660 -0.1868
  195loPI   C4A 3114  10.547  15.174   8.437  0.2423  0.0189 -0.2133
  195loPI   C5A 3115  10.394  14.862   8.118  0.1469  0.0729  0.2395
  195loPI   C6A 3116  10.474  14.666   7.706 -0.3194 -0.1403 -0.2174
  195loPI   C1B 3117  10.787  15.609   9.592  0.0023 -0.3128 -0.0834
  195loPI   C2B 3118  10.801  15.640   9.136  0.2569  0.2505 -0.0017
  195loPI   C3B 3119  10.962  15.576   8.657 -0.0182  0.0463 -0.1085
  195loPI   C4B 3120  10.830  15.626   8.217 -0.0538 -0.1971 -0.0430
  196loPI    C1 3121   2.386  12.908  10.686  0.0849  0.1215  0.0046
  196loPI    C2 3122   2.351  12.572  10.899 -0.1094  0.1495  0.0187
  196loPI    C3 3123   2.699  12.770  10.893  0.0372 -0.1061 -0.0725
  196loPI   PO4 3124   2.338  12.913  10.469  0.1196 -0.0932 -0.3123
  196loPI   GL1 3125   2.387  12.742  10.055  0.0020  0.2278 -0.0297
  196loPI   GL2 3126   2.088  12.888   9.905 -0.0294  0.0167  0.2339
  196loPI   C1A 3127   2.539  12.766   9.681 -0.1228  0.0302 -0.2916
  196loPI   C2A 3128   2.422  12.756   9.274 -0.3032 -0.1175  0.0935
  196loPI   C3A 3129   2.529  12.755   8.911 -0.5221 -0.0877  0.3268
  196loPI   C4A 3130   2.599  12.874   8.622  0.1614  0.1828  0.1365
  196loPI   C5A 3131   2.596  13.069   8.190 -0.0477 -0.1597 -0.0987
  196loPI   C6A 3132   2.363  13.345   7.926 -0.2109  0.0224  0.2426
  196loPI   C1B 3133   2.026  12.905   9.494  0.1520 -0.1615  0.0031
  196loPI   C2B 3134   1.951  12.950   9.082 -0.1068  0.0720 -0.1818
  196loPI   C3B 3135   1.998  12.991   8.655  0.0400 -0.0470  0.0695
  196loPI   C4B 3136   2.094  13.062   8.232 -0.1302 -0.0859 -0.1954
  197loPI    C1 3137   0.684   5.739  10.273  0.0896  0.1607  0.1264
  197loPI    C2 3138   0.541   5.460  10.520 -0.2121  0.1520 -0.0521
  197loPI    C3 3139   0.936   5.494  10.464 -0.1397  0.1378  0.4057
  197loPI   PO4 3140   0.427   5.693  10.017  0.2991 -0.0503  0.2279
  197loPI   GL1 3141   0.279   5.799   9.562  0.1602  0.1403 -0.2499
  197loPI   GL2 3142   0.529   6.006   9.647 -0.0403  0.0575  0.1296
  197loPI   C1A 3143   0.365   5.691   9.162  0.0294 -0.2087 -0.2265
  197loPI   C2A 3144   0.300   5.891   8.871  0.1781  0.0081  0.2900
  197loPI   C3A 3145   0.250   5.896   8.400  0.3212  0.2976 -0.2948
  197loPI   C4A 3146   0.241   6.020   8.054 -0.2575  0.1164  0.5844
  197loPI   C5A 3147   0.100   6.384   7.817  0.2045  0.2088 -0.0197
  197loPI   C6A 3148   0.035   6.836   7.622  0.1696 -0.1397 -0.1713
  197loPI   C1B 3149   0.713   6.162   9.215  0.0852  0.0305 -0.0799
  197loPI   C2B 3150   0.607   6.252   8.806 -0.0663  0.1519  0.1679
  197loPI   C3B 3151   0.687   6.250   8.440  0.2220  0.2540  0.1284
  197loPI   C4B 3152   0.612   6.291   7.968  0.0923  0.2749  0.0926
  198loPI    C1 3153   7.977  11.044  10.514  0.1082  0.1664  0.3798
  198loPI    C2 3154   8.224  11.355  10.473 -0.1433  0.3156 -0.0619
  198loPI    C3 3155   7.845  11.414  10.585 -0.1210  0.1391  0.1113
  198loPI   PO4 3156   7.905  10.975  10.329 -0.2407 -0.0145 -0.0629
  198loPI   GL1 3157   7.746  11.001   9.893  0.0179  0.1667 -0.1489
  198loPI   GL2 3158   8.005  11.317   9.872  0.1793  0.0132 -0.0206
  198loPI   C1A 3159   7.744  10.702   9.597  0.3233  0.0823  0.1823
  198loPI   C2A 3160   7.482  10.652   9.208 -0.2384  0.1430 -0.1433
  198loPI   C3A 3161   7.373  10.598   8.748  0.0233  0.0870 -0.2653
  198loPI   C4A 3162   7.432  10.668   8.294  0.0060  0.0250 -0.1458
  198loPI   C5A 3163   7.597  10.776   7.900 -0.1383 -0.0894  0.0710
  198loPI   C6A 3164   8.003  10.971   7.769  0.1994 -0.3072 -0.2412
  198loPI   C1B 3165   7.851  11.200   9.393  0.0157 -0.0522  0.2259
  198loPI   C2B 3166   7.814  10.988   9.044 -0.3728 -0.0965  0.1148
  198loPI   C3B 3167   7.648  11.002   8.643  0.0537 -0.0581 -0.1074
  198loPI   C4B 3168   7.645  11.219   8.232 -0.1742  0.0756  0.0527
  199loPI    C1 3169   0.669  13.077  10.558 -0.0025  0.0309 -0.3727
  199loPI    C2 3170   0.870  13.377  10.730 -0.0406 -0.3129  0.3078
  199loPI    C3 3171   0.486  13.426  10.627  0.0553 -0.0210  0.0735
  199loPI   PO4 3172   0.712  13.018  10.324  0.2339 -0.0666 -0.0044
  199loPI   GL1 3173   0.638  12.786   9.920 -0.1717 -0.4834 -0.3359
  199loPI   GL2 3174   0.361  12.869   9.949 -0.1341 -0.1835  0.0433
  199loPI   C1A 3175   0.616  12.792   9.441 -0.2707  0.3116 -0.2871
  199loPI   C2A 3176   0.536  12.885   9.086 -0.0029 -0.1587  0.1367
  199loPI   C3A 3177   0.611  12.714   8.708 -0.3707  0.0433  0.1984
  199loPI   C4A 3178   0.785  12.845   8.291  0.2146  0.0600 -0.3609
  199loPI   C5A 3179   1.192  12.693   8.167 -0.1293  0.5178  0.1478
  199loPI   C6A 3180   1.214  12.731   7.713 -0.0389  0.1448  0.0890
  199loPI   C1B 3181   0.222  12.509   9.785 -0.1835  0.1388 -0.3504
  199loPI   C2B 3182   0.263  12.471   9.364  0.3194 -0.2023 -0.3675
  199loPI   C3B 3183   0.285  12.438   8.937 -0.0006  0.0560  0.0604
  199loPI   C4B 3184   0.268  12.391   8.514 -0.1575 -0.3084  0.1451
  200loPI    C1 3185  17.587  10.026  10.940  0.0457 -0.1826  0.0609
  200loPI    C2 3186  17.692   9.765  11.224 -0.2185 -0.0053  0.3268
  200loPI    C3 3187  17.635  10.150  11.317 -0.0458  0.1080 -0.0201
  200loPI   PO4 3188  17.783  10.056  10.753 -0.0043  0.1470  0.4417
  200loPI   GL1 3189  17.548  10.174  10.399  0.2015 -0.4604  0.0540
  200loPI   GL2 3190  17.241  10.146  10.500 -0.3309 -0.3581  0.2125
  200loPI   C1A 3191  17.527  10.008   9.929 -0.2094  0.1600 -0.0080
  200loPI   C2A 3192  17.691   9.978   9.585 -0.0626 -0.1451 -0.0064
  200loPI   C3A 3193  17.737  10.000   9.226 -0.0778  0.3395  0.1586
  200loPI   C4A 3194  17.674   9.931   8.847  0.1966  0.0245 -0.1083
  200loPI   C5A 3195  17.457   9.892   8.399 -0.1392 -0.0749  0.0510
  200loPI   C6A 3196  17.532   9.812   7.888  0.0055 -0.0569  0.0800
  200loPI   C1B 3197  17.084  10.190  10.113 -0.1433  0.2633 -0.1685
  200loPI   C2B 3198  17.144  10.156   9.659 -0.0513  0.0055 -0.1859
  200loPI   C3B 3199  17.173  10.097   9.227  0.0905 -0.0435 -0.1014
  200loPI   C4B 3200  17.159   9.975   8.795 -0.0170  0.2099  0.1523
  201loPI    C1 3201   2.668   8.214  10.554  0.4062 -0.0038  0.0383
  201loPI    C2 3202   2.477   8.355  10.875 -0.0118  0.4781 -0.4033
  201loPI    C3 3203   2.876   8.381  10.852  0.0868 -0.0743  0.3065
  201loPI   PO4 3204   2.489   8.151  10.407  0.3772  0.2499 -0.2942
  201loPI   GL1 3205   2.636   7.969  10.104 -0.2792  0.1417 -0.1988
  201loPI   GL2 3206   2.467   7.666   9.981 -0.2383 -0.0655  0.1379
  201loPI   C1A 3207   2.570   8.032   9.672  0.1175  0.0624 -0.2459
  201loPI   C2A 3208   2.519   8.202   9.301  0.1299 -0.2519  0.5825
  201loPI   C3A 3209   2.663   8.127   8.905 -0.1149 -0.3297  0.0916
  201loPI   C4A 3210   2.505   8.063   8.421  0.0096 -0.2128  0.2972
  201loPI   C5A 3211   2.672   7.911   8.053 -0.0410  0.0199 -0.1578
  201loPI   C6A 3212   2.675   8.030   7.567  0.0008 -0.1134 -0.5117
  201loPI   C1B 3213   2.648   7.594   9.487  0.2111 -0.1347 -0.1333
  201loPI   C2B 3214   2.787   7.620   9.071 -0.3030  0.1157  0.2643
  201loPI   C3B 3215   2.654   7.636   8.775  0.2321 -0.0749 -0.3900
  201loPI   C4B 3216   2.618   7.544   8.401  0.3551 -0.2147  0.1287
  202loPI    C1 3217   1.292  14.438  10.483 -0.3188 -0.1121 -0.0609
  202loPI    C2 3218   1.212  14.099  10.680 -0.2757 -0.0775  0.0166
  202loPI    C3 3219   1.281  14.436  10.883  0.0131 -0.0943 -0.0495
  202loPI   PO4 3220   1.121  14.439  10.226 -0.2741  0.0150  0.0678
  202loPI   GL1 3221   1.126  14.498   9.845 -0.1180  0.0321 -0.4019
  202loPI   GL2 3222   1.275  14.725   9.792 -0.0715  0.0488 -0.1105
  202loPI   C1A 3223   1.040  14.495   9.380 -0.2322  0.1495 -0.1503
  202loPI   C2A 3224   1.015  14.545   8.922  0.1817  0.0747  0.1191
  202loPI   C3A 3225   1.092  14.610   8.527 -0.0469 -0.0821  0.3015
  202loPI   C4A 3226   1.148  14.575   8.176 -0.1948 -0.0194  0.2423
  202loPI   C5A 3227   1.414  14.868   7.848  0.0010  0.0372 -0.0891
  202loPI   C6A 3228   1.718  14.965   7.564 -0.1596  0.4019  0.2456
  202loPI   C1B 3229   1.362  14.858   9.367  0.1067 -0.0388  0.2049
  202loPI   C2B 3230   1.503  14.985   9.082 -0.0733  0.3454  0.0903
  202loPI   C3B 3231   1.615  15.132   8.666  0.0560  0.1748 -0.5316
  202loPI   C4B 3232   1.449  15.018   8.315  0.2528  0.0361 -0.3371
  203loPI    C1 3233   9.691   4.477  10.828 -0.0845  0.0856  0.0459
  203loPI    C2 3234  10.077   4.557  10.755 -0.0244 -0.1170  0.1332
  203loPI    C3 3235   9.968   4.403  11.108 -0.2041  0.0679  0.1603
  203loPI   PO4 3236   9.609   4.620  10.528 -0.0069 -0.0103 -0.2415
  203loPI   GL1 3237   9.944   4.726  10.292  0.0042  0.0191  0.0783
  203loPI   GL2 3238  10.246   4.738  10.195  0.1217 -0.0652  0.1861
  203loPI   C1A 3239  10.062   4.389   9.934  0.0576 -0.1109 -0.2739
  203loPI   C2A 3240  10.256   4.394   9.491  0.2212 -0.1055  0.2116
  203loPI   C3A 3241  10.257   4.344   9.060  0.3189 -0.1370 -0.1958
  203loPI   C4A 3242  10.294   4.350   8.602 -0.2513 -0.0857 -0.0675
  203loPI   C5A 3243  10.313   4.421   8.198  0.4337 -0.1991 -0.4248
  203loPI   C6A 3244  10.475   4.515   7.789  0.2419  0.1863 -0.1264
  203loPI   C1B 3245  10.003   4.827   9.740  0.1480  0.1831 -0.0075
  203loPI   C2B 3246  10.068   4.858   9.351  0.0683  0.0557  0.0379
  203loPI   C3B 3247  10.162   4.784   8.933 -0.0404 -0.0327  0.3133
  203loPI   C4B 3248  10.136   4.853   8.578 -0.1523 -0.1367 -0.1853
  204loPI    C1 3249   6.265  15.325  10.867  0.2084  0.0681 -0.1476
  204loPI    C2 3250   6.421  15.156  11.194 -0.1444  0.1065  0.0466
  204loPI    C3 3251   6.439  15.553  11.146 -0.0225  0.0934 -0.0216
  204loPI   PO4 3252   6.346  15.130  10.654 -0.1926  0.1847  0.0130
  204loPI   GL1 3253   6.151  15.105  10.303  0.2872  0.3835 -0.1452
  204loPI   GL2 3254   5.818  15.007  10.272 -0.0007  0.0773  0.3908
  204loPI   C1A 3255   6.262  14.956   9.901  0.3840  0.0552 -0.1332
  204loPI   C2A 3256   6.211  14.800   9.509 -0.0281  0.1639  0.0200
  204loPI   C3A 3257   6.255  14.754   9.095 -0.1585 -0.0862  0.2339
  204loPI   C4A 3258   6.318  14.717   8.649  0.1231 -0.1988  0.2522
  204loPI   C5A 3259   6.247  14.556   8.230 -0.1158  0.2070 -0.2248
  204loPI   C6A 3260   6.208  14.256   7.913 -0.2087  0.1273 -0.0908
  204loPI   C1B 3261   5.782  15.073   9.866  0.3879 -0.0329  0.0351
  204loPI   C2B 3262   5.628  14.832   9.481  0.0257 -0.0828 -0.2031
  204loPI   C3B 3263   5.757  14.915   9.105 -0.1247  0.2458  0.2720
  204loPI   C4B 3264   5.769  14.960   8.636 -0.0093 -0.0130 -0.1415
  205loPI    C1 3265   6.013   2.345  10.387  0.0885 -0.2310 -0.1358
  205loPI    C2 3266   6.179   2.095  10.651  0.1830 -0.1057 -0.0758
  205loPI    C3 3267   6.009   2.435  10.776  0.1686 -0.0779 -0.1693
  205loPI   PO4 3268   5.911   2.136  10.193  0.1862  0.0663 -0.3411
  205loPI   GL1 3269   5.915   1.726   9.934  0.1305  0.1521 -0.2372
  205loPI   GL2 3270   6.183   1.511   9.944 -0.1947  0.1021  0.0269
  205loPI   C1A 3271   6.006   2.061   9.590  0.1055 -0.0039 -0.2397
  205loPI   C2A 3272   6.024   2.154   9.114 -0.1315  0.2732 -0.2529
  205loPI   C3A 3273   6.189   2.014   8.717  0.4349 -0.1984  0.0218
  205loPI   C4A 3274   6.243   2.003   8.300 -0.2065  0.2286 -0.0563
  205loPI   C5A 3275   6.098   1.911   7.935 -0.1244 -0.1814  0.0061
  205loPI   C6A 3276   5.999   2.141   7.451 -0.0518 -0.1252 -0.0776
  205loPI   C1B 3277   6.128   1.551   9.510  0.0300 -0.2486 -0.0656
  205loPI   C2B 3278   6.180   1.652   9.098 -0.0623  0.0061 -0.1068
  205loPI   C3B 3279   6.327   1.525   8.655 -0.0410  0.0168  0.0471
  205loPI   C4B 3280   6.284   1.487   8.272  0.1676 -0.0230  0.2395
  206loPI    C1 3281   6.310  16.829  10.295  0.0255 -0.3091 -0.0830
  206loPI    C2 3282   6.707  16.820  10.348  0.0383  0.2701 -0.0125
  206loPI    C3 3283   6.466  16.910  10.654 -0.1453  0.0176 -0.0788
  206loPI   PO4 3284   6.189  16.583  10.255 -0.0418 -0.0323 -0.3590
  206loPI   GL1 3285   6.116  16.308   9.890 -0.0297  0.1134  0.2174
  206loPI   GL2 3286   6.296  16.158   9.653  0.2348  0.0727  0.1219
  206loPI   C1A 3287   5.859  16.447   9.557 -0.0723  0.0605  0.0479
  206loPI   C2A 3288   5.897  16.462   9.030 -0.2028  0.3939  0.0637
  206loPI   C3A 3289   5.922  16.381   8.541  0.1175  0.1363  0.0369
  206loPI   C4A 3290   5.888  16.089   8.168  0.1211 -0.1761 -0.0853
  206loPI   C5A 3291   5.479  15.905   8.045  0.1986  0.0284  0.2928
  206loPI   C6A 3292   5.082  15.755   8.002 -0.1080  0.4075 -0.3840
  206loPI   C1B 3293   6.255  16.092   9.288 -0.1111 -0.0971 -0.0154
  206loPI   C2B 3294   6.270  16.089   8.818  0.4407  0.1117  0.1424
  206loPI   C3B 3295   6.386  16.063   8.380  0.1804  0.3134 -0.0378
  206loPI   C4B 3296   6.629  15.907   8.041 -0.1125 -0.4451 -0.2916
  207loPI    C1 3297   0.492   0.373   9.803  0.1713  0.2374 -0.0883
  207loPI    C2 3298   0.279   0.484  10.123 -0.0667  0.0857 -0.1918
  207loPI    C3 3299   0.568   0.210  10.160 -0.1468  0.0104 -0.1207
  207loPI   PO4 3300   0.531   0.599   9.638  0.1842 -0.3634 -0.0279
  207loPI   GL1 3301   0.360   0.892   9.389  0.0136 -0.0429  0.0825
  207loPI   GL2 3302   0.201   0.632   9.186 -0.0127 -0.0195  0.0504
  207loPI   C1A 3303   0.405   1.203   9.049  0.2329  0.1691 -0.1092
  207loPI   C2A 3304   0.098   1.231   8.716 -0.1623  0.4479  0.0121
  207loPI   C3A 3305   0.109   1.176   8.263 -0.2363 -0.0353  0.0783
  207loPI   C4A 3306  -0.050   1.258   7.814  0.0178 -0.0885 -0.0253
  207loPI   C5A 3307  -0.343   1.458   7.657  0.3096 -0.0518 -0.1536
  207loPI   C6A 3308  -0.557   1.727   7.369  0.1113  0.0080 -0.1518
  207loPI   C1B 3309   0.184   0.606   8.773 -0.2928 -0.0044  0.2145
  207loPI   C2B 3310   0.234   0.587   8.249  0.1051 -0.1718 -0.1135
  207loPI   C3B 3311   0.166   0.752   7.867  0.3982 -0.1437  0.2294
  207loPI   C4B 3312   0.143   0.628   7.431  0.0070  0.0973 -0.0300
  208loPI    C1 3313   7.185   6.973  10.988  0.1939 -0.0455  0.0182
  208loPI    C2 3314   7.459   6.754  11.180 -0.0279 -0.3017  0.0487
  208loPI    C3 3315   7.078   6.632  11.168 -0.1192 -0.0117 -0.0970
  208loPI   PO4 3316   7.299   7.011  10.723  0.2627  0.0874 -0.2695
  208loPI   GL1 3317   6.970   6.973  10.346  0.1820 -0.0475 -0.0414
  208loPI   GL2 3318   7.049   7.329  10.443  0.0829 -0.0865  0.0527
  208loPI   C1A 3319   7.041   7.003   9.934 -0.1406 -0.2937 -0.3202
  208loPI   C2A 3320   7.083   7.108   9.501  0.1125  0.1596 -0.2290
  208loPI   C3A 3321   7.209   7.018   9.121 -0.1614  0.0861  0.5199
  208loPI   C4A 3322   7.254   7.124   8.640  0.1059  0.0193  0.1991
  208loPI   C5A 3323   7.366   7.311   8.311 -0.1168 -0.0530  0.0392
  208loPI   C6A 3324   7.680   7.408   8.256 -0.0431  0.0895 -0.1219
  208loPI   C1B 3325   7.428   7.380  10.131 -0.2149 -0.0742  0.4261
  208loPI   C2B 3326   7.501   7.417   9.712 -0.0187  0.2035  0.1807
  208loPI   C3B 3327   7.484   7.491   9.255  0.1184 -0.0489  0.1490
  208loPI   C4B 3328   7.619   7.353   8.863  0.3544  0.1881  0.0491
  209loPI    C1 3329   3.931  10.457  10.727  0.2456 -0.2935 -0.1331
  209loPI    C2 3330   4.242  10.675  10.851 -0.0070  0.1224 -0.2131
  209loPI    C3 3331   4.028  10.465  11.115  0.1106  0.1394 -0.1031
  209loPI   PO4 3332   4.032  10.354  10.551  0.2604 -0.2720 -0.0443
  209loPI   GL1 3333   4.191  10.509  10.100  0.0524  0.1267  0.0073
  209loPI   GL2 3334   3.795  10.488  10.150  0.1733 -0.1107  0.1396
  209loPI   C1A 3335   4.344  10.622   9.648 -0.0484  0.1726  0.0924
  209loPI   C2A 3336   4.213  10.614   9.221  0.0754 -0.2862 -0.3121
  209loPI   C3A 3337   4.119  10.574   8.740 -0.2864 -0.0201 -0.0585
  209loPI   C4A 3338   4.147  10.677   8.359  0.3100  0.0276  0.0532
  209loPI   C5A 3339   3.895  10.517   7.965 -0.3401  0.0197 -0.1778
  209loPI   C6A 3340   3.572  10.235   8.110 -0.1286 -0.0600  0.1372
  209loPI   C1B 3341   3.859  10.594   9.704  0.0139  0.3741  0.0763
  209loPI   C2B 3342   3.689  10.646   9.286 -0.3738  0.1814 -0.0685
  209loPI   C3B 3343   3.672  10.584   8.834  0.5661 -0.1856  0.0551
  209loPI   C4B 3344   3.643  10.681   8.409  0.0624  0.5421  0.1460
  210loPI    C1 3345  14.119  14.293  10.433  0.3027  0.1391  0.1497
  210loPI    C2 3346  14.028  14.529  10.743 -0.1954  0.0389  0.0878
  210loPI    C3 3347  14.155  14.155  10.806  0.1917  0.1801  0.1758
  210loPI   PO4 3348  14.106  14.476  10.281  0.0835  0.0908 -0.0294
  210loPI   GL1 3349  14.087  14.608   9.868 -0.1698 -0.2569 -0.1871
  210loPI   GL2 3350  14.147  14.916   9.630  0.1430 -0.0256 -0.1717
  210loPI   C1A 3351  13.944  14.515   9.465  0.0156  0.0313  0.0784
  210loPI   C2A 3352  14.079  14.430   9.058 -0.0650 -0.1458  0.2125
  210loPI   C3A 3353  14.200  14.294   8.650  0.5040 -0.2588 -0.1127
  210loPI   C4A 3354  14.135  14.170   8.159 -0.3480  0.2231  0.0808
  210loPI   C5A 3355  14.158  14.018   7.792  0.0111  0.1175  0.1715
  210loPI   C6A 3356  14.484  13.809   7.572  0.3895 -0.0183  0.1279
  210loPI   C1B 3357  14.424  14.705   9.382  0.1896 -0.0285 -0.2401
  210loPI   C2B 3358  14.484  14.717   9.048 -0.0201 -0.0160  0.0172
  210loPI   C3B 3359  14.490  14.728   8.566 -0.0663  0.1395 -0.0588
  210loPI   C4B 3360  14.448  14.597   8.121 -0.0333 -0.3000 -0.1045
  211loPI    C1 3361   6.105   8.116  10.925 -0.0673  0.0327  0.0506
  211loPI    C2 3362   5.745   7.955  10.859 -0.1111  0.1763 -0.0693
  211loPI    C3 3363   5.809   8.176  11.187 -0.0482 -0.0882  0.1005
  211loPI   PO4 3364   6.207   7.997  10.656  0.0023  0.4604  0.3273
  211loPI   GL1 3365   6.190   7.792  10.342 -0.4740  0.0163  0.3605
  211loPI   GL2 3366   6.467   7.803  10.097  0.1212 -0.1547 -0.3512
  211loPI   C1A 3367   6.175   7.461   9.997 -0.0725  0.1518 -0.1851
  211loPI   C2A 3368   6.111   7.262   9.475  0.1967 -0.1099 -0.2893
  211loPI   C3A 3369   6.148   7.325   9.056 -0.4167 -0.0332  0.2503
  211loPI   C4A 3370   6.143   7.261   8.605 -0.0317 -0.1356 -0.1207
  211loPI   C5A 3371   6.192   7.246   8.153  0.0663  0.0277  0.0083
  211loPI   C6A 3372   6.081   6.922   7.980 -0.1968  0.4933  0.0566
  211loPI   C1B 3373   6.526   7.669   9.627  0.1529  0.0341  0.1434
  211loPI   C2B 3374   6.490   7.696   9.170  0.0185 -0.2193 -0.0095
  211loPI   C3B 3375   6.487   7.605   8.762 -0.0978  0.2201  0.0194
  211loPI   C4B 3376   6.500   7.638   8.335 -0.3742  0.1417 -0.2240
  212loPI    C1 3377  13.363  11.667  10.561 -0.2184  0.2661 -0.1337
  212loPI    C2 3378  13.281  11.460  10.893  0.2920  0.0443 -0.1362
  212loPI    C3 3379  13.235  11.857  10.888  0.1368  0.0326  0.1486
  212loPI   PO4 3380  13.130  11.474  10.348  0.0644 -0.0680 -0.0508
  212loPI   GL1 3381  12.856  11.280  10.090  0.2179 -0.1255 -0.1612
  212loPI   GL2 3382  12.667  11.048  10.098 -0.1734 -0.3182 -0.0595
  212loPI   C1A 3383  12.989  11.204   9.622  0.0494 -0.2342  0.0916
  212loPI   C2A 3384  13.082  11.144   9.149  0.2145  0.2539 -0.1613
  212loPI   C3A 3385  13.134  11.057   8.718  0.0661 -0.3537  0.2402
  212loPI   C4A 3386  13.225  11.045   8.244 -0.0292 -0.0143 -0.0638
  212loPI   C5A 3387  13.406  11.132   7.949 -0.0517 -0.1154  0.0605
  212loPI   C6A 3388  13.625  11.509   7.863  0.0357  0.0259  0.0881
  212loPI   C1B 3389  12.630  10.882   9.723  0.0549  0.2013 -0.0107
  212loPI   C2B 3390  12.580  10.841   9.270  0.0501  0.0812  0.1303
  212loPI   C3B 3391  12.746  10.763   8.857  0.1463  0.2609 -0.3445
  212loPI   C4B 3392  12.860  10.775   8.443  0.0040  0.2931 -0.0224
  213loPI    C1 3393   4.674   1.391  10.261  0.0168  0.1489  0.1575
  213loPI    C2 3394   4.367   1.355  10.514  0.0105  0.0524  0.1366
  213loPI    C3 3395   4.669   1.603  10.600  0.0096  0.0182  0.2395
  213loPI   PO4 3396   4.750   1.418   9.906 -0.1088 -0.1838 -0.2818
  213loPI   GL1 3397   4.505   1.340   9.600 -0.0074  0.0495  0.3039
  213loPI   GL2 3398   4.657   1.222   9.445 -0.3046 -0.0385  0.0172
  213loPI   C1A 3399   4.396   1.564   9.197 -0.0147 -0.1264 -0.0470
  213loPI   C2A 3400   4.573   1.679   8.793 -0.2299 -0.2745 -0.1851
  213loPI   C3A 3401   4.736   1.890   8.406 -0.1419 -0.0325 -0.1716
  213loPI   C4A 3402   4.665   2.145   8.044  0.4084 -0.3191 -0.0826
  213loPI   C5A 3403   4.505   2.359   7.585  0.3641  0.1106  0.0049
  213loPI   C6A 3404   4.407   2.768   7.326  0.1451  0.1462  0.0262
  213loPI   C1B 3405   4.803   1.288   9.058  0.2108  0.5156 -0.0156
  213loPI   C2B 3406   4.741   1.169   8.635 -0.0829  0.2425 -0.0353
  213loPI   C3B 3407   4.860   1.473   8.318  0.0374 -0.1117 -0.1676
  213loPI   C4B 3408   4.849   1.573   7.869 -0.1257  0.1220  0.2242
  214loPI    C1 3409   2.636   1.392  10.370 -0.2166  0.0314  0.0167
  214loPI    C2 3410   2.909   1.189  10.581 -0.0321  0.2123 -0.0442
  214loPI    C3 3411   2.520   1.115  10.634  0.0201  0.1048  0.2022
  214loPI   PO4 3412   2.670   1.344  10.153  0.3166 -0.1609 -0.1199
  214loPI   GL1 3413   2.869   1.123   9.824 -0.3658 -0.0993  0.1469
  214loPI   GL2 3414   3.137   1.316   9.732  0.0913  0.0909  0.0338
  214loPI   C1A 3415   2.798   1.122   9.338  0.3087  0.0588  0.0998
  214loPI   C2A 3416   2.878   1.203   8.882 -0.0040 -0.0617 -0.1520
  214loPI   C3A 3417   3.131   1.177   8.435  0.0492  0.1071  0.0172
  214loPI   C4A 3418   3.269   1.252   8.036  0.2320 -0.1132  0.1825
  214loPI   C5A 3419   3.399   1.158   7.616 -0.4343 -0.3041  0.1156
  214loPI   C6A 3420   3.791   1.233   7.416 -0.1681  0.0711  0.3392
  214loPI   C1B 3421   3.253   1.178   9.220  0.0099 -0.2903  0.1532
  214loPI   C2B 3422   3.528   1.159   8.812 -0.0105 -0.0044 -0.0348
  214loPI   C3B 3423   3.559   0.894   8.381  0.0151  0.0156  0.0155
  214loPI   C4B 3424   3.685   0.893   7.970  0.1112 -0.0003 -0.1533
  215loPI    C1 3425  16.192  12.045  10.768 -0.0278  0.0017  0.3077
  215loPI    C2 3426  15.924  11.791  10.614  0.0148  0.0997  0.0690
  215loPI    C3 3427  15.924  11.867  11.006  0.0721 -0.3534  0.1624
  215loPI   PO4 3428  16.366  12.061  10.578 -0.3841 -0.1528 -0.3034
  215loPI   GL1 3429  16.379  12.268  10.336 -0.0973  0.1353  0.0566
  215loPI   GL2 3430  16.297  12.575  10.298 -0.1755 -0.0025 -0.0102
  215loPI   C1A 3431  16.459  12.084   9.955 -0.1580 -0.1654  0.1984
  215loPI   C2A 3432  16.544  12.135   9.543 -0.2064 -0.0980  0.1563
  215loPI   C3A 3433  16.591  12.038   9.046 -0.3460  0.3267 -0.1767
  215loPI   C4A 3434  16.571  12.090   8.634  0.2141 -0.1047  0.2688
  215loPI   C5A 3435  16.622  12.189   8.157 -0.4065 -0.3075 -0.2634
  215loPI   C6A 3436  16.962  12.149   7.885 -0.1682  0.2200 -0.1104
  215loPI   C1B 3437  16.327  12.575   9.842 -0.1760 -0.2212  0.2137
  215loPI   C2B 3438  16.432  12.765   9.400  0.1241 -0.1884 -0.0364
  215loPI   C3B 3439  16.389  12.695   8.910 -0.1073 -0.0490 -0.2318
  215loPI   C4B 3440  16.394  12.565   8.531  0.2103  0.0893 -0.1432
  216loPI    C1 3441   5.433  11.620  10.604 -0.1019  0.0330 -0.0496
  216loPI    C2 3442   5.745  11.442  10.781  0.0912  0.1813 -0.2362
  216loPI    C3 3443   5.409  11.508  10.987  0.1598 -0.0367 -0.0515
  216loPI   PO4 3444   5.352  11.532  10.381 -0.2623 -0.1718 -0.3600
  216loPI   GL1 3445   5.465  11.240   9.989 -0.1190  0.0313 -0.0556
  216loPI   GL2 3446   5.754  11.421  10.107 -0.1881 -0.1355 -0.0349
  216loPI   C1A 3447   5.499  11.197   9.588 -0.2169  0.0306  0.0921
  216loPI   C2A 3448   5.484  11.273   9.137 -0.1703  0.2991  0.2602
  216loPI   C3A 3449   5.314  11.267   8.685  0.2070  0.1469  0.2821
  216loPI   C4A 3450   5.430  11.176   8.266 -0.0442  0.0263  0.1124
  216loPI   C5A 3451   5.146  11.302   7.923 -0.1015  0.0669  0.3190
  216loPI   C6A 3452   4.812  11.603   7.794 -0.3608 -0.1801 -0.0473
  216loPI   C1B 3453   5.842  11.552   9.654 -0.0043 -0.1083  0.0949
  216loPI   C2B 3454   5.799  11.704   9.269  0.0543 -0.2197 -0.2736
  216loPI   C3B 3455   5.783  11.595   8.887  0.3158 -0.2499 -0.1906
  216loPI   C4B 3456   5.771  11.508   8.473  0.0229  0.1937  0.1148
  217loPI    C1 3457  17.784   8.646  10.768 -0.2321  0.0274  0.2273
  217loPI    C2 3458  17.494   8.501  11.002 -0.0719 -0.0484  0.3808
  217loPI    C3 3459  17.788   8.720  11.161 -0.0854  0.0932  0.2140
  217loPI   PO4 3460  17.797   8.778  10.453  0.5045  0.3302  0.0598
  217loPI   GL1 3461  17.570   8.543  10.182 -0.1538  0.2050  0.0982
  217loPI   GL2 3462  17.361   8.250  10.230 -0.1457 -0.2492 -0.0469
  217loPI   C1A 3463  17.558   8.374   9.705 -0.2101 -0.0985 -0.2571
  217loPI   C2A 3464  17.682   8.344   9.304  0.1831 -0.2196  0.1368
  217loPI   C3A 3465  17.562   8.478   8.857  0.1871  0.0157  0.3564
  217loPI   C4A 3466  17.554   8.587   8.370  0.1735  0.2787  0.0876
  217loPI   C5A 3467  17.650   8.547   7.983  0.1436 -0.2054  0.1488
  217loPI   C6A 3468  17.631   8.540   7.539 -0.4445  0.0306  0.2376
  217loPI   C1B 3469  17.147   8.484   9.908  0.1145  0.0756 -0.2097
  217loPI   C2B 3470  17.134   8.639   9.521 -0.2798  0.2651 -0.0057
  217loPI   C3B 3471  17.066   8.707   9.144  0.0597  0.1057 -0.1096
  217loPI   C4B 3472  17.084   8.628   8.655 -0.1817 -0.0712 -0.2915
  218loPI    C1 3473   6.180   1.065  10.247  0.1013  0.1576  0.0414
  218loPI    C2 3474   6.133   0.682  10.141  0.0083  0.0832  0.3421
  218loPI    C3 3475   6.491   0.815  10.259  0.0535  0.1040  0.1839
  218loPI   PO4 3476   5.865   1.159  10.175  0.1056  0.1046  0.0392
  218loPI   GL1 3477   5.775   0.929   9.738  0.0269  0.0802 -0.2412
  218loPI   GL2 3478   6.106   1.088   9.679 -0.1223  0.5482 -0.2009
  218loPI   C1A 3479   5.823   1.145   9.302 -0.0615  0.0736  0.2258
  218loPI   C2A 3480   6.045   1.166   8.905 -0.0217 -0.1641  0.1472
  218loPI   C3A 3481   5.972   1.139   8.559  0.2147 -0.0545  0.3637
  218loPI   C4A 3482   5.916   0.987   8.223  0.0713 -0.0280  0.3927
  218loPI   C5A 3483   5.732   1.007   7.868 -0.1299 -0.3471  0.1451
  218loPI   C6A 3484   5.552   0.878   7.569 -0.0722 -0.2574  0.1482
  218loPI   C1B 3485   6.302   1.075   9.303  0.1431 -0.2703 -0.0417
  218loPI   C2B 3486   6.526   1.074   8.812 -0.0475 -0.1301  0.3698
  218loPI   C3B 3487   6.570   1.023   8.305 -0.4082  0.0681  0.1888
  218loPI   C4B 3488   6.414   0.906   7.909 -0.4615  0.1340  0.1367
  219loPI    C1 3489  14.257  11.364  10.798  0.0097 -0.0983 -0.1035
  219loPI    C2 3490  14.400  11.669  11.014  0.1820 -0.2047 -0.0656
  219loPI    C3 3491  14.102  11.445  11.158 -0.0127  0.0052 -0.1362
  219loPI   PO4 3492  14.187  11.414  10.571  0.0870 -0.1337 -0.0283
  219loPI   GL1 3493  14.224  11.606  10.148 -0.0003  0.1768  0.0515
  219loPI   GL2 3494  14.109  11.340  10.008  0.2349  0.0868 -0.1719
  219loPI   C1A 3495  14.217  11.779   9.677  0.2783 -0.2683  0.0840
  219loPI   C2A 3496  14.347  11.827   9.286  0.2051  0.0653 -0.1176
  219loPI   C3A 3497  14.537  11.737   8.966  0.2156  0.1195 -0.2907
  219loPI   C4A 3498  14.850  11.738   8.677  0.0986 -0.0141 -0.2069
  219loPI   C5A 3499  14.820  11.847   8.284  0.1688  0.1289 -0.1767
  219loPI   C6A 3500  14.628  12.002   7.803 -0.0659 -0.2699 -0.1088
  219loPI   C1B 3501  13.891  11.340   9.727 -0.0134  0.2585 -0.1776
  219loPI   C2B 3502  13.887  11.325   9.305 -0.1161  0.2402 -0.1044
  219loPI   C3B 3503  13.970  11.267   8.863  0.1958  0.1389  0.0119
  219loPI   C4B 3504  14.086  11.308   8.470 -0.0825  0.0053 -0.1500
  220loPI    C1 3505   7.577  11.878  10.580 -0.1572  0.0518  0.1496
  220loPI    C2 3506   7.826  12.175  10.483 -0.0972 -0.0343  0.0365
  220loPI    C3 3507   7.772  12.076  10.867 -0.1150  0.1196  0.0745
  220loPI   PO4 3508   7.572  11.777  10.362 -0.1731 -0.2619  0.0166
  220loPI   GL1 3509   7.625  11.597   9.944 -0.0129  0.0681 -0.3065
  220loPI   GL2 3510   7.307  11.738   9.865 -0.0770  0.0335  0.0524
  220loPI   C1A 3511   7.619  11.582   9.502 -0.0610  0.1273 -0.4690
  220loPI   C2A 3512   7.758  11.541   9.026  0.1229  0.2173 -0.0202
  220loPI   C3A 3513   7.608  11.513   8.611 -0.1311  0.1263 -0.0638
  220loPI   C4A 3514   7.611  11.804   8.145  0.0972 -0.0987  0.2201
  220loPI   C5A 3515   7.400  12.116   7.984  0.0026  0.0193 -0.0128
  220loPI   C6A 3516   7.542  12.482   8.021  0.0331 -0.0500 -0.2190
  220loPI   C1B 3517   7.202  11.813   9.464 -0.2159 -0.1081 -0.0639
  220loPI   C2B 3518   7.095  11.801   9.010 -0.3477 -0.2486 -0.0834
  220loPI   C3B 3519   7.141  11.880   8.536  0.0849 -0.0595  0.3126
  220loPI   C4B 3520   7.097  11.649   8.232 -0.0260  0.2688 -0.1747
  221loPI    C1 3521  18.001  18.081   9.981  0.0199  0.2580 -0.0892
  221loPI    C2 3522  18.149  18.247  10.314 -0.0715  0.0583  0.0526
  221loPI    C3 3523  18.146  17.849  10.273  0.0207  0.0846 -0.2267
  221loPI   PO4 3524  18.060  18.273   9.836 -0.2225 -0.0813 -0.0310
  221loPI   GL1 3525  18.006  18.118   9.459  0.1594 -0.0209  0.1336
  221loPI   GL2 3526  17.974  18.442   9.252  0.0463  0.1640  0.1963
  221loPI   C1A 3527  17.843  17.981   9.045  0.3095  0.2929 -0.0656
  221loPI   C2A 3528  17.933  17.966   8.639 -0.1691  0.0193 -0.1483
  221loPI   C3A 3529  17.869  17.884   8.249 -0.1334  0.4658  0.0814
  221loPI   C4A 3530  17.849  17.994   7.860  0.0077  0.2296  0.2255
  221loPI   C5A 3531  17.775  17.951   7.482 -0.1585 -0.2515  0.2824
  221loPI   C6A 3532  18.094  18.031   7.376 -0.1665  0.2988  0.0593
  221loPI   C1B 3533  17.743  18.548   8.847 -0.1168 -0.2029 -0.0895
  221loPI   C2B 3534  17.770  18.476   8.412  0.2078 -0.0511  0.1190
  221loPI   C3B 3535  17.659  18.414   7.932  0.0558 -0.1889  0.2352
  221loPI   C4B 3536  17.343  18.293   7.648 -0.0050 -0.0930 -0.1926
  222loPI    C1 3537  11.709   9.256  10.785 -0.0962  0.0793  0.1050
  222loPI    C2 3538  11.773   9.634  10.899 -0.0145  0.0305  0.2220
  222loPI    C3 3539  11.586   9.379  11.145 -0.2264  0.0411  0.0746
  222loPI   PO4 3540  11.662   9.293  10.519  0.1429  0.0617 -0.1216
  222loPI   GL1 3541  11.477   9.149  10.173  0.1592 -0.0154  0.1257
  222loPI   GL2 3542  11.269   9.406  10.070 -0.3209 -0.3247 -0.0590
  222loPI   C1A 3543  11.687   9.162   9.769 -0.1318  0.0212 -0.0225
  222loPI   C2A 3544  11.687   9.204   9.321  0.1532  0.3991 -0.2122
  222loPI   C3A 3545  11.868   9.202   8.918  0.1717 -0.0465  0.0888
  222loPI   C4A 3546  11.849   9.243   8.463 -0.2310  0.2466  0.1791
  222loPI   C5A 3547  12.055   9.186   8.056 -0.0477  0.2302  0.0467
  222loPI   C6A 3548  12.083   9.242   7.596  0.1520  0.0948  0.2780
  222loPI   C1B 3549  11.272   9.424   9.559  0.1813  0.0288  0.0066
  222loPI   C2B 3550  11.309   9.378   9.073 -0.3217  0.2289 -0.2544
  222loPI   C3B 3551  11.441   9.359   8.743 -0.0346  0.3182  0.3164
  222loPI   C4B 3552  11.372   9.408   8.365  0.0115  0.2147 -0.1338
  223loPI    C1 3553   8.510  11.693  10.670 -0.1433 -0.0022 -0.0043
  223loPI    C2 3554   8.134  11.817  10.615 -0.0904  0.1650  0.0061
  223loPI    C3 3555   8.226  11.592  10.933 -0.1727  0.1614  0.0276
  223loPI   PO4 3556   8.578  11.732  10.362 -0.2551 -0.0495  0.1427
  223loPI   GL1 3557   8.635  11.818   9.932  0.2288 -0.1249 -0.0465
  223loPI   GL2 3558   8.530  11.520   9.915  0.0816 -0.0153 -0.3245
  223loPI   C1A 3559   8.586  11.823   9.507 -0.0785  0.1161  0.0444
  223loPI   C2A 3560   8.570  11.826   8.994 -0.3246 -0.3948  0.2826
  223loPI   C3A 3561   8.562  11.868   8.618 -0.0621 -0.2060  0.2138
  223loPI   C4A 3562   8.533  11.929   8.172  0.0183  0.1263 -0.2306
  223loPI   C5A 3563   8.922  11.996   8.010  0.3218 -0.1299 -0.1470
  223loPI   C6A 3564   9.112  12.333   7.903 -0.1820 -0.2501  0.1400
  223loPI   C1B 3565   8.806  11.395   9.599 -0.2222 -0.0313 -0.1493
  223loPI   C2B 3566   8.732  11.367   9.203 -0.2067  0.1541  0.1981
  223loPI   C3B 3567   8.699  11.185   8.865  0.2327 -0.1934  0.1232
  223loPI   C4B 3568   8.591  11.393   8.490 -0.1775 -0.0886  0.2210
  224loPI    C1 3569  18.148   7.195  10.658  0.2759  0.2158  0.0278
  224loPI    C2 3570  18.167   7.460  10.956  0.2487 -0.0245  0.2464
  224loPI    C3 3571  17.852   7.217  10.925  0.2590 -0.0119  0.0294
  224loPI   PO4 3572  18.237   7.303  10.444 -0.3213 -0.0267 -0.1851
  224loPI   GL1 3573  18.250   7.611  10.147 -0.1876 -0.0702 -0.0958
  224loPI   GL2 3574  18.135   7.862  10.315 -0.0222  0.0229  0.1040
  224loPI   C1A 3575  18.281   7.830   9.769  0.0323  0.0194 -0.1519
  224loPI   C2A 3576  18.251   7.893   9.400 -0.0362 -0.2232 -0.1693
  224loPI   C3A 3577  18.267   7.879   9.004  0.2785  0.0850  0.2169
  224loPI   C4A 3578  18.134   7.819   8.657  0.0781  0.0804  0.0083
  224loPI   C5A 3579  17.797   7.910   8.349 -0.1617 -0.0894  0.0119
  224loPI   C6A 3580  17.770   8.097   7.827 -0.1914  0.4144 -0.0353
  224loPI   C1B 3581  17.742   7.945  10.032  0.0352 -0.1907 -0.1276
  224loPI   C2B 3582  17.708   7.929   9.625 -0.0162 -0.1685  0.2013
  224loPI   C3B 3583  17.782   7.890   9.222 -0.0665  0.3481 -0.0076
  224loPI   C4B 3584  17.758   8.056   8.861 -0.2048  0.1193 -0.1721
  225loPI    C1 3585   2.490   9.649  10.973  0.0863  0.0780  0.1270
  225loPI    C2 3586   2.808   9.696  11.211  0.1837  0.0760 -0.0015
  225loPI    C3 3587   2.598   9.356  11.224  0.2010  0.0677  0.0663
  225loPI   PO4 3588   2.490   9.704  10.683 -0.0534  0.0419 -0.1137
  225loPI   GL1 3589   2.604   9.947  10.267  0.3058 -0.0416 -0.0099
  225loPI   GL2 3590   2.524  10.121  10.035  0.1015  0.0578  0.2451
  225loPI   C1A 3591   2.892   9.953   9.804  0.0558  0.1769 -0.0583
  225loPI   C2A 3592   2.949  10.026   9.451 -0.0041  0.0989 -0.0774
  225loPI   C3A 3593   2.855   9.964   8.988 -0.0455  0.1225 -0.1391
  225loPI   C4A 3594   2.884   9.795   8.550 -0.2049 -0.2255  0.1833
  225loPI   C5A 3595   2.955   9.566   8.242  0.1233  0.2810  0.3170
  225loPI   C6A 3596   3.231   9.300   8.270  0.0394 -0.0060  0.3978
  225loPI   C1B 3597   2.465  10.136   9.587  0.1498  0.0871 -0.2029
  225loPI   C2B 3598   2.419  10.087   9.214 -0.2730  0.0961 -0.0363
  225loPI   C3B 3599   2.360   9.967   8.812  0.2421 -0.0217  0.0179
  225loPI   C4B 3600   2.396   9.946   8.424 -0.0917 -0.2228  0.0402
  226loPI    C1 3601  12.174  11.097  10.640  0.0210 -0.0327 -0.2470
  226loPI    C2 3602  12.399  11.126  10.969 -0.0673 -0.1241 -0.1778
  226loPI    C3 3603  12.031  11.281  10.965  0.0617  0.1889 -0.3520
  226loPI   PO4 3604  12.298  11.147  10.474 -0.3564 -0.1703  0.2351
  226loPI   GL1 3605  12.164  11.082  10.067 -0.0627 -0.0612 -0.0201
  226loPI   GL2 3606  12.038  11.387  10.088 -0.0905 -0.0265 -0.2045
  226loPI   C1A 3607  12.171  11.070   9.570  0.1563 -0.0969 -0.1910
  226loPI   C2A 3608  12.144  11.023   9.151  0.3955  0.0935  0.1319
  226loPI   C3A 3609  12.248  10.953   8.813 -0.1559  0.1512  0.0754
  226loPI   C4A 3610  12.196  10.912   8.384 -0.0920  0.1250 -0.1927
  226loPI   C5A 3611  11.888  10.765   8.087  0.0537 -0.0685  0.3102
  226loPI   C6A 3612  11.675  10.519   7.737  0.0273 -0.1211  0.1121
  226loPI   C1B 3613  12.020  11.582   9.683 -0.1470  0.2393  0.0033
  226loPI   C2B 3614  12.102  11.535   9.264  0.1662 -0.1841 -0.3079
  226loPI   C3B 3615  12.017  11.510   8.918 -0.0596 -0.2573 -0.1411
  226loPI   C4B 3616  12.039  11.344   8.540  0.0013 -0.0635  0.3047
  227loPI    C1 3617  18.161  14.913  10.147  0.0183 -0.1028 -0.1041
  227loPI    C2 3618  17.838  14.692  10.228 -0.0634  0.1185  0.1906
  227loPI    C3 3619  17.934  15.000  10.465  0.1290  0.3123 -0.1322
  227loPI   PO4 3620  18.324  14.799  10.131 -0.0842  0.2906  0.2284
  227loPI   GL1 3621  18.563  14.756   9.819  0.1120  0.1758 -0.0491
  227loPI   GL2 3622  18.269  14.571   9.694  0.2670  0.0319 -0.0366
  227loPI   C1A 3623  18.594  14.897   9.363 -0.2580 -0.0033 -0.1885
  227loPI   C2A 3624  18.618  14.946   8.852  0.2831  0.1075 -0.1520
  227loPI   C3A 3625  18.565  14.850   8.501 -0.0322 -0.1988  0.1640
  227loPI   C4A 3626  18.718  14.723   8.106  0.2365 -0.2973  0.2358
  227loPI   C5A 3627  18.619  14.475   7.717 -0.3072 -0.3621  0.0711
  227loPI   C6A 3628  18.816  14.525   7.252 -0.2304  0.0132 -0.0094
  227loPI   C1B 3629  18.148  14.566   9.255  0.2674  0.2487 -0.3718
  227loPI   C2B 3630  18.174  14.587   8.804 -0.1373  0.0771  0.4078
  227loPI   C3B 3631  18.170  14.513   8.377 -0.1733  0.0323 -0.0372
  227loPI   C4B 3632  18.305  14.293   8.004 -0.1281 -0.0459 -0.2739
  228loPI    C1 3633   2.280  14.655  10.780  0.2223 -0.2962  0.1118
  228loPI    C2 3634   2.641  14.756  10.919  0.1185  0.1126  0.0978
  228loPI    C3 3635   2.315  14.941  11.057 -0.0765 -0.1627  0.0154
  228loPI   PO4 3636   2.295  14.693  10.500 -0.0514  0.2606  0.0112
  228loPI   GL1 3637   2.545  14.504  10.143  0.1405  0.1147 -0.3555
  228loPI   GL2 3638   2.226  14.520   9.996  0.2726 -0.0321 -0.1523
  228loPI   C1A 3639   2.802  14.681   9.734 -0.0687  0.0823 -0.0223
  228loPI   C2A 3640   2.914  14.633   9.260  0.1117 -0.1585  0.0754
  228loPI   C3A 3641   2.920  14.640   8.763 -0.1299  0.0428 -0.1666
  228loPI   C4A 3642   2.965  14.568   8.312  0.0220 -0.1262  0.0476
  228loPI   C5A 3643   2.950  14.723   7.874  0.2805 -0.0531  0.0591
  228loPI   C6A 3644   3.328  14.614   7.574 -0.2453  0.2216 -0.0421
  228loPI   C1B 3645   2.163  14.406   9.572 -0.0591 -0.1955 -0.0364
  228loPI   C2B 3646   2.123  14.267   9.107  0.0278  0.3147 -0.1522
  228loPI   C3B 3647   2.112  14.326   8.706 -0.2156  0.3146  0.2024
  228loPI   C4B 3648   2.227  14.452   8.261  0.1779  0.0492 -0.1568
  229loPI    C1 3649   5.318   8.214  11.004  0.0828  0.0347  0.0645
  229loPI    C2 3650   5.128   8.515  11.187  0.0829  0.0804 -0.0097
  229loPI    C3 3651   4.967   8.148  11.185 -0.1059  0.1620 -0.2453
  229loPI   PO4 3652   5.340   8.266  10.772  0.2104  0.6284  0.2174
  229loPI   GL1 3653   5.479   7.978  10.433 -0.1201 -0.1188 -0.1652
  229loPI   GL2 3654   5.766   7.974  10.354 -0.0010  0.0183  0.1907
  229loPI   C1A 3655   5.342   7.942  10.050  0.1814  0.0180  0.0259
  229loPI   C2A 3656   5.430   7.926   9.687 -0.1436 -0.0702  0.2187
  229loPI   C3A 3657   5.356   7.859   9.306  0.2099  0.1135 -0.4035
  229loPI   C4A 3658   5.487   7.909   8.922 -0.0310  0.5404  0.5922
  229loPI   C5A 3659   5.581   7.778   8.407 -0.2601  0.0758 -0.0118
  229loPI   C6A 3660   5.592   7.595   8.006  0.1056  0.1269 -0.3669
  229loPI   C1B 3661   5.795   7.783   9.975 -0.1737 -0.1054  0.0739
  229loPI   C2B 3662   5.885   7.725   9.594  0.0726 -0.2748  0.1906
  229loPI   C3B 3663   5.935   7.745   9.191  0.2338 -0.0518 -0.2388
  229loPI   C4B 3664   6.024   7.794   8.707  0.3047 -0.0728  0.0647
  230loPI    C1 3665  18.163  11.599  10.740 -0.2355  0.0230 -0.0258
  230loPI    C2 3666  18.431  11.431  10.985  0.0061  0.2400 -0.1370
  230loPI    C3 3667  18.283  11.794  11.067  0.0303  0.2807 -0.2716
  230loPI   PO4 3668  18.219  11.574  10.527  0.2927  0.2969 -0.1261
  230loPI   GL1 3669  18.146  11.751  10.188 -0.0124  0.1094  0.1894
  230loPI   GL2 3670  17.682  11.705  10.118  0.3964  0.1557  0.3184
  230loPI   C1A 3671  18.077  11.718   9.795 -0.2024  0.0235 -0.2246
  230loPI   C2A 3672  18.128  11.750   9.350  0.1513 -0.3084 -0.0737
  230loPI   C3A 3673  18.129  11.641   8.907  0.0631  0.2027 -0.2586
  230loPI   C4A 3674  18.146  11.661   8.485  0.1065  0.0284 -0.1665
  230loPI   C5A 3675  17.979  11.575   8.237  0.1236  0.0164  0.0002
  230loPI   C6A 3676  17.683  11.774   7.896 -0.0343  0.4209  0.2345
  230loPI   C1B 3677  17.642  11.902   9.744 -0.3600  0.1022  0.0943
  230loPI   C2B 3678  17.615  11.909   9.335 -0.1359 -0.0873 -0.1114
  230loPI   C3B 3679  17.495  11.828   8.921 -0.2802 -0.0695  0.0097
  230loPI   C4B 3680  17.637  11.695   8.535 -0.3010  0.0080 -0.1019
  231loPI    C1 3681   7.824  17.697  10.714  0.0624 -0.0400  0.1399
  231loPI    C2 3682   8.039  17.861  11.008  0.0115 -0.1481  0.2384
  231loPI    C3 3683   7.937  17.475  11.027 -0.1615 -0.1062  0.1753
  231loPI   PO4 3684   7.888  17.725  10.550  0.1569  0.0068  0.1016
  231loPI   GL1 3685   8.034  17.909  10.149 -0.1995  0.1960 -0.0320
  231loPI   GL2 3686   8.146  18.191  10.088 -0.1892  0.1262 -0.0507
  231loPI   C1A 3687   7.876  17.639   9.888  0.0507  0.0286  0.0390
  231loPI   C2A 3688   7.885  17.738   9.455  0.3783  0.1601 -0.1280
  231loPI   C3A 3689   7.959  17.756   8.982  0.1833  0.0311 -0.1052
  231loPI   C4A 3690   7.869  17.762   8.574 -0.0853  0.1836 -0.0504
  231loPI   C5A 3691   7.973  17.767   8.272 -0.2027  0.1716 -0.0149
  231loPI   C6A 3692   8.154  17.955   7.895 -0.2879 -0.2596  0.0116
  231loPI   C1B 3693   8.233  18.189   9.734  0.1819 -0.1930 -0.2368
  231loPI   C2B 3694   8.238  18.048   9.216  0.0220 -0.0602  0.4136
  231loPI   C3B 3695   8.166  18.175   8.762 -0.0477  0.0368 -0.1423
  231loPI   C4B 3696   8.283  18.117   8.384  0.1745 -0.1206 -0.1893
  232loPI    C1 3697  15.587   3.739  10.243  0.1011  0.0140 -0.0869
  232loPI    C2 3698  15.671   3.868  10.612  0.4240 -0.0091 -0.1493
  232loPI    C3 3699  15.697   3.478  10.526  0.1490 -0.0301 -0.1459
  232loPI   PO4 3700  15.684   3.950  10.130  0.1045 -0.1335 -0.2395
  232loPI   GL1 3701  15.640   4.232   9.778 -0.2177  0.0067 -0.1152
  232loPI   GL2 3702  15.970   4.209   9.680  0.1932 -0.0934 -0.0695
  232loPI   C1A 3703  15.435   4.421   9.400  0.1603 -0.1613  0.1340
  232loPI   C2A 3704  15.550   4.365   8.885  0.0004  0.0608  0.1244
  232loPI   C3A 3705  15.552   4.403   8.480  0.1649 -0.1004  0.0400
  232loPI   C4A 3706  15.414   4.286   8.079  0.1537  0.0757  0.0915
  232loPI   C5A 3707  15.464   4.393   7.543  0.1065 -0.2510  0.2636
  232loPI   C6A 3708  15.791   4.622   7.426  0.0267  0.2653  0.1255
  232loPI   C1B 3709  15.972   4.243   9.294  0.0872  0.1235  0.0063
  232loPI   C2B 3710  16.075   4.272   8.810  0.1202 -0.3050  0.0054
  232loPI   C3B 3711  16.112   4.137   8.437  0.2585 -0.0947  0.2486
  232loPI   C4B 3712  16.315   4.239   8.098 -0.2356 -0.1049 -0.3755
  233loPI    C1 3713   6.027  12.007  10.723 -0.0632  0.2172 -0.1362
  233loPI    C2 3714   5.644  12.006  10.839 -0.0830  0.1116 -0.2019
  233loPI    C3 3715   5.809  12.342  10.700 -0.1376  0.1698 -0.1274
  233loPI   PO4 3716   6.100  11.838  10.434  0.0939 -0.4327 -0.3121
  233loPI   GL1 3717   6.239  11.815   9.997  0.2331  0.0896  0.0155
  233loPI   GL2 3718   6.265  11.510   9.884  0.3474 -0.2008 -0.0477
  233loPI   C1A 3719   6.127  12.026   9.655  0.5197  0.3380 -0.0975
  233loPI   C2A 3720   6.178  12.056   9.200  0.2615 -0.3115 -0.1514
  233loPI   C3A 3721   6.188  12.059   8.820  0.1191  0.1347  0.0725
  233loPI   C4A 3722   6.184  11.903   8.496  0.0806  0.0480  0.1555
  233loPI   C5A 3723   6.195  12.041   8.131  0.1104  0.1445 -0.0678
  233loPI   C6A 3724   6.476  12.209   7.785 -0.0729 -0.2230  0.1896
  233loPI   C1B 3725   6.303  11.564   9.487 -0.0498  0.0708  0.1626
  233loPI   C2B 3726   6.266  11.578   9.076  0.1929 -0.0699 -0.1275
  233loPI   C3B 3727   6.227  11.473   8.785 -0.3837 -0.2461 -0.1570
  233loPI   C4B 3728   6.223  11.347   8.399  0.0710  0.1488 -0.0949
  234loPI    C1 3729   9.150  16.638  10.758 -0.2770  0.1097 -0.0881
  234loPI    C2 3730   9.004  16.370  11.017 -0.0438  0.1123  0.0491
  234loPI    C3 3731   9.377  16.331  10.878 -0.1940  0.0650 -0.3536
  234loPI   PO4 3732   8.824  16.756  10.667  0.0571 -0.1559  0.1756
  234loPI   GL1 3733   8.764  16.670  10.241  0.4715  0.1281 -0.0362
  234loPI   GL2 3734   8.938  17.022  10.187 -0.2468  0.0384 -0.0282
  234loPI   C1A 3735   8.639  16.609   9.852  0.4518  0.0355 -0.0226
  234loPI   C2A 3736   8.646  16.652   9.437  0.0311  0.0623 -0.2106
  234loPI   C3A 3737   8.661  16.548   9.069  0.0620 -0.0273 -0.1926
  234loPI   C4A 3738   8.585  16.552   8.658 -0.1916 -0.3217 -0.0829
  234loPI   C5A 3739   8.210  16.598   8.362  0.1773  0.2341  0.2379
  234loPI   C6A 3740   8.054  16.600   7.972 -0.2709  0.1563  0.1233
  234loPI   C1B 3741   9.093  17.038   9.795 -0.1013 -0.1254  0.3877
  234loPI   C2B 3742   9.043  17.045   9.347  0.0663 -0.2120  0.0819
  234loPI   C3B 3743   9.039  16.987   8.936 -0.1288 -0.5333  0.0065
  234loPI   C4B 3744   8.973  16.866   8.584 -0.0979 -0.0447  0.2218
  235loPI    C1 3745  18.427  15.754  10.355  0.1249  0.1239  0.1722
  235loPI    C2 3746  18.815  15.836  10.404  0.2183 -0.2230  0.0368
  235loPI    C3 3747  18.617  15.631  10.685  0.0768  0.1342  0.2040
  235loPI   PO4 3748  18.312  15.941  10.214  0.3397  0.0226 -0.1895
  235loPI   GL1 3749  18.174  15.800   9.811  0.0634  0.1186  0.2321
  235loPI   GL2 3750  18.475  15.985   9.698  0.0847  0.0424  0.0016
  235loPI   C1A 3751  17.995  15.621   9.472  0.0732  0.0828 -0.0339
  235loPI   C2A 3752  17.916  15.545   9.046  0.3360 -0.2213  0.0536
  235loPI   C3A 3753  17.959  15.613   8.581  0.1060  0.3133  0.1823
  235loPI   C4A 3754  18.081  15.556   8.256  0.1366  0.2147  0.1712
  235loPI   C5A 3755  18.006  15.306   7.841  0.1968  0.1900 -0.1093
  235loPI   C6A 3756  18.202  15.244   7.401  0.0780 -0.3793 -0.4835
  235loPI   C1B 3757  18.372  15.958   9.271 -0.0802  0.0418  0.1925
  235loPI   C2B 3758  18.371  15.825   8.817  0.4516  0.0254 -0.2355
  235loPI   C3B 3759  18.285  16.059   8.463 -0.1973  0.1822 -0.0379
  235loPI   C4B 3760  18.595  16.308   8.278 -0.1821  0.0033  0.2910
  236loPI    C1 3761   5.929   9.062  10.834 -0.0513  0.2213 -0.1271
  236loPI    C2 3762   5.699   9.375  10.931 -0.0622  0.1370  0.1263
  236loPI    C3 3763   5.843   9.136  11.217  0.1237  0.0341 -0.0502
  236loPI   PO4 3764   5.809   8.973  10.632 -0.0294  0.2992 -0.1205
  236loPI   GL1 3765   5.631   8.778  10.310  0.2834 -0.1786  0.0332
  236loPI   GL2 3766   5.488   8.471  10.299 -0.0431  0.2801 -0.2689
  236loPI   C1A 3767   5.712   8.842   9.872  0.3373 -0.0194 -0.1670
  236loPI   C2A 3768   5.680   8.771   9.438 -0.1108 -0.1812  0.3254
  236loPI   C3A 3769   5.660   8.781   9.023 -0.0988 -0.2685  0.0418
  236loPI   C4A 3770   5.668   8.684   8.540  0.1218 -0.1389  0.1116
  236loPI   C5A 3771   5.594   8.679   8.161  0.1614  0.1835 -0.2296
  236loPI   C6A 3772   5.241   8.542   7.918 -0.4216  0.3037 -0.0067
  236loPI   C1B 3773   5.256   8.556   9.922 -0.0376  0.0899 -0.1805
  236loPI   C2B 3774   5.348   8.398   9.566 -0.2748 -0.0995  0.1600
  236loPI   C3B 3775   5.386   8.446   9.207  0.0540  0.0184 -0.2794
  236loPI   C4B 3776   5.329   8.385   8.822 -0.0239 -0.3061  0.2905
  237loPI    C1 3777   4.788   9.250  10.758  0.0956  0.1835  0.1820
  237loPI    C2 3778   4.817   8.896  10.943 -0.2609 -0.0509 -0.1928
  237loPI    C3 3779   4.497   9.128  11.003 -0.0422  0.2010  0.0283
  237loPI   PO4 3780   4.936   9.233  10.541 -0.2391 -0.1156  0.2807
  237loPI   GL1 3781   4.918   9.030  10.066 -0.4484 -0.2929  0.1884
  237loPI   GL2 3782   5.211   9.098  10.133 -0.3448 -0.0572 -0.2119
  237loPI   C1A 3783   4.669   9.047   9.635  0.1915  0.2960  0.0327
  237loPI   C2A 3784   4.754   8.993   9.161  0.3154  0.0456 -0.1349
  237loPI   C3A 3785   4.773   9.123   8.825 -0.0048  0.0459 -0.2094
  237loPI   C4A 3786   4.779   9.204   8.426  0.1635 -0.0784  0.2017
  237loPI   C5A 3787   4.901   9.625   8.218 -0.5499 -0.2876 -0.0491
  237loPI   C6A 3788   4.915  10.070   8.031  0.1600  0.1565  0.4202
  237loPI   C1B 3789   5.231   9.003   9.702  0.1703  0.0220  0.2159
  237loPI   C2B 3790   5.239   8.943   9.243 -0.0712 -0.0061  0.1828
  237loPI   C3B 3791   5.220   8.946   8.793 -0.2089  0.0402 -0.2247
  237loPI   C4B 3792   5.184   8.864   8.326 -0.2306 -0.0685  0.2400
  238loPI    C1 3793  16.221   8.281  11.048 -0.0538 -0.0361 -0.0085
  238loPI    C2 3794  16.162   8.651  11.189  0.0406 -0.0258  0.0046
  238loPI    C3 3795  16.512   8.468  11.250  0.0577 -0.0484 -0.1563
  238loPI   PO4 3796  16.252   8.295  10.775 -0.1325 -0.1397 -0.0125
  238loPI   GL1 3797  16.069   8.347  10.267 -0.0465 -0.2260  0.4770
  238loPI   GL2 3798  16.460   8.301  10.200 -0.0239 -0.2444 -0.1910
  238loPI   C1A 3799  15.825   8.005   9.969  0.1470  0.0374  0.2041
  238loPI   C2A 3800  15.913   7.951   9.556 -0.0157 -0.0810  0.1577
  238loPI   C3A 3801  15.928   8.035   9.028 -0.2054 -0.0940 -0.2813
  238loPI   C4A 3802  15.873   8.039   8.537  0.1348 -0.2351  0.2809
  238loPI   C5A 3803  15.811   7.935   8.060 -0.1800 -0.1429 -0.1641
  238loPI   C6A 3804  15.954   7.882   7.619  0.0250 -0.0365 -0.1238
  238loPI   C1B 3805  16.265   8.394   9.799 -0.0978  0.3008 -0.0757
  238loPI   C2B 3806  16.252   8.330   9.410  0.0444 -0.4261 -0.1737
  238loPI   C3B 3807  16.326   8.410   8.989 -0.4398  0.0758 -0.0615
  238loPI   C4B 3808  16.269   8.454   8.545 -0.1124  0.0570 -0.5501
  239loPI    C1 3809  14.481   5.105  10.879 -0.1048 -0.0760  0.0991
  239loPI    C2 3810  14.404   4.728  10.988 -0.1226 -0.1378 -0.1236
  239loPI    C3 3811  14.723   4.918  11.138 -0.1134 -0.2410 -0.0110
  239loPI   PO4 3812  14.402   5.027  10.580 -0.1311 -0.1549  0.2660
  239loPI   GL1 3813  14.313   5.053  10.151  0.2639 -0.0248  0.2987
  239loPI   GL2 3814  14.366   4.764   9.998  0.1037 -0.0510 -0.0691
  239loPI   C1A 3815  14.317   5.124   9.666  0.0866  0.2031 -0.1266
  239loPI   C2A 3816  14.309   5.116   9.217 -0.0905 -0.2331  0.4413
  239loPI   C3A 3817  14.340   4.979   8.778  0.1446 -0.1301 -0.0819
  239loPI   C4A 3818  14.374   5.139   8.300  0.0974 -0.3479  0.1323
  239loPI   C5A 3819  14.401   5.467   8.030  0.0031 -0.0414 -0.1555
  239loPI   C6A 3820  14.392   5.691   7.808 -0.4041  0.0198  0.1209
  239loPI   C1B 3821  14.513   4.661   9.579  0.1168 -0.2480 -0.0177
  239loPI   C2B 3822  14.501   4.656   9.157 -0.3771  0.1128 -0.2169
  239loPI   C3B 3823  14.487   4.493   8.768 -0.0092  0.2452 -0.2963
  239loPI   C4B 3824  14.486   4.589   8.341  0.2165 -0.1880 -0.1803
  240loPI    C1 3825   3.802  12.186  10.515  0.0509  0.0090 -0.0678
  240loPI    C2 3826   3.498  12.386  10.681  0.1539  0.1595 -0.0580
  240loPI    C3 3827   3.855  12.377  10.862  0.2438  0.2538 -0.2284
  240loPI   PO4 3828   3.701  11.997  10.266  0.0968 -0.0053  0.0247
  240loPI   GL1 3829   3.468  11.961   9.959 -0.3266 -0.0535 -0.0276
  240loPI   GL2 3830   3.376  11.640  10.045  0.0287 -0.1686 -0.1872
  240loPI   C1A 3831   3.397  11.763   9.510  0.1388  0.1144  0.1568
  240loPI   C2A 3832   3.290  11.666   8.959  0.2930  0.5736 -0.0059
  240loPI   C3A 3833   3.355  11.728   8.436  0.0313 -0.4945  0.1087
  240loPI   C4A 3834   3.503  11.383   8.187  0.1734  0.1628  0.0774
  240loPI   C5A 3835   3.523  11.150   7.754 -0.0181  0.1039  0.0380
  240loPI   C6A 3836   3.290  10.794   7.566  0.0611  0.1172 -0.1022
  240loPI   C1B 3837   3.565  11.415   9.787 -0.0769  0.5045  0.2951
  240loPI   C2B 3838   3.625  11.334   9.414 -0.0981  0.1496  0.0145
  240loPI   C3B 3839   3.457  11.157   9.058 -0.2346  0.0671  0.0356
  240loPI   C4B 3840   3.354  11.221   8.643  0.0534 -0.0001  0.1380
  241loPI    C1 3841  17.185  17.035  10.095  0.0849 -0.1880 -0.0165
  241loPI    C2 3842  17.282  16.884  10.453 -0.0604  0.0303  0.1171
  241loPI    C3 3843  17.025  17.189  10.427 -0.0375  0.0280 -0.1736
  241loPI   PO4 3844  17.410  16.922   9.983 -0.0649  0.2538  0.0783
  241loPI   GL1 3845  17.608  17.004   9.588  0.0646  0.1490  0.3272
  241loPI   GL2 3846  17.772  16.674   9.564  0.0823 -0.1738 -0.2044
  241loPI   C1A 3847  17.530  17.131   9.191 -0.2558  0.3898  0.3831
  241loPI   C2A 3848  17.628  17.159   8.811 -0.1909 -0.2966  0.1385
  241loPI   C3A 3849  17.541  17.083   8.351  0.2527 -0.1152  0.1362
  241loPI   C4A 3850  17.447  16.864   7.979 -0.3480  0.2602 -0.0455
  241loPI   C5A 3851  17.504  16.787   7.516  0.0275 -0.1206  0.0168
  241loPI   C6A 3852  17.328  16.440   7.307 -0.0841  0.2058 -0.1364
  241loPI   C1B 3853  17.650  16.563   9.257 -0.1213 -0.2417  0.2586
  241loPI   C2B 3854  17.629  16.562   8.793  0.0414 -0.0634 -0.1063
  241loPI   C3B 3855  17.561  16.518   8.379  0.0040 -0.4606 -0.0205
  241loPI   C4B 3856  17.623  16.363   7.919  0.2681 -0.1539 -0.1806
  242loPI    C1 3857  15.143  15.888  10.380 -0.2505  0.2835  0.0552
  242loPI    C2 3858  15.218  15.557  10.592  0.1494  0.4065  0.1134
  242loPI    C3 3859  15.046  15.873  10.768 -0.1015  0.2835  0.0929
  242loPI   PO4 3860  15.174  15.779  10.095 -0.0306 -0.0376 -0.0673
  242loPI   GL1 3861  15.081  15.866   9.706 -0.2652 -0.3349  0.1686
  242loPI   GL2 3862  14.776  15.682   9.773  0.0237 -0.0927 -0.0095
  242loPI   C1A 3863  15.088  16.009   9.238 -0.0227 -0.0675  0.1665
  242loPI   C2A 3864  15.042  15.914   8.827 -0.2573 -0.1201 -0.1005
  242loPI   C3A 3865  14.983  15.967   8.369  0.1865 -0.0172  0.4657
  242loPI   C4A 3866  14.744  15.862   7.933 -0.4860  0.0846  0.1400
  242loPI   C5A 3867  14.741  15.972   7.570  0.1397  0.1573  0.1045
  242loPI   C6A 3868  14.903  16.282   7.378  0.3935 -0.0037  0.1122
  242loPI   C1B 3869  14.774  15.474   9.366 -0.2770  0.0072 -0.0705
  242loPI   C2B 3870  14.698  15.581   8.979  0.0775  0.1832  0.2460
  242loPI   C3B 3871  14.574  15.529   8.586 -0.1307  0.0598  0.1833
  242loPI   C4B 3872  14.340  15.468   8.139  0.0242 -0.3585  0.1608
  243loPI    C1 3873  17.046   9.589  10.706 -0.0952 -0.0111  0.0104
  243loPI    C2 3874  17.369   9.610  10.940 -0.1038 -0.3077  0.0526
  243loPI    C3 3875  17.103   9.909  10.940  0.0904 -0.1316  0.1323
  243loPI   PO4 3876  17.133   9.338  10.547 -0.1564 -0.1221  0.0507
  243loPI   GL1 3877  17.052   9.491  10.077 -0.0148  0.0879  0.0154
  243loPI   GL2 3878  17.185   9.703  10.146 -0.0343 -0.0099 -0.0739
  243loPI   C1A 3879  16.843   9.715   9.670 -0.3532 -0.1747 -0.1374
  243loPI   C2A 3880  16.860   9.668   9.268  0.1829 -0.0497 -0.1615
  243loPI   C3A 3881  16.833   9.610   8.820  0.2948 -0.0492 -0.1960
  243loPI   C4A 3882  16.806   9.824   8.441 -0.3371  0.1356 -0.1332
  243loPI   C5A 3883  17.008   9.869   8.045 -0.1650 -0.1241 -0.0243
  243loPI   C6A 3884  17.041   9.921   7.608  0.5293  0.1482 -0.2450
  243loPI   C1B 3885  17.318   9.609   9.638  0.2890 -0.2428 -0.0535
  243loPI   C2B 3886  17.347   9.568   9.141 -0.2105  0.0542  0.2309
  243loPI   C3B 3887  17.361   9.556   8.696  0.0486  0.1960  0.0468
  243loPI   C4B 3888  17.574   9.476   8.245 -0.0959  0.0377 -0.0159
  244loPI    C1 3889   3.343   1.582  10.392 -0.0192 -0.0885  0.0452
  244loPI    C2 3890   3.041   1.767  10.578 -0.0545 -0.1932  0.0932
  244loPI    C3 3891   3.417   1.818  10.707 -0.0414  0.0050 -0.0196
  244loPI   PO4 3892   3.290   1.542  10.151  0.0210 -0.1302 -0.2587
  244loPI   GL1 3893   3.324   1.801   9.715  0.4465  0.2810  0.2144
  244loPI   GL2 3894   3.269   2.028   9.582  0.1020 -0.2079 -0.0240
  244loPI   C1A 3895   3.391   1.704   9.211  0.0673  0.0823  0.0499
  244loPI   C2A 3896   3.256   1.558   8.850  0.1443 -0.1864  0.1613
  244loPI   C3A 3897   3.434   1.531   8.512  0.1047  0.0046  0.0184
  244loPI   C4A 3898   3.454   1.743   8.073  0.1531  0.1009  0.3499
  244loPI   C5A 3899   3.427   1.667   7.731 -0.1141 -0.3308 -0.1362
  244loPI   C6A 3900   3.613   1.775   7.273  0.0437  0.1399 -0.2449
  244loPI   C1B 3901   3.463   2.166   9.301 -0.3030  0.2320 -0.0162
  244loPI   C2B 3902   3.478   2.475   8.962 -0.1417  0.3290 -0.3431
  244loPI   C3B 3903   3.498   2.449   8.544 -0.1974 -0.4411 -0.0808
  244loPI   C4B 3904   3.408   2.367   8.155 -0.4833 -0.2407 -0.1172
  245loPI    C1 3905  10.890   6.230  10.882 -0.1597  0.1870 -0.0495
  245loPI    C2 3906  10.802   5.872  10.727  0.0834  0.0103  0.2094
  245loPI    C3 3907  10.609   6.002  11.052  0.0012  0.1123  0.1205
  245loPI   PO4 3908  10.911   6.436  10.595  0.3490  0.1028  0.0372
  245loPI   GL1 3909  10.673   6.571  10.100 -0.1848 -0.2860 -0.0515
  245loPI   GL2 3910  10.884   6.859  10.077 -0.0273  0.2181 -0.0771
  245loPI   C1A 3911  10.554   6.586   9.687  0.3504 -0.0768  0.2454
  245loPI   C2A 3912  10.563   6.537   9.242 -0.0933 -0.0505  0.0770
  245loPI   C3A 3913  10.646   6.685   8.847  0.3678  0.2272  0.2740
  245loPI   C4A 3914  10.726   6.745   8.437  0.0327  0.3231  0.4018
  245loPI   C5A 3915  10.791   6.481   8.099 -0.3933 -0.1785 -0.0869
  245loPI   C6A 3916  10.942   6.157   7.777  0.2743 -0.0950  0.0569
  245loPI   C1B 3917  10.912   6.982   9.702  0.1534 -0.1669 -0.1091
  245loPI   C2B 3918  10.881   6.967   9.217  0.0674  0.0530  0.4306
  245loPI   C3B 3919  11.042   6.977   8.786 -0.2035  0.4050  0.0227
  245loPI   C4B 3920  11.096   7.095   8.343  0.2271  0.1559 -0.1927
  246loPI    C1 3921  17.662   9.156  10.690  0.1189  0.1424 -0.1682
  246loPI    C2 3922  18.005   9.119  10.892  0.1379  0.1761 -0.1937
  246loPI    C3 3923  17.668   9.214  11.085  0.1041 -0.0478 -0.1394
  246loPI   PO4 3924  17.818   9.288  10.438 -0.1501 -0.1644 -0.0277
  246loPI   GL1 3925  18.077   9.651  10.326 -0.2927  0.3310 -0.0296
  246loPI   GL2 3926  17.962   9.949  10.216 -0.2763 -0.3621  0.3263
  246loPI   C1A 3927  18.256   9.799   9.876  0.0781 -0.2171  0.2969
  246loPI   C2A 3928  18.211   9.800   9.489 -0.0050 -0.1954 -0.0288
  246loPI   C3A 3929  18.256   9.806   9.021 -0.0055 -0.0886  0.1946
  246loPI   C4A 3930  18.123   9.803   8.559  0.1980 -0.2595 -0.1387
  246loPI   C5A 3931  17.992   9.769   8.101 -0.2079  0.0371 -0.1306
  246loPI   C6A 3932  18.002   9.424   7.808 -0.1254  0.1537 -0.3425
  246loPI   C1B 3933  17.960  10.298   9.971  0.1139 -0.1510  0.3187
  246loPI   C2B 3934  18.221  10.300   9.618  0.0578  0.1261  0.5359
  246loPI   C3B 3935  18.087  10.309   9.196  0.0901 -0.1097  0.2731
  246loPI   C4B 3936  17.982  10.272   8.703 -0.0462  0.0047 -0.2979
  247loPI    C1 3937   7.804   8.504  10.810  0.1530  0.1386  0.0850
  247loPI    C2 3938   7.564   8.690  10.550 -0.1406  0.0889  0.3153
  247loPI    C3 3939   7.679   8.877  10.885  0.0458  0.0682  0.2636
  247loPI   PO4 3940   8.031   8.398  10.568  0.0459 -0.1492 -0.1920
  247loPI   GL1 3941   8.067   8.575  10.163 -0.0261  0.0438  0.0277
  247loPI   GL2 3942   7.813   8.685  10.103  0.3050  0.2916 -0.0408
  247loPI   C1A 3943   8.188   8.611   9.710 -0.1030 -0.1479 -0.0153
  247loPI   C2A 3944   8.195   8.641   9.267  0.3990 -0.2251  0.1872
  247loPI   C3A 3945   8.176   8.556   8.834 -0.2549  0.0251  0.2596
  247loPI   C4A 3946   7.979   8.528   8.557 -0.1559  0.1560 -0.2073
  247loPI   C5A 3947   7.812   8.487   8.164  0.0736  0.1742 -0.0406
  247loPI   C6A 3948   7.805   8.851   7.775 -0.0069  0.3041 -0.0568
  247loPI   C1B 3949   7.567   8.807   9.738 -0.0969 -0.3478 -0.0149
  247loPI   C2B 3950   7.653   8.837   9.324  0.3216  0.0369  0.1199
  247loPI   C3B 3951   7.593   8.786   8.903 -0.1008 -0.1371 -0.2173
  247loPI   C4B 3952   7.522   8.827   8.478 -0.1916 -0.3239 -0.0184
  248loPI    C1 3953   2.022   8.237  10.672 -0.1468 -0.0375  0.0426
  248loPI    C2 3954   1.995   8.208  11.070  0.1549 -0.0507  0.0645
  248loPI    C3 3955   1.823   7.932  10.838 -0.1490  0.0377  0.1796
  248loPI   PO4 3956   1.944   8.464  10.575  0.0894 -0.1005  0.2374
  248loPI   GL1 3957   1.939   8.607  10.130  0.1846  0.2049  0.0971
  248loPI   GL2 3958   2.111   8.286  10.047  0.1482  0.0641  0.0504
  248loPI   C1A 3959   1.831   8.758   9.705  0.2626  0.2421 -0.1005
  248loPI   C2A 3960   1.967   8.722   9.227  0.4419 -0.0760  0.0415
  248loPI   C3A 3961   1.873   8.737   8.793  0.0795  0.0166 -0.2637
  248loPI   C4A 3962   1.749   8.804   8.350  0.0179 -0.2106 -0.1251
  248loPI   C5A 3963   1.773   8.698   7.912  0.2357 -0.0338 -0.0275
  248loPI   C6A 3964   1.572   9.010   7.736 -0.1574 -0.1540  0.2155
  248loPI   C1B 3965   2.141   8.313   9.638 -0.1639 -0.1394  0.1387
  248loPI   C2B 3966   2.033   8.223   9.220 -0.0462  0.1868 -0.0648
  248loPI   C3B 3967   2.048   8.259   8.718  0.0138 -0.1632  0.3422
  248loPI   C4B 3968   1.971   8.398   8.310 -0.1913  0.3121 -0.1116
  249loPI    C1 3969   8.463  11.049  10.899 -0.0317  0.0127 -0.2076
  249loPI    C2 3970   8.694  11.213  10.616  0.3737 -0.1455  0.0224
  249loPI    C3 3971   8.759  11.298  11.001 -0.0186 -0.1197  0.0873
  249loPI   PO4 3972   8.360  10.845  10.788  0.0453 -0.1965  0.3469
  249loPI   GL1 3973   8.342  10.812  10.266  0.1211  0.2077 -0.0347
  249loPI   GL2 3974   8.286  10.633  10.236  0.2502  0.2810  0.4454
  249loPI   C1A 3975   8.424  11.022   9.895 -0.1407  0.1921  0.1737
  249loPI   C2A 3976   8.351  11.160   9.505 -0.3128 -0.0014  0.0763
  249loPI   C3A 3977   8.396  10.914   9.195  0.2236 -0.2676  0.0389
  249loPI   C4A 3978   8.369  10.809   8.770  0.1376 -0.0857 -0.0955
  249loPI   C5A 3979   8.506  10.847   8.299 -0.0798  0.3599  0.0959
  249loPI   C6A 3980   8.433  10.665   7.991  0.1225 -0.1969  0.1535
  249loPI   C1B 3981   8.223  10.524   9.823 -0.2874 -0.0811  0.1621
  249loPI   C2B 3982   8.190  10.483   9.443  0.2555  0.0952  0.0883
  249loPI   C3B 3983   8.009  10.485   9.047  0.0838 -0.0993 -0.1958
  249loPI   C4B 3984   7.998  10.509   8.594 -0.0367 -0.1007 -0.1343
  250loPI    C1 3985   3.571  17.719  10.397  0.2298  0.0464 -0.1455
  250loPI    C2 3986   3.758  17.983  10.162  0.2213  0.0123 -0.1908
  250loPI    C3 3987   3.652  18.086  10.534 -0.2275  0.2414 -0.3742
  250loPI   PO4 3988   3.600  17.484  10.212 -0.2257  0.0242  0.1634
  250loPI   GL1 3989   3.672  17.544   9.849 -0.0070 -0.2584  0.0382
  250loPI   GL2 3990   3.542  17.230   9.692  0.2350  0.2829 -0.3626
  250loPI   C1A 3991   3.701  17.579   9.396  0.1535  0.1686  0.0347
  250loPI   C2A 3992   3.649  17.450   8.875  0.0567 -0.1409 -0.3371
  250loPI   C3A 3993   3.688  17.331   8.398  0.0939 -0.0565 -0.0495
  250loPI   C4A 3994   3.600  17.194   7.971  0.2559  0.1588  0.0795
  250loPI   C5A 3995   3.748  17.148   7.573 -0.2032  0.2744 -0.3136
  250loPI   C6A 3996   4.079  17.371   7.392  0.0018 -0.2249  0.1044
  250loPI   C1B 3997   3.423  17.185   9.314 -0.0875  0.3569 -0.1817
  250loPI   C2B 3998   3.258  17.056   8.890  0.1885 -0.0878  0.1863
  250loPI   C3B 3999   3.280  16.982   8.394 -0.1869  0.1791 -0.1049
  250loPI   C4B 4000   3.124  16.923   8.009 -0.0183 -0.4233  0.1146
  251loPI    C1 4001  14.241  17.571  10.119 -0.0246 -0.2503 -0.0809
  251loPI    C2 4002  14.233  17.240  10.344 -0.0942 -0.1778  0.0238
  251loPI    C3 4003  14.288  17.598  10.515  0.1415 -0.1502 -0.1064
  251loPI   PO4 4004  14.412  17.494   9.918  0.2030  0.2607  0.0324
  251loPI   GL1 4005  14.309  17.269   9.573 -0.0144  0.2101  0.1680
  251loPI   GL2 4006  14.127  17.079   9.792  0.1423 -0.0195 -0.0511
  251loPI   C1A 4007  14.428  17.072   9.272  0.2931  0.1686  0.0726
  251loPI   C2A 4008  14.395  17.071   8.804 -0.0572  0.0107 -0.2494
  251loPI   C3A 4009  14.216  17.058   8.376 -0.0051  0.1764  0.0822
  251loPI   C4A 4010  13.925  17.161   8.030 -0.0260  0.2082 -0.0284
  251loPI   C5A 4011  13.575  17.247   7.820  0.2625  0.3728 -0.0444
  251loPI   C6A 4012  13.618  17.543   7.479  0.2124 -0.0913  0.1647
  251loPI   C1B 4013  13.915  16.841   9.435 -0.1198  0.0497  0.2287
  251loPI   C2B 4014  13.846  17.045   9.211  0.0989  0.1380  0.0418
  251loPI   C3B 4015  13.612  17.086   8.888  0.3231  0.2540  0.1581
  251loPI   C4B 4016  13.550  17.242   8.396 -0.2316  0.1085 -0.0352
  252loPI    C1 4017   7.940  12.932  10.894 -0.4137  0.0987 -0.0789
  252loPI    C2 4018   7.818  12.617  10.680  0.0159 -0.2004  0.1022
  252loPI    C3 4019   7.894  12.577  11.071 -0.1616  0.1922  0.1829
  252loPI   PO4 4020   8.065  13.044  10.695  0.2784  0.0196  0.0736
  252loPI   GL1 4021   7.892  13.245  10.280  0.1942  0.1681  0.3832
  252loPI   GL2 4022   8.116  13.032  10.246  0.1678 -0.4210  0.3159
  252loPI   C1A 4023   7.761  13.449   9.963 -0.2189 -0.0669  0.0365
  252loPI   C2A 4024   7.648  13.545   9.612  0.0512 -0.1026 -0.0519
  252loPI   C3A 4025   7.685  13.477   9.113  0.2382 -0.3760 -0.0202
  252loPI   C4A 4026   7.626  13.615   8.716 -0.2099 -0.3228  0.0145
  252loPI   C5A 4027   7.480  13.423   8.328 -0.5117 -0.1113  0.1750
  252loPI   C6A 4028   7.678  13.246   7.885  0.1269 -0.0785  0.0487
  252loPI   C1B 4029   7.925  13.014   9.759 -0.5615 -0.0273  0.2538
  252loPI   C2B 4030   7.874  12.957   9.368  0.2389 -0.1390 -0.1622
  252loPI   C3B 4031   7.775  13.113   8.844 -0.0489  0.3627 -0.0396
  252loPI   C4B 4032   7.774  13.008   8.340  0.3181 -0.4131  0.3007
  253loPI    C1 4033  15.023   0.061   9.928  0.1812 -0.2774  0.2021
  253loPI    C2 4034  14.744  -0.212   9.843  0.1272 -0.1543 -0.0237
  253loPI    C3 4035  14.666   0.177   9.791  0.1979 -0.0921  0.3113
  253loPI   PO4 4036  15.219  -0.041   9.898 -0.3363  0.1004 -0.5706
  253loPI   GL1 4037  15.419  -0.137   9.522 -0.2552  0.1961  0.2353
  253loPI   GL2 4038  15.248   0.231   9.462  0.0969  0.1658 -0.2525
  253loPI   C1A 4039  15.475  -0.292   9.101  0.1572  0.0149 -0.1148
  253loPI   C2A 4040  15.429  -0.404   8.663  0.2081  0.0808 -0.1192
  253loPI   C3A 4041  15.354  -0.314   8.245  0.0128 -0.0215  0.1332
  253loPI   C4A 4042  15.314  -0.033   7.965 -0.1140  0.0963 -0.0530
  253loPI   C5A 4043  15.331   0.164   7.499 -0.0649 -0.1368  0.0017
  253loPI   C6A 4044  15.306   0.491   7.381 -0.1993 -0.2019 -0.0343
  253loPI   C1B 4045  15.191   0.262   9.038  0.1373  0.0137  0.1004
  253loPI   C2B 4046  15.161   0.227   8.499 -0.1801 -0.1857  0.2782
  253loPI   C3B 4047  14.917   0.182   8.153 -0.0662  0.1837 -0.1034
  253loPI   C4B 4048  14.807   0.276   7.702 -0.0445  0.1724  0.0346
  254loPI    C1 4049   2.370  10.208  10.655 -0.0144 -0.0922 -0.1064
  254loPI    C2 4050   2.236  10.414  10.971  0.0009  0.0101 -0.1660
  254loPI    C3 4051   2.130  10.031  10.922  0.2404 -0.0968  0.1236
  254loPI   PO4 4052   2.289  10.350  10.495  0.1228  0.1939  0.2232
  254loPI   GL1 4053   2.225  10.679  10.211  0.1361  0.1054 -0.0235
  254loPI   GL2 4054   1.917  10.390  10.158  0.2382  0.2919 -0.1332
  254loPI   C1A 4055   2.321  10.614   9.774  0.1863 -0.1094  0.1967
  254loPI   C2A 4056   2.253  10.604   9.325 -0.0891 -0.0424 -0.0590
  254loPI   C3A 4057   2.217  10.434   8.813  0.0292  0.0487  0.4754
  254loPI   C4A 4058   2.230  10.490   8.384  0.1483  0.1398  0.1675
  254loPI   C5A 4059   2.179  10.271   8.047 -0.2177 -0.1529  0.0418
  254loPI   C6A 4060   2.387  10.129   7.651 -0.0930  0.1847 -0.1960
  254loPI   C1B 4061   2.038  10.143   9.869 -0.1717  0.1923 -0.0232
  254loPI   C2B 4062   1.964  10.171   9.430 -0.1681  0.3193  0.0906
  254loPI   C3B 4063   1.825  10.060   9.006 -0.0149  0.2815 -0.3323
  254loPI   C4B 4064   1.931  10.098   8.579  0.3225 -0.0611 -0.1331
  255loPI    C1 4065   9.348   8.021  10.703  0.1016 -0.1700  0.2756
  255loPI    C2 4066   9.185   7.721  10.911  0.1186 -0.2537  0.1689
  255loPI    C3 4067   9.119   8.099  11.022 -0.1724 -0.2850  0.1113
  255loPI   PO4 4068   9.569   7.885  10.501  0.3613 -0.2837  0.0630
  255loPI   GL1 4069   9.541   7.534  10.162 -0.0810 -0.0968  0.1366
  255loPI   GL2 4070   9.344   7.802  10.043  0.0229 -0.1834 -0.1116
  255loPI   C1A 4071   9.750   7.629   9.786 -0.3434 -0.0262 -0.0308
  255loPI   C2A 4072   9.790   7.798   9.344 -0.0165 -0.0886 -0.1611
  255loPI   C3A 4073   9.817   7.678   8.947 -0.1699 -0.2693  0.0767
  255loPI   C4A 4074   9.880   7.731   8.584  0.0233  0.1737  0.0968
  255loPI   C5A 4075   9.793   7.701   8.173  0.3325  0.0677  0.0462
  255loPI   C6A 4076   9.380   7.825   7.827  0.0724  0.2849 -0.0521
  255loPI   C1B 4077   9.339   7.906   9.606  0.2371  0.0845  0.0662
  255loPI   C2B 4078   9.308   7.965   9.132  0.0319 -0.1130 -0.2733
  255loPI   C3B 4079   9.369   7.830   8.739  0.3052 -0.0033 -0.0854
  255loPI   C4B 4080   9.364   7.894   8.340 -0.1014  0.1919  0.0102
  256loPI    C1 4081  14.618   6.288  10.889  0.0529 -0.1153 -0.3709
  256loPI    C2 4082  14.976   6.112  10.915  0.0558 -0.0730 -0.0936
  256loPI    C3 4083  14.663   5.959  11.112  0.0040  0.0939 -0.0444
  256loPI   PO4 4084  14.658   6.449  10.669  0.0388 -0.1784  0.0017
  256loPI   GL1 4085  14.711   6.343  10.250  0.1286  0.0455  0.1490
  256loPI   GL2 4086  14.528   6.106  10.036  0.2013 -0.1651  0.0187
  256loPI   C1A 4087  14.893   6.395   9.908  0.0387  0.1615 -0.3946
  256loPI   C2A 4088  14.888   6.461   9.457 -0.1762  0.1153 -0.2322
  256loPI   C3A 4089  14.932   6.390   9.078  0.1383  0.0821 -0.0916
  256loPI   C4A 4090  15.004   6.306   8.621 -0.3832  0.0871 -0.1349
  256loPI   C5A 4091  14.988   6.434   8.224  0.1908  0.2511  0.2034
  256loPI   C6A 4092  14.998   6.267   7.836 -0.2943  0.0344  0.0626
  256loPI   C1B 4093  14.531   6.093   9.507 -0.1847  0.0446 -0.0860
  256loPI   C2B 4094  14.476   5.977   9.112  0.0468 -0.0665 -0.1333
  256loPI   C3B 4095  14.602   5.975   8.690  0.0440  0.1027 -0.3662
  256loPI   C4B 4096  14.703   5.932   8.263 -0.2271 -0.1087 -0.0071
  257loPI    C1 4097  16.277   5.409  10.498  0.0278  0.0618  0.1323
  257loPI    C2 4098  16.434   5.230  10.820  0.1092  0.0221  0.0707
  257loPI    C3 4099  16.164   5.522  10.865  0.0320 -0.0642  0.1729
  257loPI   PO4 4100  16.425   5.485  10.388 -0.1091  0.2070  0.0923
  257loPI   GL1 4101  16.608   5.251  10.007  0.0883 -0.1858  0.0358
  257loPI   GL2 4102  16.828   5.360  10.054 -0.0282  0.1156 -0.3731
  257loPI   C1A 4103  16.479   5.441   9.621  0.3568 -0.0748  0.2623
  257loPI   C2A 4104  16.529   5.392   9.284  0.0176 -0.0981 -0.0448
  257loPI   C3A 4105  16.529   5.451   8.885 -0.1187  0.0156  0.3405
  257loPI   C4A 4106  16.541   5.543   8.463  0.2411 -0.1138 -0.4811
  257loPI   C5A 4107  16.573   5.784   8.127 -0.2936 -0.0354  0.2346
  257loPI   C6A 4108  16.271   6.101   7.923 -0.1009 -0.2381  0.0811
  257loPI   C1B 4109  16.940   5.305   9.527  0.0526 -0.1895 -0.0454
  257loPI   C2B 4110  16.986   5.326   9.094 -0.3273  0.0576  0.2263
  257loPI   C3B 4111  17.115   5.327   8.717  0.2221 -0.4175  0.1077
  257loPI   C4B 4112  17.084   5.395   8.302  0.3488  0.0333 -0.0395
  258loPI    C1 4113   1.922  13.641  10.576  0.1817 -0.1794  0.0565
  258loPI    C2 4114   2.120  13.340  10.751  0.2477  0.0510  0.3874
  258loPI    C3 4115   1.911  13.599  10.974  0.1100  0.1942  0.0977
  258loPI   PO4 4116   2.174  13.773  10.458 -0.0503  0.2916  0.3195
  258loPI   GL1 4117   2.268  13.553  10.142 -0.1972 -0.0834  0.2371
  258loPI   GL2 4118   2.076  13.292  10.246  0.0025  0.3424 -0.0298
  258loPI   C1A 4119   2.244  13.803   9.767 -0.1070 -0.3321  0.0827
  258loPI   C2A 4120   2.211  13.839   9.344 -0.0469 -0.1492 -0.2994
  258loPI   C3A 4121   2.268  13.784   8.917  0.1439 -0.0163  0.1397
  258loPI   C4A 4122   2.291  13.855   8.547 -0.2509 -0.1067 -0.0292
  258loPI   C5A 4123   2.235  13.812   8.099  0.1764 -0.0077 -0.1455
  258loPI   C6A 4124   2.262  14.191   7.761 -0.0609  0.0241  0.1846
  258loPI   C1B 4125   1.962  13.398   9.831  0.1744 -0.2801 -0.2421
  258loPI   C2B 4126   1.802  13.375   9.406 -0.0181  0.3577  0.1491
  258loPI   C3B 4127   1.797  13.414   9.042  0.1711  0.0364 -0.1491
  258loPI   C4B 4128   1.928  13.483   8.646  0.3032  0.0265  0.4009
  259loPI    C1 4129  14.131  12.408  10.882 -0.1085  0.0473  0.0848
  259loPI    C2 4130  14.079  12.025  10.985 -0.4143  0.0790  0.0593
  259loPI    C3 4131  13.912  12.315  11.204 -0.4470  0.1822 -0.1005
  259loPI   PO4 4132  14.149  12.331  10.585 -0.2381  0.1087  0.1873
  259loPI   GL1 4133  14.233  12.178  10.209  0.0750  0.1304  0.3317
  259loPI   GL2 4134  14.474  12.046  10.098 -0.1859 -0.3955 -0.1720
  259loPI   C1A 4135  14.171  12.337   9.790 -0.1270 -0.0718  0.2832
  259loPI   C2A 4136  14.200  12.326   9.392 -0.0345  0.0968  0.3298
  259loPI   C3A 4137  14.227  12.262   8.928  0.2604  0.3122  0.1086
  259loPI   C4A 4138  14.086  12.218   8.602  0.2169 -0.2466  0.0280
  259loPI   C5A 4139  13.926  12.373   8.250  0.0502 -0.0511  0.3134
  259loPI   C6A 4140  13.738  12.491   7.886  0.1663 -0.1597  0.2369
  259loPI   C1B 4141  14.654  12.186   9.708  0.0535  0.0464  0.1718
  259loPI   C2B 4142  14.715  12.187   9.266 -0.0744 -0.0532  0.3225
  259loPI   C3B 4143  14.683  12.233   8.769  0.1638  0.0467  0.2976
  259loPI   C4B 4144  14.514  12.205   8.328  0.1678  0.1564  0.2581
  260loPI    C1 4145  13.858   9.189  10.926 -0.0275  0.0242 -0.0414
  260loPI    C2 4146  14.219   9.283  11.069  0.0776 -0.2180 -0.1412
  260loPI    C3 4147  14.144   8.910  10.948 -0.1772 -0.1454 -0.2121
  260loPI   PO4 4148  13.826   9.357  10.692 -0.1284  0.2247 -0.1537
  260loPI   GL1 4149  13.641   9.219  10.400  0.0951 -0.0952 -0.1396
  260loPI   GL2 4150  13.459   9.017  10.262 -0.3496 -0.0980 -0.0410
  260loPI   C1A 4151  13.850   9.123  10.000 -0.2902 -0.2700 -0.1336
  260loPI   C2A 4152  13.782   9.146   9.537 -0.0985  0.3482  0.1404
  260loPI   C3A 4153  13.657   9.152   9.128  0.1952  0.0754 -0.1110
  260loPI   C4A 4154  13.764   9.000   8.688  0.0967  0.2948 -0.0512
  260loPI   C5A 4155  13.756   9.115   8.287  0.3150 -0.1388  0.1434
  260loPI   C6A 4156  13.661   9.289   7.950 -0.3426 -0.3939 -0.1379
  260loPI   C1B 4157  13.405   8.959   9.895  0.2624  0.4322  0.1909
  260loPI   C2B 4158  13.385   8.741   9.456  0.0388  0.0917  0.0576
  260loPI   C3B 4159  13.369   8.745   9.051  0.2961  0.1929 -0.1218
  260loPI   C4B 4160  13.410   8.685   8.604 -0.0140  0.0670  0.1238
  261loPI    C1 4161   0.998  11.334  10.627  0.3981 -0.1377  0.0022
  261loPI    C2 4162   1.305  11.459  10.852  0.2566 -0.0307  0.1384
  261loPI    C3 4163   0.984  11.294  11.025  0.0716  0.2105  0.0317
  261loPI   PO4 4164   0.972  11.580  10.418 -0.0564 -0.0964 -0.5257
  261loPI   GL1 4165   0.785  11.813  10.064 -0.0007  0.1066  0.2691
  261loPI   GL2 4166   0.594  11.558  10.022  0.1402 -0.1606  0.2217
  261loPI   C1A 4167   0.908  11.733   9.651 -0.2108 -0.1370 -0.0823
  261loPI   C2A 4168   1.035  11.875   9.325 -0.0615  0.0049 -0.0647
  261loPI   C3A 4169   0.957  11.731   8.991 -0.0507  0.1009 -0.1851
  261loPI   C4A 4170   0.994  11.875   8.583 -0.0339  0.1431  0.0077
  261loPI   C5A 4171   1.039  11.663   8.156  0.3755  0.0517  0.1592
  261loPI   C6A 4172   1.106  11.224   7.961  0.1930  0.2561 -0.0015
  261loPI   C1B 4173   0.606  11.420   9.690  0.1679 -0.1318 -0.1741
  261loPI   C2B 4174   0.613  11.464   9.243  0.4602  0.2269 -0.2456
  261loPI   C3B 4175   0.612  11.418   8.751  0.2624  0.0458  0.0962
  261loPI   C4B 4176   0.591  11.285   8.352  0.1393 -0.1699 -0.1172
  262loPI    C1 4177  13.713  15.458  10.666  0.0054  0.0383  0.1491
  262loPI    C2 4178  13.409  15.323  10.888  0.1304 -0.0049  0.2955
  262loPI    C3 4179  13.782  15.200  10.964  0.1444 -0.2308 -0.1104
  262loPI   PO4 4180  13.613  15.469  10.385 -0.1906  0.0632  0.1285
  262loPI   GL1 4181  13.501  15.447   9.963 -0.2183 -0.0200  0.0998
  262loPI   GL2 4182  13.578  15.510   9.741  0.0924  0.2644  0.0613
  262loPI   C1A 4183  13.119  15.360   9.776  0.3099  0.1290 -0.2564
  262loPI   C2A 4184  12.940  15.320   9.366 -0.0700  0.0106  0.1961
  262loPI   C3A 4185  12.786  15.127   9.009 -0.0206  0.3935 -0.0220
  262loPI   C4A 4186  12.772  15.068   8.514  0.1242  0.0263 -0.1415
  262loPI   C5A 4187  12.965  14.820   8.062 -0.0079 -0.2049 -0.2990
  262loPI   C6A 4188  12.794  14.475   7.675  0.1378 -0.0437 -0.1932
  262loPI   C1B 4189  13.359  15.615   9.385 -0.3377 -0.0517  0.2116
  262loPI   C2B 4190  13.519  15.875   9.074 -0.2655  0.1037  0.0825
  262loPI   C3B 4191  13.797  16.061   8.795 -0.0867 -0.4963 -0.2180
  262loPI   C4B 4192  13.976  16.310   8.482 -0.0562  0.0912 -0.0220
  263loPI    C1 4193   2.286  16.818  10.199 -0.1102 -0.0597  0.0522
  263loPI    C2 4194   2.142  16.865  10.569 -0.0832  0.0947  0.0439
  263loPI    C3 4195   2.254  16.502  10.442 -0.2425  0.0139  0.1316
  263loPI   PO4 4196   2.172  16.949  10.022  0.0118 -0.0005  0.1124
  263loPI   GL1 4197   2.274  17.059   9.625 -0.1898  0.2093  0.0899
  263loPI   GL2 4198   1.965  16.867   9.592  0.3854 -0.2033  0.1164
  263loPI   C1A 4199   2.385  17.198   9.189 -0.0997 -0.1558  0.3864
  263loPI   C2A 4200   2.241  17.441   8.732 -0.1583  0.4999  0.0836
  263loPI   C3A 4201   2.275  17.514   8.236 -0.4349  0.1667 -0.0260
  263loPI   C4A 4202   2.192  17.433   7.925 -0.2371  0.1323 -0.3605
  263loPI   C5A 4203   2.129  17.021   7.610 -0.0082 -0.2689 -0.1344
  263loPI   C6A 4204   1.822  16.994   7.268  0.1194  0.0022 -0.0056
  263loPI   C1B 4205   2.027  16.875   9.154  0.0669  0.3980 -0.2059
  263loPI   C2B 4206   1.990  16.936   8.782  0.0677 -0.3244  0.1336
  263loPI   C3B 4207   1.972  16.704   8.375  0.0454  0.1209 -0.1513
  263loPI   C4B 4208   2.148  16.535   8.304 -0.1228 -0.1641  0.0752
  264loPI    C1 4209   1.126   8.969  10.702  0.3049 -0.0268 -0.2293
  264loPI    C2 4210   1.298   8.753  10.991 -0.0560 -0.2575 -0.1802
  264loPI    C3 4211   1.168   9.123  11.069  0.1039 -0.2117 -0.1260
  264loPI   PO4 4212   0.922   8.820  10.626 -0.2085 -0.0165  0.2688
  264loPI   GL1 4213   0.714   8.744  10.265  0.0826  0.3100 -0.0045
  264loPI   GL2 4214   0.404   8.512  10.201  0.1667 -0.1162  0.2102
  264loPI   C1A 4215   0.901   8.884   9.838  0.1428  0.2033 -0.0648
  264loPI   C2A 4216   0.906   9.024   9.342 -0.0616 -0.2162 -0.0460
  264loPI   C3A 4217   0.870   8.999   8.860  0.0599 -0.0515 -0.0031
  264loPI   C4A 4218   0.782   9.061   8.488  0.0882  0.2302 -0.0003
  264loPI   C5A 4219   0.716   8.778   8.137 -0.0678  0.1780  0.0274
  264loPI   C6A 4220   0.897   8.510   7.937 -0.1355 -0.2285 -0.0700
  264loPI   C1B 4221   0.388   8.674   9.779  0.0086 -0.0099  0.1305
  264loPI   C2B 4222   0.524   8.666   9.302  0.2587  0.1805 -0.0811
  264loPI   C3B 4223   0.495   8.687   8.780  0.1490 -0.2259  0.0807
  264loPI   C4B 4224   0.292   8.611   8.404  0.2031 -0.4923  0.2737
  265loPI    C1 4225  14.879   7.851  10.868  0.1814  0.1243 -0.0069
  265loPI    C2 4226  14.769   7.785  11.247 -0.1619 -0.2048 -0.1566
  265loPI    C3 4227  15.127   7.660  11.117 -0.0343 -0.0719  0.0614
  265loPI   PO4 4228  14.646   7.763  10.742 -0.2598 -0.0763 -0.0190
  265loPI   GL1 4229  14.694   7.823  10.350  0.0857  0.1404 -0.0691
  265loPI   GL2 4230  15.004   7.668  10.294 -0.2059  0.1936 -0.3013
  265loPI   C1A 4231  14.432   7.949   9.974 -0.0953 -0.1599  0.3396
  265loPI   C2A 4232  14.448   8.022   9.567 -0.0320  0.0193  0.2004
  265loPI   C3A 4233  14.566   7.915   9.144  0.1689 -0.2585 -0.0404
  265loPI   C4A 4234  14.537   7.910   8.674  0.2574  0.3210 -0.0596
  265loPI   C5A 4235  14.420   8.009   8.246  0.0849  0.4056  0.0109
  265loPI   C6A 4236  14.385   8.458   8.010  0.0089  0.1050 -0.0404
  265loPI   C1B 4237  14.948   7.745   9.894 -0.0800  0.2999 -0.1968
  265loPI   C2B 4238  14.982   7.833   9.426 -0.1444 -0.0612  0.0818
  265loPI   C3B 4239  15.017   7.753   8.930  0.1594 -0.4446  0.0985
  265loPI   C4B 4240  15.060   7.782   8.481  0.0472  0.0396 -0.0469
  266loPI    C1 4241   1.717   0.128  10.181  0.2105 -0.0057  0.0285
  266loPI    C2 4242   1.510   0.037  10.511  0.1591 -0.0986 -0.0287
  266loPI    C3 4243   1.894  -0.070  10.480  0.1035 -0.2847 -0.0890
  266loPI   PO4 4244   1.532   0.062   9.912  0.0630  0.0824 -0.0685
  266loPI   GL1 4245   1.562   0.164   9.492  0.2367  0.0838  0.0024
  266loPI   GL2 4246   1.364  -0.114   9.399 -0.2835 -0.1512  0.1113
  266loPI   C1A 4247   1.707   0.341   9.110  0.2905 -0.0387  0.0845
  266loPI   C2A 4248   1.719   0.347   8.681  0.1212 -0.0419 -0.1182
  266loPI   C3A 4249   1.647   0.341   8.242  0.1331  0.0606 -0.0852
  266loPI   C4A 4250   1.723   0.496   7.896  0.1326  0.2892  0.0092
  266loPI   C5A 4251   1.966   0.770   7.724  0.1588 -0.2190 -0.3406
  266loPI   C6A 4252   2.302   0.903   7.454 -0.1526 -0.3502 -0.1069
  266loPI   C1B 4253   1.473  -0.059   8.967 -0.2834  0.2641 -0.0424
  266loPI   C2B 4254   1.498  -0.052   8.591  0.0689 -0.0786 -0.1497
  266loPI   C3B 4255   1.256   0.054   8.254  0.1017  0.1308 -0.3085
  266loPI   C4B 4256   1.178   0.402   7.839  0.1257  0.0574  0.0267
  267loPI    C1 4257  15.463   1.535  10.079 -0.0384  0.0799 -0.0029
  267loPI    C2 4258  15.259   1.879  10.081  0.0742  0.1472  0.0217
  267loPI    C3 4259  15.442   1.753  10.414  0.0787  0.0907 -0.0022
  267loPI   PO4 4260  15.321   1.428   9.787 -0.2366 -0.1936  0.0993
  267loPI   GL1 4261  15.291   1.462   9.414 -0.1409  0.1587 -0.0266
  267loPI   GL2 4262  15.460   1.639   9.188 -0.0357 -0.2113 -0.2311
  267loPI   C1A 4263  15.004   1.254   9.098 -0.0829  0.0101  0.1800
  267loPI   C2A 4264  14.889   1.186   8.620  0.1942 -0.2069  0.0597
  267loPI   C3A 4265  14.825   1.192   8.150  0.3072  0.1964  0.0170
  267loPI   C4A 4266  14.777   1.148   7.785  0.0221 -0.0226 -0.1127
  267loPI   C5A 4267  14.413   1.140   7.472 -0.0957 -0.2102 -0.3303
  267loPI   C6A 4268  14.107   1.329   7.176  0.0260  0.0011 -0.0149
  267loPI   C1B 4269  15.286   1.682   8.765 -0.1863 -0.1165  0.1087
  267loPI   C2B 4270  15.345   1.467   8.340 -0.1629 -0.2500 -0.0219
  267loPI   C3B 4271  15.223   1.624   8.003 -0.2848 -0.0308 -0.0140
  267loPI   C4B 4272  15.362   1.541   7.603 -0.0261 -0.3741 -0.0247
  268loPI    C1 4273   5.331  17.808  10.460 -0.0919 -0.1271 -0.0121
  268loPI    C2 4274   5.018  18.001  10.619 -0.2177 -0.0883 -0.3007
  268loPI    C3 4275   5.247  17.767  10.849 -0.2568  0.1480 -0.0158
  268loPI   PO4 4276   5.163  17.675  10.291  0.2947  0.0154  0.0093
  268loPI   GL1 4277   5.123  17.669   9.908  0.1862  0.0850  0.1804
  268loPI   GL2 4278   5.046  17.242   9.890 -0.0708 -0.2632 -0.1183
  268loPI   C1A 4279   5.369  17.682   9.517 -0.0903 -0.1319 -0.2268
  268loPI   C2A 4280   5.417  17.778   8.976 -0.1570  0.1531  0.0063
  268loPI   C3A 4281   5.560  17.802   8.499 -0.0606 -0.0069 -0.2364
  268loPI   C4A 4282   5.678  17.861   8.037 -0.0726  0.0504 -0.0345
  268loPI   C5A 4283   6.127  17.778   7.766 -0.1032  0.1223  0.0528
  268loPI   C6A 4284   6.225  17.843   7.347 -0.0703 -0.3140  0.0062
  268loPI   C1B 4285   4.933  17.425   9.487  0.1463  0.0481  0.4243
  268loPI   C2B 4286   5.051  17.519   9.036  0.3900 -0.0052  0.2196
  268loPI   C3B 4287   5.162  17.516   8.577 -0.2550 -0.3456  0.1148
  268loPI   C4B 4288   5.242  17.584   8.198 -0.0598  0.1690  0.2638
  269loPI    C1 4289  10.626   6.981  10.941  0.2082  0.0625 -0.1523
  269loPI    C2 4290  10.809   7.300  11.098  0.0189  0.1439 -0.0931
  269loPI    C3 4291  10.755   6.971  11.320 -0.0714  0.1871 -0.0504
  269loPI   PO4 4292  10.754   7.042  10.574  0.1119 -0.0777 -0.2477
  269loPI   GL1 4293  10.715   7.306  10.169  0.2220 -0.2454 -0.0022
  269loPI   GL2 4294  10.789   7.512   9.930  0.0160 -0.1193 -0.1276
  269loPI   C1A 4295  10.456   7.046   9.930  0.1480  0.0025 -0.2500
  269loPI   C2A 4296  10.440   7.032   9.471  0.1450  0.0158  0.1365
  269loPI   C3A 4297  10.400   7.093   9.054  0.1077 -0.2089  0.1079
  269loPI   C4A 4298  10.488   7.198   8.651 -0.0287  0.0755 -0.1188
  269loPI   C5A 4299  10.504   7.215   8.210  0.0254  0.0490  0.0304
  269loPI   C6A 4300  10.807   7.089   7.777 -0.0039 -0.1672  0.0279
  269loPI   C1B 4301  10.730   7.474   9.565  0.0543 -0.0051  0.3565
  269loPI   C2B 4302  10.779   7.477   9.124 -0.0490  0.0103 -0.0368
  269loPI   C3B 4303  10.943   7.486   8.674  0.1136  0.0755  0.2922
  269loPI   C4B 4304  11.022   7.615   8.353 -0.3273  0.2071 -0.2765
  270loPI    C1 4305  10.375   9.574  10.665 -0.0062 -0.0809 -0.0805
  270loPI    C2 4306  10.452   9.260  10.429  0.0473 -0.0911 -0.0494
  270loPI    C3 4307  10.600   9.273  10.801  0.1158  0.0100 -0.0797
  270loPI   PO4 4308  10.096   9.578  10.610 -0.0214  0.0659  0.0309
  270loPI   GL1 4309   9.848   9.691  10.197 -0.3325 -0.0583  0.0623
  270loPI   GL2 4310   9.828   9.429  10.006 -0.1263  0.0986  0.0024
  270loPI   C1A 4311   9.766  10.021   9.885 -0.1410  0.2214 -0.0013
  270loPI   C2A 4312   9.596  10.265   9.602  0.2856  0.0017 -0.0863
  270loPI   C3A 4313   9.578  10.352   9.230  0.1946 -0.1109  0.1507
  270loPI   C4A 4314   9.610  10.074   8.778  0.2990 -0.1171  0.0282
  270loPI   C5A 4315   9.482  10.137   8.303  0.1080 -0.1622  0.0039
  270loPI   C6A 4316   9.349  10.344   7.977  0.0259 -0.1466  0.3171
  270loPI   C1B 4317   9.876   9.183   9.670  0.0430  0.1044 -0.0835
  270loPI   C2B 4318   9.839   9.220   9.210 -0.2410 -0.1237  0.0318
  270loPI   C3B 4319  10.026   9.215   8.818 -0.0479 -0.0073  0.1650
  270loPI   C4B 4320   9.965   9.144   8.427  0.1666 -0.0954  0.2603
  271loPI    C1 4321   8.027   4.373  11.047 -0.0142 -0.0368 -0.1036
  271loPI    C2 4322   7.725   4.332  11.306  0.0263  0.4918  0.0376
  271loPI    C3 4323   8.100   4.255  11.422 -0.0314 -0.0298 -0.0980
  271loPI   PO4 4324   7.874   4.302  10.766  0.1086  0.2415  0.0673
  271loPI   GL1 4325   7.961   4.399  10.311  0.1439  0.0877  0.0417
  271loPI   GL2 4326   7.605   4.397  10.269 -0.0294  0.1766 -0.1126
  271loPI   C1A 4327   8.268   4.360  10.088  0.1251  0.0536 -0.2010
  271loPI   C2A 4328   8.462   4.231   9.735 -0.0581 -0.0193  0.1095
  271loPI   C3A 4329   8.356   4.285   9.379  0.2037 -0.0330 -0.2635
  271loPI   C4A 4330   8.452   4.290   8.863 -0.2286 -0.0328  0.0485
  271loPI   C5A 4331   8.376   4.355   8.451  0.3337  0.0759 -0.2361
  271loPI   C6A 4332   8.481   4.268   7.997  0.0108  0.0786  0.0322
  271loPI   C1B 4333   7.796   4.545   9.829 -0.3053  0.3369 -0.0335
  271loPI   C2B 4334   7.832   4.426   9.475  0.0539  0.1218 -0.0231
  271loPI   C3B 4335   7.831   4.473   9.008  0.0708 -0.0061 -0.1758
  271loPI   C4B 4336   7.853   4.472   8.543  0.2956  0.2467  0.1955
  272loPI    C1 4337   9.595   2.892  10.739 -0.0350 -0.2295 -0.0777
  272loPI    C2 4338   9.294   3.121  10.868  0.1016 -0.0732 -0.0329
  272loPI    C3 4339   9.501   2.898  11.127 -0.0515 -0.2739 -0.0810
  272loPI   PO4 4340   9.663   3.051  10.557  0.0968  0.0003  0.2357
  272loPI   GL1 4341   9.830   3.103  10.030  0.1175  0.1944  0.0873
  272loPI   GL2 4342  10.052   3.467  10.101 -0.0273 -0.0921 -0.0220
  272loPI   C1A 4343   9.792   3.025   9.599 -0.0647  0.0655  0.0021
  272loPI   C2A 4344   9.674   3.085   9.186  0.0535  0.1965  0.1405
  272loPI   C3A 4345   9.720   3.105   8.822 -0.3108  0.1343 -0.4253
  272loPI   C4A 4346   9.737   3.138   8.392 -0.1594 -0.1763  0.0402
  272loPI   C5A 4347  10.039   3.278   8.045  0.0335 -0.3799  0.0795
  272loPI   C6A 4348   9.859   3.243   7.653 -0.1618  0.0923  0.3958
  272loPI   C1B 4349  10.035   3.512   9.641  0.2924 -0.0622 -0.0027
  272loPI   C2B 4350  10.069   3.408   9.274  0.1305  0.0052  0.1928
  272loPI   C3B 4351  10.018   3.496   8.897  0.0562 -0.2175  0.2199
  272loPI   C4B 4352  10.056   3.543   8.503  0.0951  0.2664 -0.2792
  273loPI    C1 4353  16.690  17.771  10.170 -0.1931  0.1044 -0.1750
  273loPI    C2 4354  16.637  17.716  10.563  0.0990 -0.0241 -0.1511
  273loPI    C3 4355  16.328  17.823  10.332 -0.0554  0.1408  0.1272
  273loPI   PO4 4356  16.810  17.482  10.072 -0.1057 -0.3721  0.2924
  273loPI   GL1 4357  16.870  17.369   9.678  0.3370  0.2294  0.0445
  273loPI   GL2 4358  17.155  17.204   9.590  0.0581 -0.1614 -0.1368
  273loPI   C1A 4359  16.568  17.485   9.351  0.0934 -0.0388  0.0654
  273loPI   C2A 4360  16.549  17.401   8.938 -0.0230 -0.3015  0.6093
  273loPI   C3A 4361  16.514  17.336   8.512 -0.5362  0.0148  0.0888
  273loPI   C4A 4362  16.561  17.266   8.052 -0.1489  0.1239 -0.0102
  273loPI   C5A 4363  16.567  16.895   7.768 -0.2787  0.0954  0.1229
  273loPI   C6A 4364  16.568  16.466   7.697  0.0095 -0.1580  0.1940
  273loPI   C1B 4365  17.011  17.419   9.184 -0.2814  0.1195  0.1648
  273loPI   C2B 4366  17.033  17.338   8.806 -0.1597  0.0292 -0.0818
  273loPI   C3B 4367  17.039  17.130   8.407 -0.3153  0.4124 -0.3749
  273loPI   C4B 4368  17.014  17.079   7.955 -0.1055  0.0737 -0.0666
  274loPI    C1 4369   9.528   0.291  10.592  0.1748 -0.0709  0.0186
  274loPI    C2 4370   9.487   0.309  10.990  0.0210  0.1206 -0.0045
  274loPI    C3 4371   9.268   0.049  10.778  0.0979  0.0233  0.0347
  274loPI   PO4 4372   9.803   0.289  10.570  0.2050 -0.2998 -0.1364
  274loPI   GL1 4373   9.950   0.202  10.192 -0.0832 -0.1140 -0.2801
  274loPI   GL2 4374   9.649  -0.135  10.255 -0.2405 -0.0143 -0.2236
  274loPI   C1A 4375   9.987   0.079   9.774  0.1556 -0.2413  0.2829
  274loPI   C2A 4376   9.957   0.033   9.352  0.2012 -0.1288  0.0659
  274loPI   C3A 4377   9.954   0.048   8.962  0.1132  0.3488  0.2447
  274loPI   C4A 4378   9.864   0.085   8.527 -0.1666 -0.0250  0.1327
  274loPI   C5A 4379   9.738  -0.001   8.110  0.1184  0.0964 -0.0269
  274loPI   C6A 4380   9.489   0.094   7.743 -0.0860  0.1118  0.3162
  274loPI   C1B 4381   9.587  -0.203   9.833 -0.1132  0.1031  0.2642
  274loPI   C2B 4382   9.595  -0.338   9.372 -0.1068  0.1908  0.0443
  274loPI   C3B 4383   9.570  -0.331   8.937  0.3219 -0.3115 -0.0454
  274loPI   C4B 4384   9.627  -0.505   8.492 -0.0319 -0.1613 -0.2707
  275loPI    C1 4385   8.363  12.213  10.405  0.2312  0.2357  0.0064
  275loPI    C2 4386   8.301  12.603  10.469 -0.1552  0.1560  0.1488
  275loPI    C3 4387   8.234  12.339  10.762 -0.2320 -0.0497 -0.0516
  275loPI   PO4 4388   8.282  12.186  10.185 -0.0873  0.0509  0.1129
  275loPI   GL1 4389   8.220  12.102   9.792 -0.1213 -0.2598  0.0701
  275loPI   GL2 4390   8.158  11.877   9.691 -0.1880 -0.0685  0.2541
  275loPI   C1A 4391   8.398  12.301   9.462  0.5187  0.0043 -0.0604
  275loPI   C2A 4392   8.457  12.362   9.015 -0.0908 -0.1315 -0.0105
  275loPI   C3A 4393   8.376  12.283   8.541  0.2206  0.2139 -0.1671
  275loPI   C4A 4394   8.062  11.997   8.318  0.4842  0.2423 -0.2728
  275loPI   C5A 4395   8.044  11.582   8.221 -0.2414  0.0454  0.2386
  275loPI   C6A 4396   8.264  11.185   8.111 -0.1363 -0.0969  0.2968
  275loPI   C1B 4397   8.147  11.594   9.399  0.2732  0.0866 -0.0509
  275loPI   C2B 4398   8.263  11.347   8.995  0.2226  0.4821  0.3497
  275loPI   C3B 4399   8.088  11.198   8.647 -0.0863  0.3041  0.0794
  275loPI   C4B 4400   7.991  10.880   8.304 -0.0868 -0.1334 -0.1642
  276loPI    C1 4401  11.113  15.562  11.024 -0.0014 -0.1525  0.1347
  276loPI    C2 4402  10.936  15.590  11.382  0.1285  0.0383  0.1857
  276loPI    C3 4403  11.288  15.403  11.347 -0.0297 -0.2514  0.1018
  276loPI   PO4 4404  11.029  15.503  10.775  0.2463  0.2002  0.1408
  276loPI   GL1 4405  11.040  15.253  10.363  0.1070 -0.2456 -0.0805
  276loPI   GL2 4406  11.315  15.064  10.428 -0.3006  0.0767  0.3460
  276loPI   C1A 4407  10.888  15.058  10.013 -0.0759  0.0800 -0.0150
  276loPI   C2A 4408  10.903  15.091   9.522 -0.4225 -0.2838  0.2714
  276loPI   C3A 4409  10.947  15.134   9.064 -0.0393  0.0878 -0.0453
  276loPI   C4A 4410  10.980  15.029   8.662  0.0925  0.2091  0.0274
  276loPI   C5A 4411  11.013  15.178   8.215 -0.0662  0.0688  0.0394
  276loPI   C6A 4412  10.682  15.251   7.960  0.2855 -0.1751  0.0472
  276loPI   C1B 4413  11.449  15.106   9.981 -0.3544  0.3263  0.0509
  276loPI   C2B 4414  11.466  15.112   9.585 -0.0090  0.0522  0.1726
  276loPI   C3B 4415  11.417  15.016   9.167  0.0488 -0.2595 -0.1364
  276loPI   C4B 4416  11.496  14.847   8.695 -0.0594 -0.4204  0.0698
  277loPI    C1 4417  17.966   0.661   9.860 -0.0413  0.2727  0.0690
  277loPI    C2 4418  17.591   0.545   9.784  0.0129  0.0313  0.1610
  277loPI    C3 4419  17.687   0.686  10.146  0.0978 -0.2869  0.2650
  277loPI   PO4 4420  18.016   0.695   9.548 -0.4067 -0.0399  0.2065
  277loPI   GL1 4421  18.339   1.001   9.339  0.0053  0.3202 -0.1691
  277loPI   GL2 4422  18.056   1.181   9.351  0.2231 -0.0200  0.1640
  277loPI   C1A 4423  18.289   0.839   8.994  0.0380 -0.3768 -0.0430
  277loPI   C2A 4424  18.143   0.822   8.584  0.0285 -0.2068 -0.0757
  277loPI   C3A 4425  18.150   0.805   8.100 -0.2623  0.1568  0.5375
  277loPI   C4A 4426  18.197   0.882   7.591  0.2500 -0.1167 -0.1394
  277loPI   C5A 4427  18.453   1.129   7.323 -0.0282 -0.0303  0.1274
  277loPI   C6A 4428  18.297   1.426   7.155 -0.1911  0.1132  0.1382
  277loPI   C1B 4429  18.192   1.389   8.969 -0.3915  0.1323  0.0821
  277loPI   C2B 4430  18.093   1.396   8.547  0.1700  0.2524  0.1406
  277loPI   C3B 4431  18.001   1.257   8.186 -0.3771  0.4670 -0.0532
  277loPI   C4B 4432  17.657   1.336   7.874  0.1599 -0.1054  0.1943
  278loPI    C1 4433  11.520   5.785  10.753  0.0444  0.3307  0.0516
  278loPI    C2 4434  11.339   6.016  11.024 -0.1119 -0.0241  0.2573
  278loPI    C3 4435  11.544   5.693  11.141 -0.1423 -0.1565 -0.0447
  278loPI   PO4 4436  11.658   5.939  10.512 -0.1775 -0.0166  0.2798
  278loPI   GL1 4437  11.719   6.226  10.081  0.0012  0.0888 -0.0071
  278loPI   GL2 4438  11.397   6.366  10.164  0.1165 -0.0598  0.0460
  278loPI   C1A 4439  11.643   6.324   9.650  0.0473 -0.2198  0.0966
  278loPI   C2A 4440  11.591   6.363   9.253 -0.4636  0.2318  0.0912
  278loPI   C3A 4441  11.605   6.278   8.782 -0.0405  0.2376  0.0019
  278loPI   C4A 4442  11.810   6.412   8.397  0.0232  0.1246 -0.1251
  278loPI   C5A 4443  12.202   6.663   8.198 -0.0254 -0.0998  0.4957
  278loPI   C6A 4444  12.533   6.725   8.323 -0.1879  0.2876 -0.1773
  278loPI   C1B 4445  11.112   6.476   9.787  0.0201 -0.1357 -0.0654
  278loPI   C2B 4446  11.093   6.475   9.270  0.1028  0.0971 -0.4102
  278loPI   C3B 4447  11.032   6.354   8.782 -0.0022  0.1172 -0.0527
  278loPI   C4B 4448  11.147   6.556   8.521 -0.0466 -0.2718  0.3224
  279loPI    C1 4449  16.003  14.008  10.496 -0.1462 -0.0650 -0.0203
  279loPI    C2 4450  15.880  13.847  10.842 -0.0264  0.1090  0.1046
  279loPI    C3 4451  16.188  14.103  10.838  0.2201 -0.1836 -0.1810
  279loPI   PO4 4452  15.915  13.806  10.374  0.2416 -0.1064  0.3237
  279loPI   GL1 4453  16.036  13.710   9.947 -0.0666  0.3305  0.0037
  279loPI   GL2 4454  15.963  14.099   9.966  0.2585  0.1765 -0.0654
  279loPI   C1A 4455  16.016  13.691   9.506 -0.3039 -0.0914 -0.2279
  279loPI   C2A 4456  16.115  13.684   9.122 -0.0695 -0.2461 -0.1892
  279loPI   C3A 4457  16.124  13.665   8.640 -0.1860 -0.1234  0.5360
  279loPI   C4A 4458  16.160  13.529   8.131 -0.0513  0.0186 -0.0986
  279loPI   C5A 4459  16.276  13.632   7.655 -0.1200  0.2027 -0.0618
  279loPI   C6A 4460  16.572  13.733   7.439 -0.1594 -0.2217 -0.0247
  279loPI   C1B 4461  15.866  14.142   9.528  0.1684 -0.0951 -0.0591
  279loPI   C2B 4462  15.955  14.125   9.097  0.1030 -0.1957 -0.0304
  279loPI   C3B 4463  15.974  14.135   8.677 -0.4443 -0.3526 -0.0271
  279loPI   C4B 4464  15.945  14.318   8.227 -0.0230 -0.0495  0.6742
  280loPI    C1 4465   6.656  17.345  10.790  0.2658 -0.0359 -0.0080
  280loPI    C2 4466   6.649  17.739  10.725 -0.1133 -0.0410 -0.0155
  280loPI    C3 4467   6.574  17.596  11.091 -0.1004 -0.1115 -0.0404
  280loPI   PO4 4468   6.894  17.253  10.592 -0.2248 -0.0401  0.2368
  280loPI   GL1 4469   6.879  17.238  10.138  0.1001 -0.0583  0.0937
  280loPI   GL2 4470   6.574  17.168  10.024 -0.0389 -0.0432  0.4353
  280loPI   C1A 4471   7.064  17.265   9.807  0.3650  0.1624  0.0631
  280loPI   C2A 4472   7.137  17.196   9.285 -0.1158 -0.2339  0.0573
  280loPI   C3A 4473   7.199  16.970   9.021 -0.2494  0.0594  0.0451
  280loPI   C4A 4474   7.254  16.937   8.665 -0.0049 -0.1297 -0.1981
  280loPI   C5A 4475   7.194  16.878   8.231 -0.1607  0.0301  0.0884
  280loPI   C6A 4476   7.404  17.130   7.826  0.0996  0.0227 -0.1420
  280loPI   C1B 4477   6.580  17.134   9.545  0.1554  0.1999 -0.0579
  280loPI   C2B 4478   6.625  17.063   9.116  0.2488 -0.0767 -0.2712
  280loPI   C3B 4479   6.783  17.150   8.771  0.2198 -0.0519 -0.0866
  280loPI   C4B 4480   6.690  17.183   8.343 -0.2569  0.0421  0.2244
  281loPI    C1 4481  10.688  10.913  10.586 -0.1652 -0.3482 -0.0221
  281loPI    C2 4482  10.645  11.017  10.970 -0.1429  0.0941 -0.1347
  281loPI    C3 4483  10.914  10.740  10.867 -0.0776  0.0463  0.1570
  281loPI   PO4 4484  10.694  11.156  10.473 -0.0680  0.1722  0.0211
  281loPI   GL1 4485  10.737  11.376  10.082 -0.2678 -0.1929  0.0325
  281loPI   GL2 4486  10.961  11.267  10.053 -0.2646  0.2861 -0.0730
  281loPI   C1A 4487  10.695  11.386   9.620 -0.0980  0.0211  0.0009
  281loPI   C2A 4488  10.658  11.346   9.179 -0.1642 -0.1570 -0.1237
  281loPI   C3A 4489  10.662  11.256   8.827  0.0989 -0.0423  0.3754
  281loPI   C4A 4490  10.540  11.334   8.327  0.2807  0.2177 -0.2409
  281loPI   C5A 4491  10.548  11.134   7.980  0.2231 -0.0311  0.0710
  281loPI   C6A 4492  10.598  11.048   7.543  0.0924 -0.2976  0.1189
  281loPI   C1B 4493  11.195  11.283   9.679 -0.1053  0.2432  0.0809
  281loPI   C2B 4494  11.120  11.246   9.174  0.0246  0.1609 -0.2113
  281loPI   C3B 4495  11.145  11.220   8.749  0.3562 -0.1778  0.0463
  281loPI   C4B 4496  11.141  11.240   8.271  0.0447 -0.3365 -0.1960
  282loPI    C1 4497   2.306   5.081  10.433  0.2066 -0.1082 -0.1325
  282loPI    C2 4498   2.196   5.119  10.816  0.2737 -0.0194 -0.1217
  282loPI    C3 4499   2.579   5.171  10.711  0.2335  0.0841 -0.2194
  282loPI   PO4 4500   2.120   5.225  10.325  0.0553  0.0777  0.1881
  282loPI   GL1 4501   1.977   5.169   9.854  0.0977  0.4202 -0.2530
  282loPI   GL2 4502   2.066   5.511   9.851  0.1164 -0.2056 -0.0541
  282loPI   C1A 4503   1.819   5.243   9.475 -0.1844  0.0303  0.4613
  282loPI   C2A 4504   1.755   5.301   9.054 -0.1119  0.2572  0.2782
  282loPI   C3A 4505   1.725   5.409   8.657  0.0543 -0.0495 -0.2696
  282loPI   C4A 4506   1.847   5.451   8.230 -0.2002 -0.0331 -0.0650
  282loPI   C5A 4507   1.792   5.107   7.805  0.0097  0.2714 -0.1648
  282loPI   C6A 4508   2.103   5.077   7.428  0.0186  0.0316  0.2479
  282loPI   C1B 4509   2.307   5.723   9.466 -0.3511 -0.0408  0.0420
  282loPI   C2B 4510   2.287   5.860   9.039  0.1667 -0.0119  0.0155
  282loPI   C3B 4511   2.216   5.847   8.650  0.3325 -0.2024  0.1320
  282loPI   C4B 4512   2.111   5.931   8.172 -0.0618  0.0401 -0.0786
  283loPI    C1 4513  16.409   2.793  10.099 -0.1532 -0.2332 -0.2165
  283loPI    C2 4514  16.448   2.440  10.283  0.0836 -0.1349 -0.0735
  283loPI    C3 4515  16.768   2.620  10.125 -0.0179  0.0651 -0.0544
  283loPI   PO4 4516  16.201   2.796  10.027 -0.0057  0.0623 -0.2519
  283loPI   GL1 4517  15.964   3.022   9.683  0.0915 -0.1432  0.2264
  283loPI   GL2 4518  16.114   2.825   9.548  0.1382 -0.0932  0.5334
  283loPI   C1A 4519  15.897   3.301   9.420  0.2414  0.0525 -0.0663
  283loPI   C2A 4520  15.898   3.310   9.046 -0.2926 -0.0265  0.1383
  283loPI   C3A 4521  15.799   3.371   8.648  0.0322 -0.2641 -0.0612
  283loPI   C4A 4522  15.747   3.382   8.238 -0.2089  0.0744 -0.0401
  283loPI   C5A 4523  15.484   3.561   7.913 -0.0966  0.1480 -0.0563
  283loPI   C6A 4524  15.414   3.906   7.749 -0.1260 -0.1497 -0.1023
  283loPI   C1B 4525  15.961   2.838   9.154  0.0037  0.0703 -0.2996
  283loPI   C2B 4526  15.918   2.730   8.767  0.1642  0.0712  0.2520
  283loPI   C3B 4527  15.976   2.552   8.515 -0.0507 -0.1292  0.0892
  283loPI   C4B 4528  16.003   2.379   8.112  0.4445  0.2070 -0.4431
  284loPI    C1 4529   2.646  10.956  10.655 -0.0093  0.0263  0.2630
  284loPI    C2 4530   3.005  10.780  10.662  0.1019  0.2130 -0.2721
  284loPI    C3 4531   2.685  10.588  10.807  0.4071  0.0350  0.1894
  284loPI   PO4 4532   2.639  10.974  10.347 -0.3130  0.3461  0.0141
  284loPI   GL1 4533   2.624  10.921   9.936 -0.1817 -0.2427 -0.1966
  284loPI   GL2 4534   2.246  11.099   9.893 -0.4834 -0.3797 -0.1042
  284loPI   C1A 4535   2.730  11.012   9.479  0.1218  0.1863  0.0339
  284loPI   C2A 4536   2.631  10.933   9.066  0.0187 -0.0110  0.0761
  284loPI   C3A 4537   2.574  10.883   8.626  0.1269  0.2946  0.0365
  284loPI   C4A 4538   2.510  11.047   8.188  0.0450  0.1265  0.1895
  284loPI   C5A 4539   2.566  11.130   7.692 -0.1433  0.0071  0.2253
  284loPI   C6A 4540   2.402  11.154   7.272  0.2364  0.0020 -0.0218
  284loPI   C1B 4541   2.192  11.115   9.377  0.1820  0.1383 -0.2683
  284loPI   C2B 4542   2.058  10.915   9.002 -0.0887  0.1567  0.1452
  284loPI   C3B 4543   1.984  11.020   8.654 -0.0077 -0.1179 -0.0192
  284loPI   C4B 4544   2.019  10.925   8.272  0.2156  0.0074  0.1445
  285loPI    C1 4545  17.723  12.952  10.503  0.1255  0.0067  0.0375
  285loPI    C2 4546  17.768  12.934  10.900 -0.0616  0.1186  0.0652
  285loPI    C3 4547  17.426  13.070  10.744 -0.0382 -0.0469 -0.1354
  285loPI   PO4 4548  17.774  12.735  10.417 -0.0478 -0.0143  0.0522
  285loPI   GL1 4549  18.039  12.716  10.090  0.1143  0.0560  0.0251
  285loPI   GL2 4550  17.781  12.778   9.900  0.0198 -0.0679 -0.1545
  285loPI   C1A 4551  18.203  12.710   9.654 -0.0637 -0.0871 -0.0211
  285loPI   C2A 4552  18.282  12.611   9.225  0.4078 -0.0766  0.0628
  285loPI   C3A 4553  18.326  12.557   8.741  0.3346  0.2249  0.0543
  285loPI   C4A 4554  18.323  12.489   8.215 -0.3193  0.1154 -0.1395
  285loPI   C5A 4555  18.691  12.408   8.009 -0.0616  0.1115 -0.1160
  285loPI   C6A 4556  19.107  12.462   7.898  0.0765  0.2943  0.4317
  285loPI   C1B 4557  17.757  12.791   9.423  0.1615 -0.3836 -0.0300
  285loPI   C2B 4558  17.772  12.681   8.923  0.3203 -0.2747 -0.3170
  285loPI   C3B 4559  17.787  12.648   8.493 -0.0320 -0.3527  0.0554
  285loPI   C4B 4560  17.884  12.578   8.137  0.1312 -0.2468 -0.0744
  286loPI    C1 4561  18.320  13.011  10.819  0.0936 -0.0715 -0.0109
  286loPI    C2 4562  18.699  13.101  10.911  0.0630  0.0718 -0.0220
  286loPI    C3 4563  18.522  12.782  11.077  0.1237  0.1206  0.1381
  286loPI   PO4 4564  18.225  12.994  10.607  0.1154  0.2540 -0.1846
  286loPI   GL1 4565  18.224  13.079  10.267 -0.0151 -0.0514 -0.2014
  286loPI   GL2 4566  17.990  13.270  10.110  0.0788  0.1713  0.1021
  286loPI   C1A 4567  18.454  13.043   9.940  0.0250 -0.0285  0.0513
  286loPI   C2A 4568  18.642  12.998   9.481  0.1475 -0.1253 -0.2286
  286loPI   C3A 4569  18.593  12.952   9.038 -0.2896  0.3852 -0.0081
  286loPI   C4A 4570  18.711  12.914   8.684 -0.0546 -0.2944 -0.0049
  286loPI   C5A 4571  18.769  12.841   8.179 -0.0384  0.3748  0.1419
  286loPI   C6A 4572  18.764  13.227   7.908  0.4754 -0.1788 -0.0394
  286loPI   C1B 4573  18.142  13.186   9.620  0.2089  0.1019  0.3163
  286loPI   C2B 4574  18.048  13.160   9.239  0.0217  0.1735 -0.3114
  286loPI   C3B 4575  18.228  13.065   8.757  0.0270 -0.2145 -0.0166
  286loPI   C4B 4576  18.262  12.915   8.387  0.2273 -0.1900  0.4252
  287loPI    C1 4577  11.133   6.869  10.955  0.0396  0.3624  0.0851
  287loPI    C2 4578  11.255   6.535  11.138  0.1857  0.2660 -0.1833
  287loPI    C3 4579  11.327   6.892  11.304  0.0918  0.1697  0.0696
  287loPI   PO4 4580  11.210   6.813  10.648  0.1427 -0.0745  0.2205
  287loPI   GL1 4581  11.401   6.839  10.285 -0.2262  0.2672 -0.1003
  287loPI   GL2 4582  11.636   6.803  10.367  0.1229 -0.0077  0.1446
  287loPI   C1A 4583  11.451   6.917   9.907 -0.1856 -0.1150 -0.2415
  287loPI   C2A 4584  11.476   6.795   9.486  0.0367  0.0130  0.3683
  287loPI   C3A 4585  11.449   6.782   9.036 -0.2606 -0.1914 -0.0249
  287loPI   C4A 4586  11.516   6.846   8.548  0.0690 -0.0910 -0.0893
  287loPI   C5A 4587  11.745   6.963   8.178 -0.0951  0.2220 -0.0189
  287loPI   C6A 4588  11.815   6.814   7.821  0.1928  0.0230 -0.0612
  287loPI   C1B 4589  11.838   6.689  10.073  0.1343  0.3134 -0.0957
  287loPI   C2B 4590  11.969   6.690   9.678 -0.0927 -0.0100 -0.0011
  287loPI   C3B 4591  11.954   6.735   9.201  0.0659  0.1927  0.0547
  287loPI   C4B 4592  11.928   6.829   8.764  0.3190  0.2846  0.3178
  288loPI    C1 4593  16.122   4.865  10.867  0.1070 -0.1072 -0.0853
  288loPI    C2 4594  15.904   5.141  11.057  0.2626 -0.1990  0.2330
  288loPI    C3 4595  15.847   4.753  11.135  0.1888 -0.2493 -0.0597
  288loPI   PO4 4596  16.081   4.905  10.558 -0.0746  0.1194 -0.0839
  288loPI   GL1 4597  16.061   4.935  10.175  0.0833  0.0111 -0.1286
  288loPI   GL2 4598  15.736   4.869  10.190  0.1665 -0.3360 -0.1602
  288loPI   C1A 4599  16.144   5.058   9.810  0.0831 -0.0419 -0.0311
  288loPI   C2A 4600  16.174   5.048   9.380 -0.0838  0.0315 -0.1815
  288loPI   C3A 4601  16.177   5.092   8.997 -0.0252  0.1751  0.5297
  288loPI   C4A 4602  16.266   5.148   8.546  0.1192  0.1003  0.1740
  288loPI   C5A 4603  16.424   5.202   8.133  0.1786  0.0857 -0.0415
  288loPI   C6A 4604  16.793   5.388   7.902 -0.1988  0.0248  0.1356
  288loPI   C1B 4605  15.795   4.755   9.683  0.6586  0.3530  0.0859
  288loPI   C2B 4606  15.818   4.720   9.234 -0.3035 -0.0857 -0.1545
  288loPI   C3B 4607  15.922   4.753   8.729 -0.1011  0.1706  0.0000
  288loPI   C4B 4608  16.021   4.616   8.422  0.1704 -0.0867  0.0242
  289loPI    C1 4609   8.477  15.326  10.946 -0.1508 -0.3857 -0.2668
  289loPI    C2 4610   8.662  15.082  11.203  0.3355  0.0711 -0.1656
  289loPI    C3 4611   8.264  15.112  11.208  0.3184 -0.1275  0.3539
  289loPI   PO4 4612   8.653  15.354  10.776 -0.0883 -0.1689  0.0674
  289loPI   GL1 4613   8.633  15.357  10.376  0.0599  0.3043 -0.0285
  289loPI   GL2 4614   8.327  15.259  10.191  0.0044 -0.3895 -0.1152
  289loPI   C1A 4615   8.765  15.588  10.001  0.4062 -0.0889  0.0464
  289loPI   C2A 4616   8.907  15.603   9.636  0.1464  0.1620  0.1763
  289loPI   C3A 4617   9.000  15.593   9.254  0.1394  0.2132 -0.1437
  289loPI   C4A 4618   8.874  15.524   8.800  0.4098 -0.1109  0.1942
  289loPI   C5A 4619   9.032  15.571   8.445 -0.0892  0.1767  0.2520
  289loPI   C6A 4620   9.109  15.343   8.080  0.1048  0.0697 -0.1624
  289loPI   C1B 4621   8.491  15.205   9.748 -0.0523  0.0205  0.3520
  289loPI   C2B 4622   8.527  15.171   9.367 -0.3913  0.2641  0.0482
  289loPI   C3B 4623   8.543  15.206   8.997  0.1551 -0.0643 -0.0549
  289loPI   C4B 4624   8.683  15.112   8.608 -0.1199  0.1090 -0.3578
  290loPI    C1 4625  15.251   2.411   9.953  0.2571  0.0198 -0.1153
  290loPI    C2 4626  15.425   2.453  10.311 -0.0363  0.1262  0.0180
  290loPI    C3 4627  15.184   2.740  10.171  0.0324  0.0600 -0.2423
  290loPI   PO4 4628  15.421   2.357   9.800 -0.2321 -0.1386  0.0104
  290loPI   GL1 4629  15.223   2.306   9.444 -0.0253 -0.2168  0.0723
  290loPI   GL2 4630  15.099   2.579   9.448 -0.0388  0.0850  0.6177
  290loPI   C1A 4631  15.224   2.101   9.124 -0.0095  0.0781  0.1208
  290loPI   C2A 4632  15.099   2.191   8.696  0.2438  0.0224 -0.0249
  290loPI   C3A 4633  15.148   2.066   8.301  0.3809 -0.0291 -0.0025
  290loPI   C4A 4634  15.102   2.219   7.886  0.2513  0.3247 -0.0145
  290loPI   C5A 4635  15.237   2.228   7.403 -0.0284 -0.2848 -0.1660
  290loPI   C6A 4636  15.094   2.259   6.956 -0.1451 -0.5660  0.1944
  290loPI   C1B 4637  15.059   2.545   9.052  0.0231  0.0984 -0.0396
  290loPI   C2B 4638  14.926   2.686   8.669 -0.1022 -0.2043 -0.0524
  290loPI   C3B 4639  15.010   2.616   8.250 -0.0714 -0.2221  0.2615
  290loPI   C4B 4640  15.173   2.716   7.808 -0.0793  0.2222  0.0039
  291loPI    C1 4641  11.967   4.484  10.175  0.0339 -0.0876  0.2206
  291loPI    C2 4642  12.159   4.380  10.511  0.1487  0.0762  0.2073
  291loPI    C3 4643  12.358   4.399  10.165  0.0386 -0.0567  0.1352
  291loPI   PO4 4644  11.917   4.818  10.259 -0.1832 -0.0204 -0.1973
  291loPI   GL1 4645  11.721   5.002   9.979  0.4221 -0.1945  0.1914
  291loPI   GL2 4646  11.495   5.186   9.961  0.1045  0.0282  0.0518
  291loPI   C1A 4647  11.483   4.871   9.568  0.0903 -0.3070 -0.2735
  291loPI   C2A 4648  11.474   4.984   9.170 -0.2105  0.2776  0.2231
  291loPI   C3A 4649  11.568   4.874   8.734  0.1933  0.1159 -0.0505
  291loPI   C4A 4650  11.676   5.019   8.356 -0.0840 -0.0853  0.1882
  291loPI   C5A 4651  11.693   4.808   8.096 -0.0390 -0.3799  0.1488
  291loPI   C6A 4652  11.737   4.591   7.706  0.1680  0.0032 -0.2055
  291loPI   C1B 4653  11.367   5.442   9.731 -0.0876 -0.0457  0.2554
  291loPI   C2B 4654  11.401   5.500   9.284  0.3025 -0.2894  0.1345
  291loPI   C3B 4655  11.504   5.450   8.848  0.1697 -0.4086  0.3728
  291loPI   C4B 4656  11.473   5.489   8.445 -0.1738 -0.0269  0.4682
  292loPI    C1 4657   7.246  12.658  10.527  0.2403 -0.1302 -0.0588
  292loPI    C2 4658   7.351  12.355  10.766 -0.1582 -0.1838  0.0558
  292loPI    C3 4659   7.356  12.730  10.905  0.1048 -0.1597 -0.0131
  292loPI   PO4 4660   7.338  12.580  10.333  0.3355  0.0671  0.1984
  292loPI   GL1 4661   7.347  12.494   9.904 -0.1838 -0.0064  0.1043
  292loPI   GL2 4662   7.063  12.273   9.727 -0.2111 -0.0404 -0.0023
  292loPI   C1A 4663   7.538  12.688   9.618 -0.5329  0.0963 -0.0837
  292loPI   C2A 4664   7.487  12.707   9.145 -0.4263 -0.1173  0.1547
  292loPI   C3A 4665   7.468  12.738   8.662  0.2685 -0.2584  0.1327
  292loPI   C4A 4666   7.321  12.875   8.252  0.0462  0.3739 -0.2103
  292loPI   C5A 4667   6.919  12.788   8.093 -0.3183 -0.1443  0.0967
  292loPI   C6A 4668   6.471  12.734   7.892  0.1138  0.0701  0.0442
  292loPI   C1B 4669   7.068  12.315   9.309 -0.0456 -0.0484 -0.1645
  292loPI   C2B 4670   7.186  12.312   8.860 -0.0459  0.3167  0.0340
  292loPI   C3B 4671   7.137  12.356   8.346  0.1876  0.2092 -0.0472
  292loPI   C4B 4672   6.953  12.325   7.926  0.2656  0.0760  0.0875
  293loPI    C1 4673  15.421  10.033  10.645 -0.0114  0.1103 -0.0913
  293loPI    C2 4674  15.815   9.975  10.614  0.0318  0.3762 -0.0619
  293loPI    C3 4675  15.654  10.071  10.968 -0.0727  0.1774 -0.0545
  293loPI   PO4 4676  15.287   9.856  10.497 -0.2668 -0.0624  0.0676
  293loPI   GL1 4677  15.222   9.607  10.131 -0.0451  0.1711  0.1016
  293loPI   GL2 4678  14.997   9.682  10.041 -0.3319  0.2481 -0.0319
  293loPI   C1A 4679  15.428   9.548   9.674 -0.0200  0.0742  0.0815
  293loPI   C2A 4680  15.425   9.569   9.287  0.0343 -0.1449 -0.1396
  293loPI   C3A 4681  15.432   9.529   8.824 -0.1065  0.2633 -0.0919
  293loPI   C4A 4682  15.452   9.604   8.420  0.2801  0.1690  0.0469
  293loPI   C5A 4683  15.586   9.491   8.107 -0.0357 -0.2033  0.6866
  293loPI   C6A 4684  15.954   9.802   7.826 -0.1427  0.2424 -0.0436
  293loPI   C1B 4685  14.932   9.669   9.655  0.2810 -0.0870 -0.0316
  293loPI   C2B 4686  14.972   9.721   9.340  0.1581  0.0823 -0.0493
  293loPI   C3B 4687  14.924   9.717   8.913 -0.0155  0.3313 -0.0290
  293loPI   C4B 4688  14.994   9.749   8.543 -0.0055 -0.3585  0.2374
  294loPI    C1 4689  16.881   0.725   9.623  0.2558 -0.1196 -0.2502
  294loPI    C2 4690  16.850   1.045   9.860 -0.1264 -0.3182 -0.0215
  294loPI    C3 4691  17.204   0.865   9.812  0.0809  0.1011 -0.1105
  294loPI   PO4 4692  16.705   0.672   9.555 -0.1228 -0.0972  0.0756
  294loPI   GL1 4693  16.523   0.615   9.218 -0.1493 -0.0470 -0.1753
  294loPI   GL2 4694  16.164   0.412   9.216 -0.3794 -0.0080  0.1548
  294loPI   C1A 4695  16.544   0.757   8.760 -0.1897 -0.2451  0.1116
  294loPI   C2A 4696  16.542   0.705   8.337 -0.2258  0.3106 -0.1836
  294loPI   C3A 4697  16.503   0.609   7.958 -0.3030  0.2268 -0.0324
  294loPI   C4A 4698  16.405   0.322   7.541  0.1525  0.0181 -0.2480
  294loPI   C5A 4699  16.208   0.178   7.185 -0.1744  0.1787 -0.0769
  294loPI   C6A 4700  16.259   0.297   6.780  0.0127 -0.0356 -0.0046
  294loPI   C1B 4701  16.255   0.323   8.806  0.0450  0.2069 -0.0745
  294loPI   C2B 4702  16.132   0.404   8.346  0.3904  0.1819 -0.1059
  294loPI   C3B 4703  16.008   0.507   7.901 -0.0543 -0.0498  0.0504
  294loPI   C4B 4704  15.808   0.292   7.558  0.0475 -0.0768  0.1310
  295loPI    C1 4705   9.372   9.092  10.779  0.2637  0.1469  0.3282
  295loPI    C2 4706   9.074   9.354  10.824  0.0603 -0.0317  0.0519
  295loPI    C3 4707   9.078   9.019  11.041  0.0146 -0.0683 -0.0033
  295loPI   PO4 4708   9.341   9.007  10.457 -0.6156  0.1105  0.1020
  295loPI   GL1 4709   9.411   9.114   9.985 -0.0682 -0.3074 -0.3532
  295loPI   GL2 4710   9.689   8.882  10.062  0.2908  0.1296  0.1165
  295loPI   C1A 4711   9.384   9.307   9.548  0.0615 -0.0727  0.3584
  295loPI   C2A 4712   9.350   9.249   9.133  0.0640 -0.0062 -0.1150
  295loPI   C3A 4713   9.385   9.171   8.624  0.0349 -0.1928  0.1962
  295loPI   C4A 4714   9.468   9.377   8.136 -0.1595 -0.1252 -0.1732
  295loPI   C5A 4715   9.428   9.307   7.744  0.1516  0.3050 -0.0637
  295loPI   C6A 4716   9.579   9.187   7.312  0.0346 -0.3256  0.1556
  295loPI   C1B 4717   9.552   8.791   9.642  0.1611  0.1755 -0.1002
  295loPI   C2B 4718   9.496   8.819   9.240 -0.1842  0.1701  0.1392
  295loPI   C3B 4719   9.637   8.776   8.865 -0.0208  0.2628 -0.0281
  295loPI   C4B 4720   9.709   8.698   8.489 -0.1990 -0.1300 -0.2465
  296loPI    C1 4721   1.528  15.196  10.482 -0.0432  0.0133 -0.0627
  296loPI    C2 4722   1.148  15.320  10.500 -0.1314 -0.2807  0.2135
  296loPI    C3 4723   1.365  15.293  10.835  0.0947 -0.2369  0.0728
  296loPI   PO4 4724   1.644  15.259  10.259  0.2893  0.2153  0.2017
  296loPI   GL1 4725   1.629  15.025   9.907 -0.0840 -0.3095  0.0968
  296loPI   GL2 4726   1.805  14.835   9.726 -0.0415  0.1376 -0.1221
  296loPI   C1A 4727   1.428  15.237   9.665 -0.2110 -0.4192  0.0844
  296loPI   C2A 4728   1.335  15.476   9.265 -0.1930 -0.0492  0.2022
  296loPI   C3A 4729   1.310  15.472   8.896  0.0019  0.0781  0.0623
  296loPI   C4A 4730   1.206  15.376   8.512  0.0390  0.1836  0.3710
  296loPI   C5A 4731   1.324  15.412   8.065 -0.1007 -0.4413  0.1052
  296loPI   C6A 4732   1.670  15.654   7.776 -0.0098  0.0951 -0.0301
  296loPI   C1B 4733   1.927  14.760   9.312 -0.2957 -0.1725 -0.1426
  296loPI   C2B 4734   1.906  14.739   8.892  0.2440 -0.1770  0.1470
  296loPI   C3B 4735   2.017  14.862   8.420 -0.0827  0.0462 -0.0630
  296loPI   C4B 4736   1.847  14.732   8.029  0.4471 -0.0807  0.0591
  297loPI    C1 4737  10.750  14.618  10.660 -0.0182  0.4650 -0.2566
  297loPI    C2 4738  11.128  14.531  10.759 -0.1518  0.1711  0.0137
  297loPI    C3 4739  11.009  14.913  10.739  0.1978  0.2722 -0.2345
  297loPI   PO4 4740  10.649  14.350  10.613 -0.0968  0.3531 -0.0022
  297loPI   GL1 4741  10.582  14.339  10.213  0.2125  0.2150  0.2934
  297loPI   GL2 4742  10.574  14.690  10.173  0.1829 -0.1092 -0.0066
  297loPI   C1A 4743  10.825  14.412   9.834  0.3573  0.1202 -0.2398
  297loPI   C2A 4744  10.743  14.328   9.400 -0.1533 -0.4247  0.0940
  297loPI   C3A 4745  10.790  14.247   8.920  0.1258 -0.0699 -0.0358
  297loPI   C4A 4746  10.837  14.051   8.474 -0.1657  0.1305 -0.1073
  297loPI   C5A 4747  11.137  14.158   8.204 -0.5048  0.2118 -0.4666
  297loPI   C6A 4748  11.560  13.962   8.053 -0.1855 -0.0943  0.1700
  297loPI   C1B 4749  10.528  14.794   9.672  0.0733 -0.1980  0.3066
  297loPI   C2B 4750  10.634  14.758   9.240  0.2802 -0.1477  0.0261
  297loPI   C3B 4751  10.581  14.737   8.829 -0.2754  0.1189  0.1394
  297loPI   C4B 4752  10.634  14.536   8.493 -0.0359  0.0768  0.1171
  298loPI    C1 4753  12.368   9.869  10.671 -0.1806 -0.4185 -0.0378
  298loPI    C2 4754  12.596   9.878  10.999 -0.0681 -0.1073 -0.1217
  298loPI    C3 4755  12.244   9.688  11.006 -0.0176 -0.1959  0.1457
  298loPI   PO4 4756  12.329  10.182  10.542  0.0044 -0.2843 -0.0774
  298loPI   GL1 4757  12.132  10.186  10.131  0.1493 -0.1608  0.4217
  298loPI   GL2 4758  11.968  10.413  10.261 -0.0489  0.1201  0.0564
  298loPI   C1A 4759  12.015  10.028   9.746 -0.2214  0.0451 -0.1611
  298loPI   C2A 4760  11.981  10.098   9.308  0.0848 -0.0356  0.3137
  298loPI   C3A 4761  11.982  10.124   8.925  0.2521  0.2521 -0.3482
  298loPI   C4A 4762  12.143  10.022   8.465  0.0146  0.1060 -0.2301
  298loPI   C5A 4763  12.440   9.979   8.076  0.1641 -0.0942 -0.0065
  298loPI   C6A 4764  12.589  10.345   7.777 -0.0395 -0.0244  0.1137
  298loPI   C1B 4765  11.961  10.576   9.873 -0.1233  0.3230 -0.1559
  298loPI   C2B 4766  11.831  10.711   9.400  0.0680  0.0948 -0.1456
  298loPI   C3B 4767  11.822  10.673   8.912  0.2760  0.2436 -0.0675
  298loPI   C4B 4768  11.758  10.570   8.577 -0.1315 -0.0061  0.2239
  299loPI    C1 4769   3.152  10.082  10.568 -0.0951 -0.1923 -0.0776
  299loPI    C2 4770   3.173  10.316  10.892 -0.1242 -0.0038 -0.2103
  299loPI    C3 4771   2.867  10.062  10.848  0.0565 -0.2770  0.0720
  299loPI   PO4 4772   3.128  10.248  10.362 -0.1549  0.2671  0.2082
  299loPI   GL1 4773   3.231  10.249  10.024 -0.1386 -0.2639 -0.1337
  299loPI   GL2 4774   3.172  10.661  10.105  0.1910  0.2150  0.0736
  299loPI   C1A 4775   3.337  10.396   9.636  0.1131  0.1405  0.2181
  299loPI   C2A 4776   3.163  10.425   9.295 -0.1766  0.1454  0.1503
  299loPI   C3A 4777   3.198  10.254   8.890 -0.1588 -0.1234 -0.0911
  299loPI   C4A 4778   3.213  10.272   8.530  0.1971  0.3059 -0.0924
  299loPI   C5A 4779   3.093  10.128   8.244  0.1941  0.1551 -0.2643
  299loPI   C6A 4780   2.756   9.967   7.992  0.0987 -0.3182  0.0273
  299loPI   C1B 4781   2.841  10.521   9.645 -0.2273 -0.1083 -0.0130
  299loPI   C2B 4782   2.704  10.455   9.187  0.0053 -0.2062 -0.0775
  299loPI   C3B 4783   2.725  10.435   8.669  0.1103  0.0719 -0.0894
  299loPI   C4B 4784   2.734  10.540   8.203  0.0039  0.0915 -0.1975
  300loPI    C1 4785   0.661   4.221  10.246 -0.1261 -0.1409 -0.2568
  300loPI    C2 4786   0.269   4.242  10.323 -0.1230 -0.4351 -0.1477
  300loPI    C3 4787   0.520   4.104  10.602  0.1198  0.1720 -0.0500
  300loPI   PO4 4788   0.639   4.264  10.002 -0.1715  0.0159  0.2926
  300loPI   GL1 4789   0.540   4.177   9.620  0.1139  0.0180  0.0954
  300loPI   GL2 4790   0.797   3.859   9.416  0.0088  0.1375 -0.0488
  300loPI   C1A 4791   0.474   4.158   9.108  0.0395 -0.0889  0.0115
  300loPI   C2A 4792   0.473   4.338   8.742  0.0681 -0.0280 -0.1314
  300loPI   C3A 4793   0.519   4.459   8.367  0.1735  0.1372 -0.2054
  300loPI   C4A 4794   0.492   4.164   7.943 -0.5047  0.0270  0.1202
  300loPI   C5A 4795   0.258   4.126   7.571 -0.1738  0.0063 -0.3201
  300loPI   C6A 4796   0.119   4.507   7.328 -0.3136  0.1798 -0.0676
  300loPI   C1B 4797   0.732   3.637   9.039  0.0026 -0.0497  0.3708
  300loPI   C2B 4798   1.062   3.605   8.720  0.1445 -0.2197  0.0887
  300loPI   C3B 4799   1.424   3.890   8.654 -0.0032  0.0109 -0.0494
  300loPI   C4B 4800   1.599   4.085   8.258 -0.1796  0.0451  0.1696
  301loPI    C1 4801   6.379  17.348  10.430  0.0825  0.1430  0.3770
  301loPI    C2 4802   6.009  17.498  10.406  0.0095 -0.0696  0.1290
  301loPI    C3 4803   6.075  17.162  10.613 -0.0190 -0.2757 -0.1886
  301loPI   PO4 4804   6.494  17.560  10.277 -0.2276 -0.1187 -0.2712
  301loPI   GL1 4805   6.615  17.600   9.810 -0.1519 -0.2043  0.3567
  301loPI   GL2 4806   6.966  17.749   9.784  0.0343  0.1177 -0.1800
  301loPI   C1A 4807   6.419  17.592   9.395 -0.2246  0.1145  0.1748
  301loPI   C2A 4808   6.548  17.519   8.995 -0.0545  0.0094 -0.3333
  301loPI   C3A 4809   6.617  17.675   8.617 -0.0089  0.3380 -0.1040
  301loPI   C4A 4810   6.708  17.679   8.261  0.2385  0.3056 -0.1143
  301loPI   C5A 4811   6.539  17.508   7.987 -0.0054 -0.3904  0.0516
  301loPI   C6A 4812   6.541  17.448   7.599  0.2940 -0.1288 -0.0357
  301loPI   C1B 4813   6.919  17.619   9.372  0.1849 -0.1815 -0.0051
  301loPI   C2B 4814   7.036  17.591   8.896  0.3203 -0.4146  0.1787
  301loPI   C3B 4815   7.115  17.428   8.491  0.1553  0.0023  0.1311
  301loPI   C4B 4816   7.102  17.452   8.022  0.0954  0.2154  0.1738
  302loPI    C1 4817  12.460   1.820  10.482 -0.0881  0.0075  0.0873
  302loPI    C2 4818  12.466   2.204  10.594 -0.0444 -0.0419  0.2573
  302loPI    C3 4819  12.367   1.920  10.858 -0.1138 -0.1445  0.1219
  302loPI   PO4 4820  12.684   1.790  10.418  0.1436 -0.2174 -0.0718
  302loPI   GL1 4821  12.795   1.999  10.087 -0.2598 -0.2000 -0.1318
  302loPI   GL2 4822  12.521   2.019  10.049 -0.1445 -0.0010 -0.0706
  302loPI   C1A 4823  12.929   2.256   9.665 -0.1109 -0.1593  0.1441
  302loPI   C2A 4824  12.705   2.239   9.311  0.1095  0.0615 -0.0853
  302loPI   C3A 4825  12.829   2.343   8.935  0.1388  0.1301 -0.2806
  302loPI   C4A 4826  12.736   2.155   8.530 -0.0435  0.0058  0.2348
  302loPI   C5A 4827  12.660   1.999   8.088 -0.1812 -0.3713 -0.3618
  302loPI   C6A 4828  12.971   1.998   7.681  0.0229  0.3481  0.0095
  302loPI   C1B 4829  12.421   1.974   9.672 -0.4009 -0.0911 -0.4298
  302loPI   C2B 4830  12.381   1.908   9.198  0.2332  0.0649 -0.1116
  302loPI   C3B 4831  12.452   1.846   8.758 -0.5136 -0.2234  0.0806
  302loPI   C4B 4832  12.243   1.904   8.296  0.1853 -0.2898  0.1475
  303loPI    C1 4833   6.746   8.921  10.958 -0.0543 -0.3271 -0.0194
  303loPI    C2 4834   7.110   9.012  11.098 -0.1162  0.1839 -0.1695
  303loPI    C3 4835   6.784   9.137  11.293 -0.2135 -0.0839 -0.1557
  303loPI   PO4 4836   6.789   8.663  10.861  0.0671  0.1206  0.0831
  303loPI   GL1 4837   6.739   8.601  10.401  0.1369 -0.0639  0.0257
  303loPI   GL2 4838   6.800   8.977  10.234 -0.0099 -0.1004  0.2721
  303loPI   C1A 4839   6.724   8.548   9.986 -0.1402  0.0993 -0.0560
  303loPI   C2A 4840   6.711   8.447   9.560  0.0173  0.1832  0.2080
  303loPI   C3A 4841   6.695   8.481   9.110  0.0158 -0.1138 -0.0907
  303loPI   C4A 4842   6.705   8.529   8.705 -0.6487  0.0698 -0.0310
  303loPI   C5A 4843   6.778   8.430   8.343 -0.0498 -0.2672 -0.3018
  303loPI   C6A 4844   6.813   8.484   7.869  0.2179 -0.1547  0.2972
  303loPI   C1B 4845   6.627   9.035   9.779 -0.2845 -0.0343  0.0483
  303loPI   C2B 4846   6.652   9.008   9.452 -0.2449  0.4848 -0.0745
  303loPI   C3B 4847   6.587   9.041   8.980  0.0433 -0.2276 -0.1667
  303loPI   C4B 4848   6.491   8.961   8.505  0.2617  0.2114  0.0097
  304loPI    C1 4849   3.850  16.304  10.025  0.0760 -0.2166 -0.1128
  304loPI    C2 4850   3.512  16.204   9.835 -0.0998  0.2486 -0.0593
  304loPI    C3 4851   3.607  16.589   9.885  0.1793  0.1296  0.3854
  304loPI   PO4 4852   4.042  16.085  10.022  0.0932 -0.2101 -0.0074
  304loPI   GL1 4853   4.012  15.830   9.776 -0.0350  0.0128 -0.1104
  304loPI   GL2 4854   3.817  15.630   9.888  0.1513 -0.1247 -0.1459
  304loPI   C1A 4855   4.115  15.943   9.339 -0.4298  0.2898 -0.1402
  304loPI   C2A 4856   4.101  15.858   8.839 -0.1307  0.0844  0.0429
  304loPI   C3A 4857   4.277  15.950   8.482 -0.0211 -0.0060 -0.3536
  304loPI   C4A 4858   4.384  15.961   7.958  0.1144 -0.2843 -0.0034
  304loPI   C5A 4859   4.304  16.228   7.683 -0.2755 -0.1599  0.2370
  304loPI   C6A 4860   3.992  16.396   7.437  0.2711  0.0692 -0.1784
  304loPI   C1B 4861   3.657  15.829   9.444  0.1822 -0.0464  0.1913
  304loPI   C2B 4862   3.574  15.838   9.024 -0.4166 -0.0405  0.1388
  304loPI   C3B 4863   3.539  15.943   8.623  0.0120  0.1289 -0.0067
  304loPI   C4B 4864   3.426  16.001   8.193 -0.0848  0.0339 -0.0994
  305loPI    C1 4865   1.271   7.712  10.580 -0.0334  0.0274 -0.1796
  305loPI    C2 4866   1.317   7.934  10.910  0.0590  0.0077 -0.1790
  305loPI    C3 4867   1.496   7.578  10.883 -0.1131 -0.0806 -0.1678
  305loPI   PO4 4868   1.170   7.853  10.358 -0.1167  0.1768  0.1947
  305loPI   GL1 4869   1.313   8.079  10.035  0.3318 -0.4328 -0.4942
  305loPI   GL2 4870   1.483   8.335   9.940 -0.1805 -0.1536 -0.0755
  305loPI   C1A 4871   1.202   8.104   9.566 -0.0661  0.0622 -0.1099
  305loPI   C2A 4872   1.190   8.095   9.191  0.3293  0.0874  0.2908
  305loPI   C3A 4873   1.090   8.053   8.732 -0.0075  0.2833  0.0896
  305loPI   C4A 4874   1.072   8.054   8.268  0.0713  0.1428 -0.2321
  305loPI   C5A 4875   0.926   7.713   7.929  0.1221  0.0430 -0.0026
  305loPI   C6A 4876   0.702   7.704   7.567  0.3528 -0.1364  0.0478
  305loPI   C1B 4877   1.531   8.439   9.432 -0.1756 -0.0189 -0.2557
  305loPI   C2B 4878   1.595   8.401   9.049 -0.2197  0.0864 -0.1545
  305loPI   C3B 4879   1.466   8.437   8.614  0.0831  0.0335 -0.1172
  305loPI   C4B 4880   1.437   8.402   8.100  0.0046 -0.0259  0.2933
  306loPI    C1 4881   2.730   5.981  10.170  0.1846 -0.0717  0.0704
  306loPI    C2 4882   2.879   6.131  10.510 -0.1107  0.0524  0.1479
  306loPI    C3 4883   2.591   6.327  10.313 -0.0796 -0.1169 -0.0706
  306loPI   PO4 4884   2.943   5.823  10.077 -0.0058 -0.0911  0.4158
  306loPI   GL1 4885   3.167   5.766   9.742  0.3851  0.0924 -0.0350
  306loPI   GL2 4886   3.098   6.066   9.583  0.2191  0.0923  0.0867
  306loPI   C1A 4887   3.310   5.696   9.318  0.0341 -0.0775  0.1595
  306loPI   C2A 4888   3.365   5.612   8.865 -0.2289  0.0652 -0.1338
  306loPI   C3A 4889   3.216   5.686   8.440  0.1433 -0.3198  0.0566
  306loPI   C4A 4890   3.304   5.591   8.074 -0.0279  0.0449  0.0852
  306loPI   C5A 4891   3.574   5.715   7.794  0.1495  0.0979  0.0143
  306loPI   C6A 4892   3.693   5.570   7.468 -0.1899 -0.4871 -0.5387
  306loPI   C1B 4893   3.086   6.142   9.223 -0.1087 -0.2525  0.1943
  306loPI   C2B 4894   3.146   6.179   8.755 -0.0745  0.0239  0.0909
  306loPI   C3B 4895   3.310   6.142   8.283  0.1795 -0.0754  0.1228
  306loPI   C4B 4896   3.043   6.164   7.870 -0.2421 -0.4078  0.2336
  307loPI    C1 4897  15.875   6.360  10.653 -0.1446 -0.1713 -0.0485
  307loPI    C2 4898  15.836   6.185  11.011 -0.0329  0.0441  0.0709
  307loPI    C3 4899  15.970   6.561  10.985 -0.1097  0.0557 -0.1937
  307loPI   PO4 4900  15.714   6.261  10.526 -0.1446  0.3096 -0.0131
  307loPI   GL1 4901  15.606   6.296  10.075  0.1018  0.3966  0.0699
  307loPI   GL2 4902  15.833   6.570  10.164 -0.0701 -0.1461  0.1123
  307loPI   C1A 4903  15.393   6.337   9.665 -0.1962  0.2636  0.4571
  307loPI   C2A 4904  15.392   6.312   9.195 -0.1047 -0.1796 -0.1325
  307loPI   C3A 4905  15.482   6.260   8.794  0.1558  0.1687  0.0175
  307loPI   C4A 4906  15.415   6.194   8.332  0.0240 -0.3918 -0.0938
  307loPI   C5A 4907  15.507   6.422   8.117  0.0318 -0.0401  0.1820
  307loPI   C6A 4908  15.697   6.827   8.047 -0.1797  0.2828 -0.0183
  307loPI   C1B 4909  15.729   6.662   9.752  0.1177  0.0490  0.2406
  307loPI   C2B 4910  15.718   6.698   9.280 -0.1105  0.1774  0.0580
  307loPI   C3B 4911  15.788   6.668   8.907 -0.2394  0.2296 -0.0339
  307loPI   C4B 4912  15.771   6.532   8.527  0.1564 -0.2135 -0.0310
  308loPI    C1 4913   9.881  16.167  10.847 -0.1508  0.0873  0.0356
  308loPI    C2 4914   9.644  15.851  10.910  0.0397 -0.0831 -0.0927
  308loPI    C3 4915  10.010  15.862  11.070  0.0267  0.0821 -0.0724
  308loPI   PO4 4916   9.917  16.176  10.567  0.0684  0.1249  0.0425
  308loPI   GL1 4917  10.030  15.877  10.181 -0.0588  0.2910  0.0031
  308loPI   GL2 4918  10.301  15.946  10.199  0.0151  0.1589 -0.0533
  308loPI   C1A 4919   9.813  15.937   9.800 -0.1155 -0.1507 -0.2196
  308loPI   C2A 4920   9.739  15.894   9.335 -0.2531 -0.0914 -0.0495
  308loPI   C3A 4921   9.740  15.815   8.985 -0.3888 -0.0093  0.1029
  308loPI   C4A 4922   9.880  15.854   8.649  0.0891  0.1068  0.0865
  308loPI   C5A 4923  10.011  15.886   8.229  0.0680 -0.3118  0.2334
  308loPI   C6A 4924  10.381  16.041   8.040  0.1074  0.0403 -0.1283
  308loPI   C1B 4925  10.337  15.772   9.812 -0.1290  0.1239 -0.1310
  308loPI   C2B 4926  10.251  15.759   9.426  0.1211 -0.2130 -0.4532
  308loPI   C3B 4927  10.370  15.778   8.950  0.2330  0.3786 -0.3067
  308loPI   C4B 4928  10.437  15.755   8.461 -0.2946 -0.0259 -0.0737
  309loPI    C1 4929   0.580   3.656  10.326 -0.0573  0.2457 -0.0297
  309loPI    C2 4930   0.322   3.351  10.351  0.1972  0.0187 -0.1266
  309loPI    C3 4931   0.524   3.469  10.675  0.0053  0.1691 -0.0602
  309loPI   PO4 4932   0.356   3.795  10.103 -0.1244  0.2151  0.2271
  309loPI   GL1 4933   0.226   3.761   9.600 -0.3152  0.0318 -0.2765
  309loPI   GL2 4934   0.032   4.035   9.772 -0.0173 -0.1906 -0.1365
  309loPI   C1A 4935   0.129   3.690   9.112 -0.1280 -0.1045  0.1773
  309loPI   C2A 4936   0.293   3.871   8.734 -0.0256  0.0219  0.0515
  309loPI   C3A 4937   0.666   3.840   8.558  0.2417  0.1010  0.0442
  309loPI   C4A 4938   0.963   3.916   8.302  0.0993  0.1697 -0.3789
  309loPI   C5A 4939   1.085   4.213   8.112  0.3099  0.2000 -0.1123
  309loPI   C6A 4940   1.026   4.704   8.184  0.5417  0.0518 -0.0454
  309loPI   C1B 4941  -0.093   4.178   9.387 -0.3226 -0.2813  0.2576
  309loPI   C2B 4942  -0.007   4.295   8.916  0.0455  0.0851  0.0265
  309loPI   C3B 4943   0.049   4.287   8.519 -0.3785 -0.1912 -0.1844
  309loPI   C4B 4944  -0.244   4.214   8.160 -0.0099 -0.1185  0.0020
  310loPI    C1 4945  10.422   8.198  10.482 -0.0153  0.1098  0.0545
  310loPI    C2 4946  10.399   8.330  10.859  0.0423 -0.0613  0.1190
  310loPI    C3 4947  10.252   7.971  10.764  0.1317 -0.0675  0.0022
  310loPI   PO4 4948  10.775   8.229  10.450 -0.2009 -0.1296  0.0996
  310loPI   GL1 4949  10.981   8.377  10.234  0.2447  0.0451 -0.0534
  310loPI   GL2 4950  11.085   8.690  10.174 -0.2430  0.6257 -0.1094
  310loPI   C1A 4951  11.098   8.433   9.779 -0.0263 -0.0987  0.0668
  310loPI   C2A 4952  11.051   8.339   9.431  0.0207  0.2243 -0.0066
  310loPI   C3A 4953  11.166   8.493   9.016  0.0717  0.0334 -0.1672
  310loPI   C4A 4954  11.136   8.530   8.563  0.2423 -0.0844 -0.0743
  310loPI   C5A 4955  11.165   8.382   8.224  0.0144  0.0103  0.2120
  310loPI   C6A 4956  11.160   8.492   7.761 -0.2301  0.2391 -0.2515
  310loPI   C1B 4957  11.225   8.920   9.798  0.1690 -0.0065 -0.1450
  310loPI   C2B 4958  11.379   8.857   9.395  0.2426  0.0875 -0.0981
  310loPI   C3B 4959  11.470   8.853   8.962 -0.0438  0.2595 -0.2007
  310loPI   C4B 4960  11.449   8.914   8.515  0.2687  0.2209 -0.0520
  311loPI    C1 4961   7.298  14.357  10.791 -0.0684  0.0141 -0.3310
  311loPI    C2 4962   7.215  14.097  10.498  0.1681 -0.2952 -0.1296
  311loPI    C3 4963   6.977  14.118  10.819  0.0370 -0.1181 -0.2369
  311loPI   PO4 4964   7.582  14.348  10.827  0.0188 -0.0548  0.1186
  311loPI   GL1 4965   7.755  14.466  10.425 -0.0522  0.0692 -0.0269
  311loPI   GL2 4966   7.788  14.057  10.441 -0.0668 -0.0574 -0.1535
  311loPI   C1A 4967   7.775  14.358   9.948 -0.2728  0.2775 -0.1396
  311loPI   C2A 4968   7.836  14.363   9.530  0.0681 -0.0199 -0.4134
  311loPI   C3A 4969   7.812  14.430   9.065 -0.2608 -0.2948  0.1983
  311loPI   C4A 4970   7.794  14.400   8.576  0.3114 -0.0872 -0.1759
  311loPI   C5A 4971   7.780  14.457   8.194  0.2196 -0.0371  0.0551
  311loPI   C6A 4972   7.746  14.374   7.768  0.1635 -0.3456  0.0934
  311loPI   C1B 4973   7.516  13.923  10.106 -0.0439 -0.1048  0.1795
  311loPI   C2B 4974   7.491  13.977   9.683 -0.2756 -0.2212  0.2314
  311loPI   C3B 4975   7.484  14.041   9.173  0.5653  0.0236  0.0748
  311loPI   C4B 4976   7.432  14.062   8.784 -0.2047 -0.1452  0.2721
  312loPI    C1 4977   9.428   1.783  10.473 -0.1529 -0.0920 -0.0777
  312loPI    C2 4978   9.708   1.603  10.695 -0.0287  0.0680 -0.1033
  312loPI    C3 4979   9.325   1.591  10.808  0.0363  0.1667  0.1323
  312loPI   PO4 4980   9.345   1.739  10.278 -0.4464  0.3681  0.0233
  312loPI   GL1 4981   9.288   1.950   9.934  0.0677  0.2227  0.0856
  312loPI   GL2 4982   9.330   2.307   9.843  0.0266  0.0486 -0.1536
  312loPI   C1A 4983   9.139   1.877   9.627  0.2781  0.1273 -0.0588
  312loPI   C2A 4984   9.097   1.799   9.177  0.0996  0.0385  0.0337
  312loPI   C3A 4985   9.043   1.762   8.775  0.3734 -0.0481  0.1183
  312loPI   C4A 4986   9.027   1.780   8.305  0.0247 -0.0626 -0.1954
  312loPI   C5A 4987   8.908   1.640   7.981 -0.1276  0.1413 -0.1526
  312loPI   C6A 4988   8.618   1.270   7.879 -0.0919 -0.1240  0.2499
  312loPI   C1B 4989   9.199   2.305   9.426 -0.2703 -0.1643 -0.0640
  312loPI   C2B 4990   9.178   2.256   9.039 -0.0055 -0.1294  0.0995
  312loPI   C3B 4991   8.989   2.311   8.607 -0.0044 -0.1963 -0.0165
  312loPI   C4B 4992   9.124   2.541   8.183  0.2110  0.0015 -0.1676
  313loPI    C1 4993   9.606   5.312  10.864  0.1039 -0.1587  0.1849
  313loPI    C2 4994   9.821   5.045  10.657 -0.0939 -0.2149  0.0478
  313loPI    C3 4995   9.694   4.957  11.026  0.4151 -0.0440  0.2741
  313loPI   PO4 4996   9.705   5.607  10.766  0.1175  0.1903 -0.1333
  313loPI   GL1 4997   9.973   5.515  10.446  0.1554  0.1020 -0.1921
  313loPI   GL2 4998   9.835   5.799  10.221  0.0039 -0.1966  0.0265
  313loPI   C1A 4999   9.968   5.263  10.002 -0.0281  0.0539  0.1106
  313loPI   C2A 5000   9.812   5.314   9.589 -0.1646 -0.0357 -0.3993
  313loPI   C3A 5001   9.904   5.281   9.176  0.3902  0.1979  0.0134
  313loPI   C4A 5002  10.026   5.364   8.784  0.2420 -0.2167  0.2193
  313loPI   C5A 5003  10.148   5.418   8.405  0.2193 -0.1692 -0.1768
  313loPI   C6A 5004  10.296   5.571   7.978 -0.0201 -0.2335 -0.2398
  313loPI   C1B 5005   9.862   5.783   9.839  0.0354  0.2801 -0.0685
  313loPI   C2B 5006   9.753   5.774   9.389 -0.1007 -0.0283  0.1246
  313loPI   C3B 5007   9.984   5.781   9.075 -0.2858  0.1286 -0.3087
  313loPI   C4B 5008   9.962   5.862   8.625  0.3452 -0.0161  0.1339
  314loPI    C1 5009  13.985   7.507  10.868  0.1652 -0.0240 -0.0568
  314loPI    C2 5010  13.985   7.139  11.023 -0.0320 -0.0512 -0.1182
  314loPI    C3 5011  14.035   7.456  11.262  0.0648 -0.1130 -0.0553
  314loPI   PO4 5012  14.148   7.532  10.729 -0.2597  0.1783 -0.0415
  314loPI   GL1 5013  14.412   7.417  10.415  0.1282 -0.1272  0.1689
  314loPI   GL2 5014  14.149   7.640  10.238  0.1150  0.0791  0.2177
  314loPI   C1A 5015  14.570   7.374  10.023 -0.1104  0.1007 -0.1185
  314loPI   C2A 5016  14.556   7.525   9.648 -0.0588 -0.1336  0.1378
  314loPI   C3A 5017  14.695   7.428   9.226 -0.2163 -0.1572  0.1950
  314loPI   C4A 5018  14.678   7.397   8.822 -0.0235  0.3464  0.0672
  314loPI   C5A 5019  14.652   7.423   8.350 -0.0091 -0.0053 -0.1504
  314loPI   C6A 5020  14.821   7.294   7.866 -0.2445  0.0090 -0.0989
  314loPI   C1B 5021  14.082   7.536   9.841  0.1725  0.1563 -0.0457
  314loPI   C2B 5022  14.087   7.703   9.411 -0.0645 -0.0147 -0.0830
  314loPI   C3B 5023  14.241   7.570   8.937  0.0136 -0.1239  0.0937
  314loPI   C4B 5024  14.165   7.597   8.473 -0.1553  0.0942  0.1118
  315loPI    C1 5025   3.689   7.096  10.526  0.0561  0.0057 -0.0981
  315loPI    C2 5026   3.331   6.968  10.651 -0.0860  0.2270 -0.2698
  315loPI    C3 5027   3.556   7.195  10.891 -0.0484  0.0675 -0.1524
  315loPI   PO4 5028   3.760   7.047  10.232  0.1341  0.1443  0.0130
  315loPI   GL1 5029   3.631   6.813   9.997  0.3181 -0.2667 -0.0026
  315loPI   GL2 5030   3.516   6.494   9.864 -0.0480 -0.1916 -0.3315
  315loPI   C1A 5031   3.877   6.900   9.615 -0.0768 -0.1973 -0.1342
  315loPI   C2A 5032   3.870   6.888   9.243  0.0185 -0.1871  0.0793
  315loPI   C3A 5033   3.904   6.853   8.930  0.0234  0.1522  0.2247
  315loPI   C4A 5034   3.882   6.965   8.503 -0.1797  0.0269  0.2653
  315loPI   C5A 5035   3.616   7.093   8.186 -0.1432  0.2861  0.2473
  315loPI   C6A 5036   3.545   7.546   8.037  0.2814  0.1113  0.0584
  315loPI   C1B 5037   3.495   6.534   9.405  0.3622  0.2277  0.2287
  315loPI   C2B 5038   3.477   6.490   8.954  0.0814  0.2441  0.0805
  315loPI   C3B 5039   3.649   6.499   8.508 -0.0189  0.1178 -0.1850
  315loPI   C4B 5040   3.767   6.641   8.117  0.1568 -0.0359  0.0502
  316loPI    C1 5041   3.890  16.667  10.526 -0.1813  0.0887 -0.0207
  316loPI    C2 5042   3.940  16.270  10.525 -0.0823  0.1012 -0.0216
  316loPI    C3 5043   4.077  16.489  10.831 -0.0410  0.1463 -0.0721
  316loPI   PO4 5044   4.002  16.744  10.259 -0.0532 -0.0561  0.0604
  316loPI   GL1 5045   4.086  16.702   9.786  0.0043  0.1244 -0.0903
  316loPI   GL2 5046   4.300  16.499   9.787  0.1920 -0.3761 -0.2865
  316loPI   C1A 5047   3.913  16.902   9.441 -0.2363  0.1799  0.1872
  316loPI   C2A 5048   3.819  16.863   9.001  0.0843  0.0261  0.2019
  316loPI   C3A 5049   3.723  16.874   8.597  0.3631 -0.0324 -0.3337
  316loPI   C4A 5050   3.817  16.760   8.167 -0.1572 -0.1456 -0.0964
  316loPI   C5A 5051   4.078  16.745   7.790 -0.3072 -0.0350 -0.1515
  316loPI   C6A 5052   4.350  16.775   7.364  0.1566 -0.4128  0.0315
  316loPI   C1B 5053   4.390  16.556   9.396  0.0440 -0.0961  0.0703
  316loPI   C2B 5054   4.296  16.750   8.946 -0.3674 -0.1944  0.1698
  316loPI   C3B 5055   4.272  16.790   8.502  0.1649 -0.2151  0.0923
  316loPI   C4B 5056   4.398  16.874   8.142 -0.1613  0.3382  0.0356
  317loPI    C1 5057   2.294   6.689  10.462 -0.1088 -0.0970 -0.1599
  317loPI    C2 5058   2.246   7.005  10.702 -0.0733  0.0472 -0.3404
  317loPI    C3 5059   2.246   6.635  10.856  0.0915  0.1446 -0.1000
  317loPI   PO4 5060   2.433   6.801  10.243 -0.1026  0.0114  0.0313
  317loPI   GL1 5061   2.333   7.113   9.955 -0.1497  0.1265  0.2425
  317loPI   GL2 5062   2.179   6.847   9.823 -0.0744  0.0187  0.2531
  317loPI   C1A 5063   2.226   7.222   9.437  0.2493 -0.1757 -0.0840
  317loPI   C2A 5064   2.312   7.283   9.032 -0.0146  0.1862  0.1764
  317loPI   C3A 5065   2.212   7.244   8.645  0.1154 -0.3233  0.0128
  317loPI   C4A 5066   2.289   7.239   8.202  0.0846 -0.0451  0.0456
  317loPI   C5A 5067   2.520   7.483   7.910 -0.2693 -0.1005 -0.0068
  317loPI   C6A 5068   2.997   7.578   7.945 -0.3431 -0.0788 -0.0043
  317loPI   C1B 5069   2.324   6.668   9.553  0.2310  0.0152 -0.0478
  317loPI   C2B 5070   2.372   6.731   9.082  0.2000 -0.1014 -0.1737
  317loPI   C3B 5071   2.392   6.794   8.659  0.0334  0.0278 -0.1413
  317loPI   C4B 5072   2.373   6.732   8.178  0.0025 -0.0538 -0.2112
  318loPI    C1 5073  14.876   3.585  10.778  0.4391  0.0203 -0.0292
  318loPI    C2 5074  14.887   3.226  10.954  0.0302  0.0679  0.1052
  318loPI    C3 5075  14.797   3.551  11.169  0.2279  0.2287 -0.0512
  318loPI   PO4 5076  14.772   3.537  10.480 -0.1549 -0.0009 -0.4023
  318loPI   GL1 5077  14.720   3.578  10.107 -0.0649 -0.0158 -0.2261
  318loPI   GL2 5078  14.814   3.903  10.092 -0.3600  0.3122 -0.1376
  318loPI   C1A 5079  14.806   3.609   9.660  0.1390 -0.0068 -0.4082
  318loPI   C2A 5080  14.748   3.650   9.195 -0.2456 -0.0109  0.0196
  318loPI   C3A 5081  14.769   3.644   8.731  0.3206 -0.0706  0.2014
  318loPI   C4A 5082  14.652   3.676   8.259  0.1398 -0.2060  0.0334
  318loPI   C5A 5083  14.523   3.657   7.863 -0.1642 -0.0127 -0.2535
  318loPI   C6A 5084  14.603   3.935   7.542 -0.1109 -0.0969 -0.3010
  318loPI   C1B 5085  14.669   4.105   9.781  0.0177  0.0750 -0.2257
  318loPI   C2B 5086  14.632   4.155   9.408 -0.0797  0.2431  0.2335
  318loPI   C3B 5087  14.630   4.076   9.008  0.1617 -0.0618 -0.0172
  318loPI   C4B 5088  14.653   4.098   8.493 -0.0073 -0.1566 -0.0173
  319loPI    C1 5089   2.948  14.410  10.597 -0.0227  0.0938 -0.2454
  319loPI    C2 5090   3.331  14.401  10.712  0.0042  0.2638 -0.3192
  319loPI    C3 5091   3.122  14.740  10.741 -0.2065  0.1160 -0.0703
  319loPI   PO4 5092   2.938  14.327  10.394  0.0610  0.0504  0.1586
  319loPI   GL1 5093   3.020  14.291   9.931  0.0357  0.2276  0.1571
  319loPI   GL2 5094   3.277  14.471   9.882  0.1054 -0.0987 -0.1801
  319loPI   C1A 5095   3.088  14.127   9.537 -0.2649  0.1164 -0.4530
  319loPI   C2A 5096   3.098  14.096   9.170 -0.0625  0.2794  0.0750
  319loPI   C3A 5097   3.110  14.125   8.751  0.1466  0.0352  0.3620
  319loPI   C4A 5098   3.128  14.060   8.245  0.1746  0.0524  0.0926
  319loPI   C5A 5099   3.166  14.138   7.829  0.0285 -0.0383  0.0750
  319loPI   C6A 5100   3.372  14.132   7.382 -0.0277 -0.3686  0.0991
  319loPI   C1B 5101   3.494  14.434   9.417  0.0973 -0.1007 -0.1408
  319loPI   C2B 5102   3.421  14.560   8.922  0.0920  0.1394  0.2126
  319loPI   C3B 5103   3.425  14.500   8.539  0.4393  0.0460  0.2063
  319loPI   C4B 5104   3.442  14.540   8.111  0.0686 -0.1241  0.0154
  320loPI    C1 5105  14.088   8.293  11.086 -0.1127  0.1240  0.1625
  320loPI    C2 5106  13.873   8.007  10.908  0.1533  0.1807 -0.2639
  320loPI    C3 5107  14.225   7.917  11.076 -0.0503  0.1467  0.1585
  320loPI   PO4 5108  14.091   8.432  10.903 -0.1861 -0.0141 -0.3116
  320loPI   GL1 5109  14.250   8.588  10.466 -0.0193  0.2366 -0.1875
  320loPI   GL2 5110  14.528   8.358  10.272  0.0890 -0.1467 -0.0540
  320loPI   C1A 5111  14.009   8.704  10.134 -0.0599 -0.0331 -0.0658
  320loPI   C2A 5112  13.863   8.711   9.762 -0.1263  0.0972  0.0160
  320loPI   C3A 5113  13.841   8.722   9.243  0.0786  0.3476 -0.4019
  320loPI   C4A 5114  13.934   8.544   8.849 -0.1278  0.0266 -0.0774
  320loPI   C5A 5115  13.857   8.642   8.375 -0.0029 -0.0743  0.0870
  320loPI   C6A 5116  13.916   8.348   8.038  0.1783  0.1242  0.0749
  320loPI   C1B 5117  14.414   8.471   9.869  0.1751  0.0552 -0.1825
  320loPI   C2B 5118  14.324   8.493   9.381 -0.0321 -0.1383 -0.3896
  320loPI   C3B 5119  14.391   8.381   8.978 -0.0069  0.2755 -0.2730
  320loPI   C4B 5120  14.351   8.447   8.499  0.1672 -0.2414  0.0460
  321loPI    C1 5121   8.147   7.164  11.143  0.0383 -0.0478  0.1996
  321loPI    C2 5122   8.277   7.063  11.507  0.1133 -0.3725  0.0855
  321loPI    C3 5123   7.916   6.943  11.383  0.0995 -0.2865  0.0422
  321loPI   PO4 5124   8.378   7.132  10.932  0.7399 -0.2876 -0.2378
  321loPI   GL1 5125   8.136   7.107  10.450 -0.1855 -0.3208 -0.0461
  321loPI   GL2 5126   8.446   7.245  10.430  0.0532 -0.0708  0.0228
  321loPI   C1A 5127   7.926   7.245  10.151  0.1429  0.0252 -0.1363
  321loPI   C2A 5128   7.961   7.264   9.682  0.0051  0.2747  0.0946
  321loPI   C3A 5129   8.039   7.211   9.193  0.0455 -0.1002 -0.3708
  321loPI   C4A 5130   8.148   7.124   8.766  0.0108  0.0759 -0.1764
  321loPI   C5A 5131   8.153   7.165   8.303 -0.0134  0.1977  0.0279
  321loPI   C6A 5132   8.195   7.205   7.827  0.0289  0.2117 -0.2969
  321loPI   C1B 5133   8.426   7.035  10.047  0.0719  0.1562  0.1006
  321loPI   C2B 5134   8.468   7.095   9.548 -0.2689 -0.0058  0.0442
  321loPI   C3B 5135   8.569   7.094   9.148 -0.1492  0.1636  0.3277
  321loPI   C4B 5136   8.613   7.055   8.743 -0.0617 -0.0196  0.2274
  322loPI    C1 5137  14.974  12.883  10.757 -0.0330  0.0740 -0.1543
  322loPI    C2 5138  15.019  12.638  11.069 -0.1739  0.0005 -0.1910
  322loPI    C3 5139  15.195  12.997  11.070 -0.0676 -0.0510 -0.0839
  322loPI   PO4 5140  15.027  12.708  10.485  0.0931  0.0451  0.0579
  322loPI   GL1 5141  14.983  12.746  10.097  0.1574  0.0647  0.0569
  322loPI   GL2 5142  15.222  12.883   9.889 -0.0158 -0.0964  0.2584
  322loPI   C1A 5143  14.984  12.556   9.630 -0.1288  0.1636 -0.3369
  322loPI   C2A 5144  15.126  12.551   9.205 -0.1149 -0.1334  0.0817
  322loPI   C3A 5145  15.085  12.600   8.775  0.1625  0.3861 -0.0771
  322loPI   C4A 5146  14.963  12.401   8.350 -0.1040 -0.0159 -0.0935
  322loPI   C5A 5147  14.717  12.472   7.962 -0.0769 -0.0077  0.0930
  322loPI   C6A 5148  14.259  12.364   7.795 -0.2166 -0.2433 -0.0033
  322loPI   C1B 5149  15.387  12.875   9.516 -0.3944  0.1337 -0.0350
  322loPI   C2B 5150  15.465  12.850   9.010  0.0381 -0.2477  0.1931
  322loPI   C3B 5151  15.427  12.863   8.688 -0.2281 -0.0200  0.1995
  322loPI   C4B 5152  15.374  12.927   8.253 -0.0973  0.0724  0.0023
  323loPI    C1 5153   5.642   0.393   9.958 -0.2237  0.0858  0.0449
  323loPI    C2 5154   5.581   0.714  10.189 -0.1658  0.0338  0.1331
  323loPI    C3 5155   5.340   0.643   9.878 -0.0849  0.2467  0.0196
  323loPI   PO4 5156   5.958   0.291   9.947  0.0608 -0.2329 -0.1277
  323loPI   GL1 5157   6.115   0.396   9.654 -0.0979 -0.1337  0.1108
  323loPI   GL2 5158   6.441   0.186   9.620 -0.4701 -0.2664 -0.2012
  323loPI   C1A 5159   6.009   0.629   9.204  0.2898 -0.0310  0.2482
  323loPI   C2A 5160   6.105   0.680   8.711  0.3425  0.1212 -0.0321
  323loPI   C3A 5161   6.045   0.538   8.257  0.0005 -0.0724 -0.2490
  323loPI   C4A 5162   6.032   0.621   7.724  0.0555 -0.2031  0.2312
  323loPI   C5A 5163   6.101   0.976   7.445  0.1433  0.2397 -0.2109
  323loPI   C6A 5164   6.455   1.171   7.327  0.2625 -0.1341 -0.0412
  323loPI   C1B 5165   6.599  -0.030   9.384  0.2167 -0.1782 -0.2068
  323loPI   C2B 5166   6.670  -0.082   9.010 -0.1280  0.1884  0.2037
  323loPI   C3B 5167   6.708   0.056   8.663  0.1201 -0.0578  0.4214
  323loPI   C4B 5168   6.625  -0.008   8.187  0.2152 -0.0631 -0.1824
  324loPI    C1 5169   7.896  16.246  10.510  0.0522  0.4706  0.0029
  324loPI    C2 5170   7.523  16.304  10.643 -0.0280  0.0472 -0.0229
  324loPI    C3 5171   7.835  16.405  10.872 -0.1590  0.1907  0.0944
  324loPI   PO4 5172   7.915  16.042  10.458 -0.0455  0.1252  0.0054
  324loPI   GL1 5173   7.854  15.725  10.292  0.0032  0.0787 -0.0869
  324loPI   GL2 5174   7.878  15.470  10.270  0.0090 -0.1184  0.0500
  324loPI   C1A 5175   7.783  15.755   9.816 -0.0634  0.0140  0.2147
  324loPI   C2A 5176   7.784  15.821   9.382  0.1199  0.0816 -0.0007
  324loPI   C3A 5177   7.928  15.878   9.002  0.0974  0.1529  0.1720
  324loPI   C4A 5178   7.864  15.752   8.615  0.1006  0.0811 -0.0835
  324loPI   C5A 5179   8.058  15.655   8.266 -0.0787  0.0458  0.2587
  324loPI   C6A 5180   8.118  15.647   7.920 -0.1999 -0.0278 -0.2135
  324loPI   C1B 5181   7.967  15.308   9.920  0.1632  0.0385  0.1331
  324loPI   C2B 5182   8.005  15.274   9.491 -0.1361  0.0788  0.1108
  324loPI   C3B 5183   8.088  15.414   8.968  0.1434 -0.0801 -0.0951
  324loPI   C4B 5184   8.042  15.259   8.585 -0.2458  0.1160 -0.0689
  325loPI    C1 5185   4.570  14.513  10.780 -0.1182  0.0947  0.0291
  325loPI    C2 5186   4.670  14.896  10.835 -0.3114  0.1367  0.0968
  325loPI    C3 5187   4.678  14.641  11.143  0.0604  0.0265  0.0008
  325loPI   PO4 5188   4.800  14.395  10.520  0.2930 -0.0730 -0.0980
  325loPI   GL1 5189   4.753  14.081  10.204 -0.3373  0.1520 -0.1461
  325loPI   GL2 5190   4.494  14.196  10.113 -0.2036 -0.0171 -0.2679
  325loPI   C1A 5191   4.959  14.091   9.800  0.0388 -0.0837  0.0135
  325loPI   C2A 5192   5.064  14.029   9.496  0.0683 -0.1576  0.2349
  325loPI   C3A 5193   4.981  14.028   9.069  0.0732  0.2118 -0.0976
  325loPI   C4A 5194   4.991  14.154   8.711  0.1362  0.2596 -0.0740
  325loPI   C5A 5195   5.088  14.493   8.391  0.3301  0.2977  0.0140
  325loPI   C6A 5196   5.376  14.402   8.142  0.1471 -0.2909 -0.3796
  325loPI   C1B 5197   4.495  14.216   9.612 -0.0491 -0.1078 -0.1229
  325loPI   C2B 5198   4.531  14.293   9.118 -0.0805  0.1308 -0.0988
  325loPI   C3B 5199   4.431  14.247   8.644 -0.0427  0.6000  0.1717
  325loPI   C4B 5200   4.600  14.413   8.244  0.0147 -0.2268  0.1172
  326loPI    C1 5201  15.541   4.285  10.798 -0.0720  0.1046  0.1476
  326loPI    C2 5202  15.816   4.544  10.666 -0.1293  0.0463 -0.0907
  326loPI    C3 5203  15.926   4.232  10.890 -0.0341  0.1617  0.0243
  326loPI   PO4 5204  15.424   4.252  10.437 -0.0260 -0.0492 -0.1659
  326loPI   GL1 5205  15.382   4.492  10.097  0.2544  0.2852  0.0261
  326loPI   GL2 5206  15.198   4.174   9.979 -0.0968  0.3230  0.0246
  326loPI   C1A 5207  15.263   4.859   9.933  0.1548  0.0948  0.0234
  326loPI   C2A 5208  15.274   4.894   9.518 -0.0966 -0.2174  0.0080
  326loPI   C3A 5209  15.312   4.760   9.059  0.0759 -0.1573  0.3466
  326loPI   C4A 5210  15.386   4.889   8.592  0.0500  0.3617  0.3886
  326loPI   C5A 5211  15.214   4.887   8.200  0.4799 -0.0480  0.0825
  326loPI   C6A 5212  14.759   4.899   8.045 -0.1036 -0.0171 -0.1104
  326loPI   C1B 5213  15.175   3.953   9.667  0.2380 -0.3711 -0.2647
  326loPI   C2B 5214  15.099   4.014   9.259  0.0543  0.0490 -0.1968
  326loPI   C3B 5215  15.113   4.051   8.857  0.0368  0.1433 -0.2018
  326loPI   C4B 5216  15.207   4.004   8.422 -0.0166 -0.1895 -0.3001
  327loPI    C1 5217   0.717  15.663  10.161  0.1005 -0.1209 -0.2785
  327loPI    C2 5218   0.682  15.509  10.529  0.1709 -0.0338 -0.2347
  327loPI    C3 5219   0.527  15.315  10.215 -0.0094 -0.0409 -0.1423
  327loPI   PO4 5220   0.940  15.698  10.113  0.3651  0.2799 -0.0666
  327loPI   GL1 5221   1.017  15.714   9.693  0.1090  0.0054  0.0891
  327loPI   GL2 5222   0.730  15.472   9.693  0.0281  0.3593 -0.1581
  327loPI   C1A 5223   0.779  15.665   9.252  0.1312  0.1582  0.0430
  327loPI   C2A 5224   0.791  15.617   8.869 -0.0497 -0.1931 -0.0252
  327loPI   C3A 5225   0.715  15.654   8.358  0.1589  0.1349  0.0347
  327loPI   C4A 5226   0.880  15.687   7.949 -0.3228  0.0311 -0.1977
  327loPI   C5A 5227   0.969  15.467   7.704 -0.0536 -0.2002 -0.0578
  327loPI   C6A 5228   1.362  15.262   7.507  0.2933  0.0427  0.3349
  327loPI   C1B 5229   0.536  15.237   9.299  0.0865 -0.1534  0.1326
  327loPI   C2B 5230   0.460  15.270   8.848  0.0338  0.0259  0.0526
  327loPI   C3B 5231   0.434  15.176   8.406 -0.2331  0.0246 -0.0028
  327loPI   C4B 5232   0.456  15.151   7.949  0.1760 -0.1181 -0.0808
  328loPI    C1 5233   5.335  13.372  10.759  0.1541 -0.2121  0.0403
  328loPI    C2 5234   5.029  13.253  10.988 -0.0819 -0.0847 -0.2041
  328loPI    C3 5235   5.402  13.147  11.083 -0.1979 -0.2233  0.1098
  328loPI   PO4 5236   5.388  13.322  10.494 -0.2257 -0.0092 -0.3837
  328loPI   GL1 5237   5.492  13.107  10.115 -0.1900  0.3279 -0.1266
  328loPI   GL2 5238   5.709  13.378  10.074  0.0420  0.1903 -0.1132
  328loPI   C1A 5239   5.370  13.139   9.746 -0.2130 -0.2203  0.0193
  328loPI   C2A 5240   5.324  13.099   9.319 -0.1160  0.0678  0.1200
  328loPI   C3A 5241   5.341  13.159   8.866  0.2084  0.0098 -0.0395
  328loPI   C4A 5242   5.370  13.096   8.488  0.0732  0.2842 -0.4392
  328loPI   C5A 5243   5.440  13.182   8.059  0.1234  0.0718 -0.1543
  328loPI   C6A 5244   5.498  13.225   7.532  0.1170  0.2954 -0.2864
  328loPI   C1B 5245   5.756  13.443   9.713 -0.0590  0.3812  0.0444
  328loPI   C2B 5246   5.671  13.443   9.366  0.1077  0.2328 -0.1472
  328loPI   C3B 5247   5.718  13.417   8.845  0.2639 -0.0039  0.0233
  328loPI   C4B 5248   5.813  13.477   8.417 -0.0537 -0.1502  0.1254
  329loPI    C1 5249  15.035  13.905  10.477  0.0341 -0.2485 -0.1564
  329loPI    C2 5250  15.124  13.546  10.629 -0.0358 -0.0240  0.4411
  329loPI    C3 5251  15.361  13.859  10.703  0.1520  0.0190 -0.2675
  329loPI   PO4 5252  14.992  13.839  10.223 -0.2789 -0.0555  0.0407
  329loPI   GL1 5253  14.967  13.652   9.912  0.1442  0.2411  0.0099
  329loPI   GL2 5254  15.097  13.408   9.818 -0.1979 -0.0501  0.0067
  329loPI   C1A 5255  15.195  13.837   9.510  0.0150 -0.1222  0.1894
  329loPI   C2A 5256  15.210  13.890   9.024  0.1070  0.1010  0.0687
  329loPI   C3A 5257  15.082  14.045   8.744  0.2932 -0.2493  0.3237
  329loPI   C4A 5258  15.108  14.155   8.289 -0.5271  0.0417  0.1127
  329loPI   C5A 5259  15.451  14.085   7.939 -0.1219  0.0152 -0.0842
  329loPI   C6A 5260  15.735  13.736   8.003 -0.0372  0.1152 -0.1483
  329loPI   C1B 5261  15.273  13.324   9.416  0.2323 -0.3811  0.1607
  329loPI   C2B 5262  15.309  13.423   8.956  0.1447  0.3094 -0.2931
  329loPI   C3B 5263  15.208  13.446   8.535 -0.4137  0.3366  0.0929
  329loPI   C4B 5264  15.085  13.635   8.162 -0.1992  0.0082  0.0310
  330loPI    C1 5265  15.906  14.542  10.543 -0.0270  0.0541  0.1948
  330loPI    C2 5266  15.684  14.271  10.737 -0.1666  0.0132 -0.0180
  330loPI    C3 5267  15.939  14.504  10.940 -0.0446 -0.2759  0.1671
  330loPI   PO4 5268  15.891  14.440  10.299  0.1557 -0.1206  0.1986
  330loPI   GL1 5269  16.077  14.602   9.903  0.0393 -0.1374 -0.1880
  330loPI   GL2 5270  15.780  14.611   9.690 -0.1819  0.0837  0.1118
  330loPI   C1A 5271  16.243  14.510   9.477  0.2274  0.4448  0.1079
  330loPI   C2A 5272  16.266  14.502   8.963 -0.0972  0.0225 -0.1611
  330loPI   C3A 5273  16.327  14.527   8.551 -0.2664  0.0033 -0.0260
  330loPI   C4A 5274  16.530  14.461   8.136  0.0009 -0.1571  0.0080
  330loPI   C5A 5275  16.615  14.629   7.785  0.0657  0.1377 -0.2961
  330loPI   C6A 5276  16.477  15.031   7.670  0.3246  0.0894  0.0409
  330loPI   C1B 5277  15.796  14.637   9.268  0.0356  0.3647  0.2358
  330loPI   C2B 5278  15.866  14.665   8.730 -0.0549  0.0094  0.1475
  330loPI   C3B 5279  15.820  14.850   8.256  0.4427  0.1692  0.0460
  330loPI   C4B 5280  15.663  14.985   7.840 -0.0958  0.3413  0.1597
  331loPI    C1 5281   1.751  14.764  10.402 -0.1124 -0.0519 -0.0941
  331loPI    C2 5282   1.835  14.471  10.662  0.0509 -0.1087 -0.2093
  331loPI    C3 5283   1.595  14.772  10.770 -0.0170 -0.2197 -0.0486
  331loPI   PO4 5284   1.677  14.650  10.180 -0.1731 -0.0156 -0.1734
  331loPI   GL1 5285   1.667  14.367   9.949 -0.2853  0.0915 -0.1468
  331loPI   GL2 5286   1.826  14.152  10.000  0.1438 -0.2611 -0.0247
  331loPI   C1A 5287   1.581  14.466   9.524 -0.4286  0.1230  0.1368
  331loPI   C2A 5288   1.550  14.407   9.125 -0.3670  0.0651 -0.1968
  331loPI   C3A 5289   1.516  14.579   8.709  0.2340 -0.1399 -0.2471
  331loPI   C4A 5290   1.572  14.426   8.390 -0.1103  0.0346  0.1310
  331loPI   C5A 5291   1.510  14.271   8.082 -0.1027 -0.1706  0.0110
  331loPI   C6A 5292   1.554  14.449   7.596 -0.0075  0.0368 -0.2588
  331loPI   C1B 5293   1.803  13.932   9.617  0.0121  0.1500  0.0280
  331loPI   C2B 5294   1.691  13.878   9.214  0.1846  0.0308 -0.0392
  331loPI   C3B 5295   1.795  13.927   8.755 -0.0635  0.0511 -0.1274
  331loPI   C4B 5296   1.822  13.978   8.352  0.3306 -0.4199  0.3533
  332loPI    C1 5297   4.820   3.894  10.589 -0.0624  0.0231 -0.2000
  332loPI    C2 5298   5.022   3.872  10.934  0.1208 -0.0968 -0.3132
  332loPI    C3 5299   4.711   3.628  10.868 -0.2014  0.2326 -0.0520
  332loPI   PO4 5300   5.000   3.717  10.315 -0.0879 -0.1358 -0.2507
  332loPI   GL1 5301   5.407   3.854  10.049  0.3986  0.1146 -0.3940
  332loPI   GL2 5302   5.762   4.004  10.082 -0.0711  0.2759 -0.2240
  332loPI   C1A 5303   5.470   4.012   9.595 -0.0838 -0.0901  0.1734
  332loPI   C2A 5304   5.513   3.988   9.198  0.1114  0.2648  0.0921
  332loPI   C3A 5305   5.671   4.102   8.878  0.0965 -0.1042  0.2456
  332loPI   C4A 5306   5.608   4.087   8.424 -0.1177  0.0088 -0.2413
  332loPI   C5A 5307   5.458   4.030   8.075 -0.2181 -0.1894 -0.1526
  332loPI   C6A 5308   5.243   3.927   7.684  0.2666  0.1164 -0.0963
  332loPI   C1B 5309   5.844   4.392   9.740 -0.0363 -0.2321  0.0356
  332loPI   C2B 5310   5.869   4.307   9.342  0.0428 -0.2577  0.0828
  332loPI   C3B 5311   6.009   4.460   8.899  0.2042  0.0460 -0.3142
  332loPI   C4B 5312   5.971   4.509   8.542 -0.0983 -0.3260  0.1951
  333loPI    C1 5313   5.116   5.356  10.652  0.0709 -0.1024  0.2051
  333loPI    C2 5314   4.814   5.609  10.719  0.0739 -0.0927  0.1820
  333loPI    C3 5315   4.851   5.279  10.942 -0.1260 -0.2476 -0.0097
  333loPI   PO4 5316   5.376   5.516  10.606 -0.0392  0.0917 -0.0524
  333loPI   GL1 5317   5.366   5.667  10.149 -0.0506 -0.0171 -0.0037
  333loPI   GL2 5318   5.502   5.334  10.082  0.0140 -0.1499 -0.0981
  333loPI   C1A 5319   5.460   5.914   9.753 -0.1395 -0.1401 -0.0401
  333loPI   C2A 5320   5.493   6.081   9.331 -0.0989 -0.1938  0.0139
  333loPI   C3A 5321   5.605   6.027   8.865 -0.0812 -0.2635  0.0101
  333loPI   C4A 5322   5.571   5.873   8.454  0.0408 -0.1595 -0.1967
  333loPI   C5A 5323   5.591   5.660   7.997  0.2415  0.2716 -0.0097
  333loPI   C6A 5324   5.874   5.650   7.711  0.0010 -0.0483  0.1325
  333loPI   C1B 5325   5.617   5.392   9.678  0.2264 -0.1066  0.0698
  333loPI   C2B 5326   5.642   5.460   9.294  0.2478  0.3365  0.1508
  333loPI   C3B 5327   5.635   5.403   8.846  0.1118 -0.1815 -0.0649
  333loPI   C4B 5328   5.713   5.387   8.407  0.0379  0.3061  0.0813
  334loPI    C1 5329   1.615   0.924  10.136 -0.0338  0.2212  0.1688
  334loPI    C2 5330   1.467   0.574  10.260  0.2185  0.0345 -0.0462
  334loPI    C3 5331   1.516   0.874  10.521 -0.3075  0.0243  0.0755
  334loPI   PO4 5332   1.385   0.968   9.888 -0.0043  0.1467 -0.2123
  334loPI   GL1 5333   1.434   1.140   9.528 -0.4960 -0.1054 -0.1154
  334loPI   GL2 5334   1.281   1.329   9.495 -0.0557 -0.0117  0.3309
  334loPI   C1A 5335   1.824   1.105   9.262  0.2517  0.0216 -0.3332
  334loPI   C2A 5336   1.799   1.241   8.843 -0.2937  0.1800 -0.2222
  334loPI   C3A 5337   1.895   1.337   8.532 -0.0150  0.1068 -0.3557
  334loPI   C4A 5338   1.991   1.533   8.186 -0.2637 -0.0291 -0.0375
  334loPI   C5A 5339   1.663   1.827   7.891 -0.3566  0.0445 -0.2873
  334loPI   C6A 5340   1.717   2.052   7.544 -0.2413  0.2928  0.0688
  334loPI   C1B 5341   1.381   1.344   9.067 -0.3734  0.1838 -0.0287
  334loPI   C2B 5342   1.301   1.275   8.576 -0.1856 -0.2881  0.0043
  334loPI   C3B 5343   1.450   1.334   8.102 -0.1371  0.1445 -0.1538
  334loPI   C4B 5344   1.766   1.365   7.728 -0.3881  0.0957  0.0931
  335loPI    C1 5345   9.481  11.992  10.710 -0.0150  0.0188 -0.0564
  335loPI    C2 5346   9.270  12.198  10.980 -0.0426  0.3038 -0.2907
  335loPI    C3 5347   9.669  12.191  11.001 -0.0578  0.0199 -0.0294
  335loPI   PO4 5348   9.416  12.036  10.518 -0.0360 -0.1007 -0.1907
  335loPI   GL1 5349   9.527  11.992  10.087  0.0538  0.1605 -0.1096
  335loPI   GL2 5350   9.837  12.065   9.996  0.3319 -0.1698  0.2487
  335loPI   C1A 5351   9.512  12.274   9.677  0.1559 -0.1156 -0.0156
  335loPI   C2A 5352   9.438  12.197   9.250 -0.0185 -0.0760 -0.0147
  335loPI   C3A 5353   9.382  12.068   8.853  0.3024  0.1831 -0.4136
  335loPI   C4A 5354   9.402  12.003   8.436  0.1162  0.1295 -0.2834
  335loPI   C5A 5355   9.533  12.076   8.080  0.2888  0.0932 -0.0113
  335loPI   C6A 5356   9.771  11.866   7.823 -0.3302  0.1406  0.0176
  335loPI   C1B 5357   9.991  12.039   9.683  0.0142  0.0214  0.1764
  335loPI   C2B 5358  10.032  12.121   9.273 -0.0937 -0.0460  0.1155
  335loPI   C3B 5359   9.885  12.077   8.889  0.0510 -0.0275  0.1413
  335loPI   C4B 5360   9.896  11.906   8.447  0.4306  0.2751  0.0565
  336loPI    C1 5361   9.928  16.956  10.759 -0.1660 -0.2011 -0.1292
  336loPI    C2 5362  10.153  16.627  10.725 -0.0295 -0.1199 -0.0228
  336loPI    C3 5363   9.867  16.646  11.005  0.0791 -0.0823  0.0864
  336loPI   PO4 5364   9.929  16.984  10.475 -0.2706  0.2549  0.1958
  336loPI   GL1 5365   9.998  16.864  10.034  0.3106 -0.2279  0.0910
  336loPI   GL2 5366  10.077  16.624  10.168 -0.2613  0.4274 -0.1710
  336loPI   C1A 5367  10.054  16.760   9.597  0.0181 -0.1027  0.2091
  336loPI   C2A 5368  10.008  16.708   9.165 -0.0198 -0.1543 -0.0355
  336loPI   C3A 5369  10.005  16.685   8.748 -0.0048  0.1048  0.3704
  336loPI   C4A 5370  10.250  16.899   8.462  0.2015  0.1064 -0.0217
  336loPI   C5A 5371  10.571  16.974   8.119  0.1406 -0.0317  0.0923
  336loPI   C6A 5372  10.856  17.273   8.072 -0.3133 -0.0674  0.1770
  336loPI   C1B 5373  10.197  16.354   9.921  0.0689  0.0262  0.0577
  336loPI   C2B 5374  10.195  16.275   9.464 -0.3175 -0.1310 -0.2010
  336loPI   C3B 5375  10.149  16.209   8.991  0.1845  0.0954 -0.2085
  336loPI   C4B 5376  10.246  16.241   8.520 -0.2099  0.2106  0.1952
  337loPI    C1 5377   1.415   5.711  10.463 -0.1861 -0.0984 -0.0077
  337loPI    C2 5378   1.702   5.929  10.636 -0.1796 -0.0640 -0.0617
  337loPI    C3 5379   1.350   5.882  10.819 -0.1670 -0.0414 -0.0315
  337loPI   PO4 5380   1.347   5.804  10.209  0.0639  0.2692 -0.0491
  337loPI   GL1 5381   1.129   5.601   9.881  0.1208 -0.0982  0.3137
  337loPI   GL2 5382   0.834   5.625   9.729  0.0601  0.2795 -0.0293
  337loPI   C1A 5383   1.158   5.933   9.431 -0.2160  0.3019  0.0920
  337loPI   C2A 5384   1.249   6.079   9.033 -0.2068 -0.0393 -0.2750
  337loPI   C3A 5385   1.124   6.079   8.602  0.3965  0.0189  0.1292
  337loPI   C4A 5386   1.084   6.234   8.147  0.0866 -0.2324 -0.0473
  337loPI   C5A 5387   1.067   6.429   7.727 -0.1806 -0.1068  0.1480
  337loPI   C6A 5388   0.812   6.165   7.411 -0.0028 -0.1672  0.3501
  337loPI   C1B 5389   0.833   5.534   9.374 -0.1933 -0.2129  0.0059
  337loPI   C2B 5390   0.822   5.781   8.924  0.3298 -0.2446  0.3935
  337loPI   C3B 5391   0.741   5.727   8.499  0.1130 -0.4542  0.0303
  337loPI   C4B 5392   0.914   5.729   8.158  0.1775 -0.2392 -0.0847
  338loPI    C1 5393   3.634   2.953  10.336 -0.1140 -0.1036 -0.0403
  338loPI    C2 5394   3.550   3.279  10.552  0.0505 -0.0990  0.0186
  338loPI    C3 5395   3.500   2.915  10.710 -0.0233 -0.1004 -0.0072
  338loPI   PO4 5396   3.527   2.994  10.009  0.1192 -0.1585  0.0175
  338loPI   GL1 5397   3.287   3.056   9.707 -0.1780  0.2175 -0.1093
  338loPI   GL2 5398   2.975   2.944   9.561 -0.1441  0.2487 -0.3269
  338loPI   C1A 5399   3.320   3.254   9.312 -0.2093  0.0832  0.0867
  338loPI   C2A 5400   2.949   3.330   9.012  0.1405 -0.0198 -0.1482
  338loPI   C3A 5401   2.879   3.257   8.580 -0.1607  0.1599  0.0583
  338loPI   C4A 5402   2.796   3.333   8.066  0.1267 -0.0379 -0.1305
  338loPI   C5A 5403   2.898   3.622   7.784  0.0984 -0.1292  0.2778
  338loPI   C6A 5404   3.020   3.976   7.882  0.1121  0.0135 -0.0357
  338loPI   C1B 5405   2.722   2.883   9.196 -0.3087 -0.0163 -0.2644
  338loPI   C2B 5406   2.433   2.984   8.902 -0.0146  0.2111 -0.0043
  338loPI   C3B 5407   2.296   2.924   8.476 -0.1142 -0.4258  0.1804
  338loPI   C4B 5408   2.003   2.600   8.360  0.3515  0.0973 -0.2218
  339loPI    C1 5409  15.196   0.998  10.142 -0.0305 -0.1859 -0.0139
  339loPI    C2 5410  15.062   1.338  10.303 -0.0497 -0.0392 -0.3323
  339loPI    C3 5411  15.033   0.995  10.507  0.0439  0.1601  0.0249
  339loPI   PO4 5412  15.011   1.029   9.884  0.1771  0.0070 -0.0050
  339loPI   GL1 5413  14.801   1.254   9.655 -0.3967 -0.1001  0.1094
  339loPI   GL2 5414  14.871   1.518   9.863 -0.0430  0.1855 -0.2296
  339loPI   C1A 5415  14.414   1.393   9.423  0.2489 -0.0918  0.0767
  339loPI   C2A 5416  14.366   1.416   9.019 -0.0891 -0.1928  0.0232
  339loPI   C3A 5417  14.373   1.366   8.592  0.1326 -0.0110  0.2518
  339loPI   C4A 5418  14.283   1.421   8.193 -0.0718  0.0520 -0.1996
  339loPI   C5A 5419  14.112   1.847   8.079  0.1785  0.1040  0.0482
  339loPI   C6A 5420  13.916   1.998   7.719  0.1371  0.2835  0.0938
  339loPI   C1B 5421  14.516   1.728   9.772  0.2022 -0.1806 -0.1058
  339loPI   C2B 5422  14.295   1.856   9.389 -0.0334 -0.1437 -0.0992
  339loPI   C3B 5423  14.235   1.931   8.963 -0.0532 -0.0735 -0.1394
  339loPI   C4B 5424  14.340   1.882   8.541  0.0642 -0.0702 -0.4716
  340loPI    C1 5425   8.807   5.578  11.070 -0.0330 -0.1176 -0.0146
  340loPI    C2 5426   9.078   5.696  11.340 -0.1068 -0.2060  0.0988
  340loPI    C3 5427   8.688   5.749  11.411 -0.1182 -0.0173 -0.0940
  340loPI   PO4 5428   8.804   5.745  10.805  0.0768  0.3079  0.0273
  340loPI   GL1 5429   8.985   6.006  10.520 -0.0671 -0.1815  0.1071
  340loPI   GL2 5430   9.276   5.893  10.357  0.1808  0.0204  0.1102
  340loPI   C1A 5431   8.734   6.058  10.106  0.2389 -0.2148 -0.1296
  340loPI   C2A 5432   8.764   6.088   9.708 -0.2196  0.0073  0.0881
  340loPI   C3A 5433   8.855   6.157   9.285  0.2572 -0.0053  0.0811
  340loPI   C4A 5434   8.921   6.072   8.871 -0.2366 -0.6078  0.2145
  340loPI   C5A 5435   8.882   6.052   8.446  0.2834 -0.0648 -0.1375
  340loPI   C6A 5436   8.662   6.077   7.993  0.0408 -0.4676  0.0761
  340loPI   C1B 5437   9.223   5.969   9.913 -0.4160 -0.2039 -0.4182
  340loPI   C2B 5438   9.303   5.923   9.515 -0.0236  0.2617  0.0816
  340loPI   C3B 5439   9.430   5.928   9.055  0.0470 -0.1020  0.0822
  340loPI   C4B 5440   9.463   5.970   8.582  0.0046  0.2058  0.4532
  341loPI    C1 5441  12.936   5.044  10.545 -0.1167 -0.2700 -0.0771
  341loPI    C2 5442  12.640   5.283  10.422  0.2402  0.1704 -0.1072
  341loPI    C3 5443  12.652   5.159  10.802  0.0417  0.1836 -0.0956
  341loPI   PO4 5444  12.973   4.993  10.228  0.1661 -0.0260 -0.0820
  341loPI   GL1 5445  13.033   4.743   9.943 -0.1939 -0.0485 -0.2691
  341loPI   GL2 5446  12.712   4.708   9.949 -0.1517  0.1821  0.0061
  341loPI   C1A 5447  13.099   4.547   9.545  0.1539 -0.0131  0.2189
  341loPI   C2A 5448  13.164   4.472   9.090 -0.2206 -0.3481 -0.2037
  341loPI   C3A 5449  13.068   4.507   8.652  0.1478 -0.1033  0.1510
  341loPI   C4A 5450  13.174   4.502   8.244 -0.1723  0.1865 -0.2166
  341loPI   C5A 5451  12.901   4.398   7.951 -0.2596  0.0589 -0.1763
  341loPI   C6A 5452  12.575   4.182   7.862  0.0611 -0.0168  0.2341
  341loPI   C1B 5453  12.599   4.661   9.531 -0.0071 -0.1387 -0.1423
  341loPI   C2B 5454  12.565   4.509   9.145 -0.3123  0.0245  0.1472
  341loPI   C3B 5455  12.555   4.662   8.811  0.3050 -0.0752  0.3862
  341loPI   C4B 5456  12.698   4.684   8.345 -0.0169  0.3915 -0.1891
  342loPI    C1 5457  12.900   8.381  10.826  0.0957 -0.1075  0.0157
  342loPI    C2 5458  12.557   8.292  11.012 -0.0190  0.3603  0.0416
  342loPI    C3 5459  12.907   8.191  11.178 -0.1376 -0.0944  0.0291
  342loPI   PO4 5460  12.772   8.375  10.483 -0.0482  0.1040  0.2898
  342loPI   GL1 5461  13.018   8.536  10.048  0.2557  0.0793 -0.1457
  342loPI   GL2 5462  13.039   8.286  10.045  0.1403 -0.0216 -0.1645
  342loPI   C1A 5463  12.955   8.486   9.589 -0.1521 -0.2315  0.2261
  342loPI   C2A 5464  12.918   8.418   9.114 -0.0205  0.0632 -0.0546
  342loPI   C3A 5465  13.051   8.290   8.829 -0.0865 -0.0005 -0.1819
  342loPI   C4A 5466  12.993   8.371   8.395 -0.1212 -0.0611 -0.2142
  342loPI   C5A 5467  12.564   8.360   8.209  0.1329 -0.2651  0.4167
  342loPI   C6A 5468  12.113   8.299   8.153  0.0653 -0.2242  0.0892
  342loPI   C1B 5469  12.981   7.976   9.726 -0.2091  0.2978 -0.1580
  342loPI   C2B 5470  13.061   7.929   9.303 -0.0237  0.0865  0.4549
  342loPI   C3B 5471  13.217   7.809   8.929  0.0410  0.2242  0.1182
  342loPI   C4B 5472  13.083   7.786   8.584 -0.1247  0.1076  0.0026
  343loPI    C1 5473   0.404   4.757  10.245  0.2398  0.2418  0.1348
  343loPI    C2 5474   0.540   4.635  10.601 -0.2800  0.0018  0.2603
  343loPI    C3 5475   0.311   4.962  10.576  0.0914  0.2559  0.0850
  343loPI   PO4 5476   0.453   4.804  10.120 -0.0007 -0.0096  0.0125
  343loPI   GL1 5477   0.686   4.803   9.705  0.0608  0.1641 -0.1952
  343loPI   GL2 5478   0.914   5.097   9.586 -0.2831  0.0793  0.2254
  343loPI   C1A 5479   0.704   4.588   9.353 -0.2733 -0.1602 -0.1455
  343loPI   C2A 5480   0.887   4.707   8.936  0.3537 -0.1090 -0.0396
  343loPI   C3A 5481   0.679   4.855   8.592 -0.0144 -0.2979  0.0766
  343loPI   C4A 5482   0.416   4.943   8.165 -0.1693 -0.0324  0.2533
  343loPI   C5A 5483   0.414   5.192   7.750  0.0197  0.1220 -0.0606
  343loPI   C6A 5484   0.480   5.392   7.286 -0.2020  0.0294 -0.1284
  343loPI   C1B 5485   1.192   5.039   9.162  0.2306  0.3672  0.1206
  343loPI   C2B 5486   1.235   5.109   8.772 -0.2185 -0.0446 -0.0839
  343loPI   C3B 5487   1.007   5.180   8.409  0.0869 -0.0349  0.2612
  343loPI   C4B 5488   0.909   5.232   8.037  0.0005 -0.1291 -0.2154
  344loPI    C1 5489  15.812  15.500  10.428  0.1073  0.1385  0.1017
  344loPI    C2 5490  16.124  15.671  10.611  0.2393 -0.0274  0.0339
  344loPI    C3 5491  15.921  15.378  10.793  0.3693 -0.1909 -0.0806
  344loPI   PO4 5492  15.625  15.680  10.341 -0.0587  0.1131 -0.0910
  344loPI   GL1 5493  15.618  15.583   9.870  0.1349  0.1692  0.0070
  344loPI   GL2 5494  15.765  15.348   9.927  0.0843 -0.1452  0.0911
  344loPI   C1A 5495  15.695  15.724   9.458  0.0537  0.3418 -0.0132
  344loPI   C2A 5496  15.658  15.769   9.066 -0.0779  0.1322 -0.1203
  344loPI   C3A 5497  15.665  15.719   8.698 -0.1250  0.0053  0.4455
  344loPI   C4A 5498  15.430  15.886   8.242 -0.1820  0.0557 -0.0504
  344loPI   C5A 5499  15.295  15.784   7.789  0.1226 -0.2259  0.2322
  344loPI   C6A 5500  15.124  15.713   7.341  0.1492 -0.0949  0.1414
  344loPI   C1B 5501  15.784  15.147   9.470  0.1273 -0.0347 -0.2962
  344loPI   C2B 5502  15.753  15.257   9.032  0.0172  0.0597  0.0212
  344loPI   C3B 5503  15.710  15.210   8.592  0.0550  0.0911 -0.1139
  344loPI   C4B 5504  15.637  15.420   8.176  0.2674  0.1923 -0.1172
  345loPI    C1 5505  14.706   1.401  10.728  0.2367 -0.1295 -0.1489
  345loPI    C2 5506  14.969   1.696  10.666  0.1311  0.0308  0.1446
  345loPI    C3 5507  15.053   1.406  10.928  0.0565  0.0304  0.1684
  345loPI   PO4 5508  14.580   1.343  10.466 -0.3182  0.1555  0.0624
  345loPI   GL1 5509  14.545   1.111  10.074  0.0159  0.2580 -0.2847
  345loPI   GL2 5510  14.483   0.839   9.874 -0.0311 -0.1151 -0.1880
  345loPI   C1A 5511  14.195   1.302   9.891 -0.1775 -0.2703 -0.1342
  345loPI   C2A 5512  13.948   1.478   9.482 -0.1360  0.4725 -0.0538
  345loPI   C3A 5513  13.897   1.545   9.114 -0.2159 -0.1728 -0.4292
  345loPI   C4A 5514  13.962   1.582   8.674 -0.0252  0.0403 -0.2633
  345loPI   C5A 5515  13.766   1.458   8.328  0.1349  0.1756 -0.2222
  345loPI   C6A 5516  13.431   1.308   8.041  0.4715  0.4012 -0.0918
  345loPI   C1B 5517  14.335   0.521   9.640  0.1252  0.1535 -0.1129
  345loPI   C2B 5518  14.345   0.468   9.137 -0.0744  0.0513 -0.0390
  345loPI   C3B 5519  14.250   0.492   8.770  0.2143 -0.0592  0.0151
  345loPI   C4B 5520  14.090   0.519   8.357  0.2152 -0.0464 -0.0797
  346loPI    C1 5521  14.854  14.846  10.371 -0.0799 -0.3300 -0.0424
  346loPI    C2 5522  14.974  15.112  10.645 -0.0147 -0.1479 -0.2443
  346loPI    C3 5523  14.877  14.740  10.756  0.2143 -0.1390 -0.0034
  346loPI   PO4 5524  15.017  14.896  10.149 -0.1000 -0.0231 -0.1830
  346loPI   GL1 5525  14.892  14.623   9.715  0.0075  0.1685 -0.0455
  346loPI   GL2 5526  14.875  14.872   9.693  0.0989 -0.2259 -0.1911
  346loPI   C1A 5527  14.859  14.415   9.372 -0.0728  0.1530 -0.2554
  346loPI   C2A 5528  15.022  14.487   9.065  0.2841  0.0496 -0.3700
  346loPI   C3A 5529  14.961  14.551   8.585 -0.0161  0.0751  0.1428
  346loPI   C4A 5530  14.938  14.598   8.130  0.3504 -0.1553 -0.2654
  346loPI   C5A 5531  14.774  14.485   7.789  0.1410  0.1344  0.3857
  346loPI   C6A 5532  14.542  14.374   7.483  0.5358  0.0461 -0.2488
  346loPI   C1B 5533  14.824  14.982   9.260  0.0556 -0.0420 -0.0187
  346loPI   C2B 5534  14.828  15.001   8.844 -0.1458  0.2284  0.2722
  346loPI   C3B 5535  14.812  15.043   8.399 -0.0169 -0.0669 -0.2397
  346loPI   C4B 5536  14.629  15.094   8.070  0.0473  0.2729 -0.2130
  347loPI    C1 5537  17.919   6.762  10.692 -0.0521 -0.0707  0.1821
  347loPI    C2 5538  18.116   6.420  10.754 -0.1468 -0.1278  0.1700
  347loPI    C3 5539  17.802   6.514  10.982 -0.0994 -0.0319  0.1964
  347loPI   PO4 5540  17.891   6.802  10.378  0.1699 -0.3417  0.3782
  347loPI   GL1 5541  17.496   6.892  10.119  0.0433 -0.1225 -0.0877
  347loPI   GL2 5542  17.514   6.601  10.117  0.0747 -0.2807  0.4181
  347loPI   C1A 5543  17.531   7.159   9.696  0.0334 -0.0360 -0.0793
  347loPI   C2A 5544  17.503   7.074   9.159  0.0613  0.5903 -0.0369
  347loPI   C3A 5545  17.474   7.115   8.661  0.1751 -0.0457 -0.0848
  347loPI   C4A 5546  17.467   7.185   8.244  0.0012 -0.2485 -0.0501
  347loPI   C5A 5547  17.190   7.215   7.954 -0.0869 -0.1302  0.1500
  347loPI   C6A 5548  17.060   7.202   7.523 -0.0432  0.1022 -0.1205
  347loPI   C1B 5549  17.600   6.606   9.671  0.0718 -0.0634 -0.1989
  347loPI   C2B 5550  17.601   6.618   9.281 -0.2459 -0.2101 -0.0653
  347loPI   C3B 5551  17.655   6.590   8.823  0.0316 -0.3011  0.0261
  347loPI   C4B 5552  17.634   6.574   8.418 -0.0195  0.0312  0.0680
  348loPI    C1 5553   1.170   1.398   9.936 -0.0640  0.1207 -0.1465
  348loPI    C2 5554   0.966   1.120  10.140  0.0220  0.2129  0.0685
  348loPI    C3 5555   1.289   1.292  10.303 -0.1151  0.5458 -0.0014
  348loPI   PO4 5556   0.948   1.596   9.897 -0.3104  0.1811  0.1153
  348loPI   GL1 5557   0.888   1.713   9.556  0.0041  0.1945 -0.0149
  348loPI   GL2 5558   0.926   2.005   9.451 -0.2459  0.0007 -0.1163
  348loPI   C1A 5559   0.778   1.456   9.226  0.2691 -0.0010 -0.1900
  348loPI   C2A 5560   0.748   1.398   8.766  0.0525  0.0212  0.0330
  348loPI   C3A 5561   0.543   1.396   8.528 -0.0302  0.1154 -0.0356
  348loPI   C4A 5562   0.425   1.646   8.292 -0.2161  0.1861 -0.1334
  348loPI   C5A 5563   0.195   1.825   7.897  0.2925  0.0645  0.0994
  348loPI   C6A 5564   0.159   2.263   7.595 -0.3097  0.2274 -0.1935
  348loPI   C1B 5565   0.670   1.898   9.135  0.0334  0.0473 -0.1599
  348loPI   C2B 5566   0.556   1.959   8.703  0.1503 -0.0824 -0.0569
  348loPI   C3B 5567   0.768   1.993   8.289  0.1449  0.1788 -0.0678
  348loPI   C4B 5568   1.182   1.907   8.001 -0.0645 -0.3496  0.0938
  349loPI    C1 5569  15.886  16.423  10.332  0.0192 -0.0495 -0.0683
  349loPI    C2 5570  15.859  16.060  10.497 -0.1216  0.0257  0.0774
  349loPI    C3 5571  15.946  16.377  10.725 -0.0611  0.0931 -0.0385
  349loPI   PO4 5572  16.038  16.342  10.091 -0.0816 -0.0072  0.0296
  349loPI   GL1 5573  15.854  16.178   9.632 -0.1068  0.1353 -0.0456
  349loPI   GL2 5574  15.502  16.195   9.561 -0.1005 -0.2570 -0.3137
  349loPI   C1A 5575  15.939  16.190   9.294  0.1304  0.1160 -0.1681
  349loPI   C2A 5576  15.998  16.143   8.862 -0.0504 -0.3293 -0.0945
  349loPI   C3A 5577  15.907  16.057   8.378  0.0158 -0.2255 -0.0754
  349loPI   C4A 5578  15.780  16.298   8.025 -0.2528  0.0425  0.0834
  349loPI   C5A 5579  15.569  16.451   7.690 -0.0703 -0.0708  0.1485
  349loPI   C6A 5580  15.429  16.436   7.348  0.1302 -0.0322 -0.2079
  349loPI   C1B 5581  15.498  16.286   9.124  0.2674 -0.1889 -0.2654
  349loPI   C2B 5582  15.511  16.215   8.798 -0.2678  0.1187 -0.2044
  349loPI   C3B 5583  15.362  16.311   8.464 -0.1733  0.0312 -0.1805
  349loPI   C4B 5584  15.232  16.275   8.004  0.0767  0.2723 -0.2446
  350loPI    C1 5585   1.073  16.812  10.297  0.1944  0.0562 -0.1510
  350loPI    C2 5586   1.346  16.711  10.572  0.0225 -0.0607 -0.0218
  350loPI    C3 5587   1.034  16.941  10.673 -0.1409 -0.2564 -0.0731
  350loPI   PO4 5588   1.165  16.674  10.086 -0.1667 -0.6545 -0.0540
  350loPI   GL1 5589   1.149  16.582   9.678 -0.0424  0.0235  0.1306
  350loPI   GL2 5590   1.237  16.234   9.429  0.0595 -0.1518  0.0117
  350loPI   C1A 5591   1.122  16.615   9.171 -0.2518 -0.0201 -0.2190
  350loPI   C2A 5592   0.913  16.653   8.833  0.1294 -0.1425 -0.0528
  350loPI   C3A 5593   0.956  16.741   8.395  0.1861  0.2431  0.4752
  350loPI   C4A 5594   0.786  16.812   8.046  0.0451 -0.0608 -0.0596
  350loPI   C5A 5595   0.463  16.531   7.926  0.0599  0.1625 -0.3848
  350loPI   C6A 5596   0.241  16.166   7.866  0.0962  0.1651  0.0898
  350loPI   C1B 5597   1.159  15.915   9.088 -0.3406 -0.2703 -0.1098
  350loPI   C2B 5598   1.196  15.948   8.626  0.0909 -0.0113  0.2101
  350loPI   C3B 5599   1.371  15.885   8.141 -0.2978 -0.4806 -0.0397
  350loPI   C4B 5600   1.583  16.134   7.729  0.1381  0.1684  0.3824
  351loPI    C1 5601   5.337   8.814  10.687 -0.1561  0.0606 -0.0444
  351loPI    C2 5602   5.284   9.094  10.968  0.2763  0.1681 -0.0616
  351loPI    C3 5603   5.544   8.796  11.030  0.1596  0.0289 -0.2322
  351loPI   PO4 5604   5.185   8.731  10.575  0.1066  0.4066 -0.5459
  351loPI   GL1 5605   4.955   8.409  10.296 -0.0945  0.0776 -0.0769
  351loPI   GL2 5606   4.734   8.609  10.013  0.1921 -0.1001 -0.0037
  351loPI   C1A 5607   4.899   8.167   9.920  0.0726  0.0804  0.0168
  351loPI   C2A 5608   4.947   8.063   9.451  0.1561 -0.2087 -0.1492
  351loPI   C3A 5609   5.026   8.069   9.004  0.0447 -0.1868 -0.1753
  351loPI   C4A 5610   5.007   7.955   8.620 -0.1095 -0.2351  0.2255
  351loPI   C5A 5611   5.371   8.226   8.299  0.1635 -0.2028 -0.2063
  351loPI   C6A 5612   5.704   8.268   7.992 -0.2653 -0.0415 -0.0334
  351loPI   C1B 5613   4.914   8.597   9.606  0.1582  0.1831  0.0576
  351loPI   C2B 5614   4.838   8.496   9.182  0.0329 -0.2037 -0.0147
  351loPI   C3B 5615   4.843   8.620   8.784  0.1314  0.0165 -0.0045
  351loPI   C4B 5616   4.898   8.467   8.487 -0.2589  0.1097  0.1060
  352loPI    C1 5617   2.111   5.735  10.414 -0.0379 -0.1006  0.1823
  352loPI    C2 5618   2.433   5.910  10.575  0.1510 -0.1416 -0.1418
  352loPI    C3 5619   2.285   5.575  10.737 -0.0017  0.1195  0.2731
  352loPI   PO4 5620   2.224   5.910  10.086  0.3301 -0.0000 -0.1529
  352loPI   GL1 5621   2.181   6.354  10.035  0.0670  0.1589 -0.0511
  352loPI   GL2 5622   2.013   6.247   9.785 -0.1141  0.0565 -0.1572
  352loPI   C1A 5623   2.493   6.245   9.676 -0.1767  0.3215  0.1925
  352loPI   C2A 5624   2.648   6.141   9.385  0.0881 -0.0523 -0.1910
  352loPI   C3A 5625   2.676   6.231   8.943 -0.0920 -0.0005  0.1825
  352loPI   C4A 5626   2.467   6.261   8.539  0.3104  0.0626 -0.1433
  352loPI   C5A 5627   2.466   6.242   8.099  0.2514  0.2305 -0.1061
  352loPI   C6A 5628   2.510   6.042   7.702  0.4280 -0.1434 -0.0872
  352loPI   C1B 5629   2.050   6.251   9.342  0.0931 -0.1209 -0.0498
  352loPI   C2B 5630   2.037   6.365   8.850  0.1658  0.2443 -0.0236
  352loPI   C3B 5631   1.984   6.354   8.426 -0.1792 -0.4227 -0.1248
  352loPI   C4B 5632   1.974   6.469   7.925  0.0879  0.1046 -0.2867
  353loPI    C1 5633  10.688  16.591  11.142 -0.1006 -0.1860  0.0148
  353loPI    C2 5634  10.352  16.789  11.229  0.1264  0.1490  0.1482
  353loPI    C3 5635  10.708  16.955  11.305  0.3246 -0.2782  0.1831
  353loPI   PO4 5636  10.595  16.452  10.883 -0.0011  0.0693  0.1516
  353loPI   GL1 5637  10.452  16.383  10.369  0.0753  0.0467 -0.1526
  353loPI   GL2 5638  10.744  16.486  10.400  0.1116 -0.0549  0.1928
  353loPI   C1A 5639  10.702  16.227   9.998  0.0962  0.0104 -0.2966
  353loPI   C2A 5640  10.643  16.090   9.573 -0.3855 -0.0053 -0.3687
  353loPI   C3A 5641  10.648  16.146   9.165  0.1120  0.0908 -0.0420
  353loPI   C4A 5642  10.697  16.202   8.739  0.0392  0.0511  0.0936
  353loPI   C5A 5643  10.768  16.097   8.271  0.1996  0.1327  0.1209
  353loPI   C6A 5644  11.003  16.062   7.910 -0.2655 -0.0327  0.2201
  353loPI   C1B 5645  11.041  16.584  10.064  0.0484  0.1533 -0.2275
  353loPI   C2B 5646  11.058  16.446   9.714  0.1741 -0.1313 -0.0426
  353loPI   C3B 5647  11.046  16.439   9.260 -0.0368 -0.1105  0.1577
  353loPI   C4B 5648  11.084  16.556   8.858 -0.1102 -0.3548 -0.1105
  354loPI    C1 5649   0.404   6.587  10.467 -0.1525 -0.0222  0.0224
  354loPI    C2 5650   0.533   6.224  10.357 -0.0821 -0.0371  0.1511
  354loPI    C3 5651   0.595   6.354  10.730 -0.2703  0.0341  0.1591
  354loPI   PO4 5652   0.464   6.712  10.255 -0.3624  0.2834 -0.3793
  354loPI   GL1 5653   0.300   6.830   9.997  0.3725  0.0374  0.0124
  354loPI   GL2 5654   0.481   6.529   9.809  0.1284 -0.1274 -0.3497
  354loPI   C1A 5655   0.329   7.070   9.685  0.0592 -0.2523 -0.4249
  354loPI   C2A 5656   0.341   7.094   9.285 -0.1862 -0.1197  0.0638
  354loPI   C3A 5657   0.428   7.262   8.875 -0.1989  0.1023  0.0002
  354loPI   C4A 5658   0.326   7.378   8.449 -0.1637 -0.0987  0.1092
  354loPI   C5A 5659   0.434   7.535   8.132 -0.0102 -0.1352 -0.0624
  354loPI   C6A 5660   0.150   7.814   7.752 -0.0726 -0.1275 -0.0818
  354loPI   C1B 5661   0.469   6.627   9.468  0.0911 -0.4131  0.1498
  354loPI   C2B 5662   0.534   6.724   8.999 -0.2238  0.6668 -0.0767
  354loPI   C3B 5663   0.511   6.725   8.547 -0.0410 -0.2272 -0.0178
  354loPI   C4B 5664   0.416   6.962   8.159 -0.0849  0.0069 -0.1743
  355loPI    C1 5665   1.242   9.638  10.955 -0.1261  0.2103 -0.0833
  355loPI    C2 5666   0.930   9.489  10.754 -0.0162 -0.3036  0.1119
  355loPI    C3 5667   0.897   9.568  11.145  0.0746 -0.2868  0.1163
  355loPI   PO4 5668   1.411   9.395  10.698 -0.0407 -0.1920 -0.4218
  355loPI   GL1 5669   1.707   9.406  10.409 -0.1377  0.2027  0.3575
  355loPI   GL2 5670   1.974   9.109  10.281 -0.2032  0.2814  0.2533
  355loPI   C1A 5671   1.679   9.367   9.983  0.3587 -0.0401  0.1160
  355loPI   C2A 5672   1.715   9.237   9.576 -0.3494  0.1511 -0.2917
  355loPI   C3A 5673   1.723   9.125   9.260  0.2498 -0.0531  0.0426
  355loPI   C4A 5674   1.666   9.259   8.853 -0.2199  0.2944 -0.1862
  355loPI   C5A 5675   1.610   9.347   8.387  0.0898  0.2222 -0.0034
  355loPI   C6A 5676   1.972   9.548   8.309  0.0709  0.0519  0.0908
  355loPI   C1B 5677   2.236   9.036   9.822  0.0692  0.0561  0.1005
  355loPI   C2B 5678   2.325   9.174   9.404 -0.1292  0.1694 -0.0748
  355loPI   C3B 5679   2.209   9.112   8.993 -0.2203 -0.1219  0.0291
  355loPI   C4B 5680   2.089   9.147   8.589 -0.0821  0.0678  0.0999
  356loPI    C1 5681  18.024  11.099  10.821 -0.0465 -0.1610 -0.0284
  356loPI    C2 5682  18.107  10.981  11.194 -0.0589 -0.0925 -0.0037
  356loPI    C3 5683  17.876  11.301  11.133 -0.0026 -0.0641 -0.0698
  356loPI   PO4 5684  17.996  10.922  10.653  0.2501  0.4208 -0.0994
  356loPI   GL1 5685  18.159  11.020  10.297  0.0162 -0.1652  0.1027
  356loPI   GL2 5686  18.062  10.780  10.101 -0.1180 -0.3712  0.0375
  356loPI   C1A 5687  18.297  11.135   9.870  0.0460 -0.0743 -0.0123
  356loPI   C2A 5688  18.257  11.253   9.536 -0.0047 -0.0626  0.3905
  356loPI   C3A 5689  18.160  11.180   9.108  0.1521 -0.1742 -0.0471
  356loPI   C4A 5690  18.221  11.211   8.663 -0.1619  0.1826 -0.0787
  356loPI   C5A 5691  18.419  11.216   8.277 -0.1269 -0.0667  0.1516
  356loPI   C6A 5692  18.480  11.107   7.843 -0.0350 -0.0164 -0.2190
  356loPI   C1B 5693  17.890  10.857   9.667 -0.2469 -0.0301  0.0200
  356loPI   C2B 5694  17.908  10.800   9.237  0.0902  0.2590 -0.0513
  356loPI   C3B 5695  17.856  10.781   8.758 -0.3030  0.2084 -0.1016
  356loPI   C4B 5696  17.831  10.721   8.353 -0.0090  0.0282  0.0640
  357loPI    C1 5697  14.695   8.679  10.638 -0.1504 -0.1112  0.0419
  357loPI    C2 5698  15.033   8.823  10.795 -0.2013  0.2760 -0.1900
  357loPI    C3 5699  14.720   8.746  11.031 -0.0305  0.1346 -0.0060
  357loPI   PO4 5700  14.711   8.849  10.380 -0.0714  0.2249 -0.0943
  357loPI   GL1 5701  14.493   8.931  10.094 -0.0996 -0.3667  0.1558
  357loPI   GL2 5702  14.323   8.968   9.825  0.0640  0.1637 -0.2799
  357loPI   C1A 5703  14.767   8.754   9.711 -0.0922 -0.2695  0.1430
  357loPI   C2A 5704  14.702   8.800   9.224 -0.3228 -0.2071  0.1088
  357loPI   C3A 5705  14.786   8.758   8.771  0.3783  0.0671 -0.0372
  357loPI   C4A 5706  14.774   8.852   8.337  0.2444 -0.0274 -0.0948
  357loPI   C5A 5707  14.930   8.729   7.834  0.0214 -0.1334 -0.1536
  357loPI   C6A 5708  14.807   8.357   7.752  0.0478 -0.1264 -0.1973
  357loPI   C1B 5709  14.221   8.959   9.473  0.0742 -0.1916 -0.2434
  357loPI   C2B 5710  14.218   8.940   9.038 -0.1513  0.0993  0.0849
  357loPI   C3B 5711  14.334   8.967   8.653  0.3293 -0.2791  0.0301
  357loPI   C4B 5712  14.253   8.941   8.201 -0.3324 -0.0328 -0.0329
  358loPI    C1 5713  11.597   0.803  10.740 -0.1020  0.1654 -0.2177
  358loPI    C2 5714  11.897   0.676  10.973 -0.1208  0.0325 -0.2648
  358loPI    C3 5715  11.694   1.006  11.071 -0.1212 -0.0161 -0.0986
  358loPI   PO4 5716  11.726   0.752  10.493 -0.0329  0.1154 -0.0269
  358loPI   GL1 5717  11.944   0.820  10.220 -0.0100 -0.0806  0.1800
  358loPI   GL2 5718  12.176   1.051   9.973 -0.0288  0.1011  0.2361
  358loPI   C1A 5719  11.857   0.676   9.786  0.0225 -0.0342 -0.1850
  358loPI   C2A 5720  11.830   0.693   9.396 -0.0925 -0.0195 -0.3539
  358loPI   C3A 5721  11.791   0.567   9.032 -0.0196 -0.3114  0.3164
  358loPI   C4A 5722  11.831   0.564   8.635 -0.2081 -0.0015 -0.2820
  358loPI   C5A 5723  11.731   0.552   8.227  0.4343 -0.0757 -0.0485
  358loPI   C6A 5724  11.475   0.378   7.868  0.2742 -0.1083 -0.0572
  358loPI   C1B 5725  12.230   0.979   9.559  0.2183 -0.5261  0.2682
  358loPI   C2B 5726  12.200   1.054   9.164 -0.0521  0.2630  0.0968
  358loPI   C3B 5727  12.140   1.009   8.735  0.1426 -0.3572 -0.0496
  358loPI   C4B 5728  12.068   0.965   8.326  0.1487 -0.1644  0.1314
  359loPI    C1 5729  18.233   5.770  10.988 -0.1716  0.0233 -0.0413
  359loPI    C2 5730  18.015   6.063  11.150  0.2133  0.2978 -0.0074
  359loPI    C3 5731  18.260   5.845  11.380 -0.1113 -0.0941 -0.0225
  359loPI   PO4 5732  18.130   5.954  10.661  0.3044  0.0174 -0.0790
  359loPI   GL1 5733  17.815   5.901  10.317 -0.0119  0.2150  0.0794
  359loPI   GL2 5734  18.009   5.810  10.104 -0.1789  0.0467 -0.1657
  359loPI   C1A 5735  17.731   6.117   9.906 -0.4612 -0.2840 -0.0959
  359loPI   C2A 5736  17.743   6.067   9.446 -0.0232  0.0498  0.1950
  359loPI   C3A 5737  17.698   6.134   8.988 -0.1836 -0.3833  0.2096
  359loPI   C4A 5738  17.841   6.064   8.547 -0.0283 -0.1627 -0.2467
  359loPI   C5A 5739  17.888   6.115   8.091  0.1878  0.3349  0.1230
  359loPI   C6A 5740  18.203   5.911   7.807  0.0371 -0.1180 -0.2514
  359loPI   C1B 5741  17.830   5.621   9.719  0.1636  0.3014 -0.1737
  359loPI   C2B 5742  17.809   5.618   9.212 -0.0949 -0.4630  0.0274
  359loPI   C3B 5743  17.914   5.629   8.768  0.0560 -0.1720  0.0323
  359loPI   C4B 5744  17.986   5.600   8.342  0.2250  0.0560 -0.1297
  360loPI    C1 5745  14.929  11.991  10.568  0.4349  0.1764  0.0188
  360loPI    C2 5746  14.736  12.296  10.741 -0.0504 -0.0756 -0.0592
  360loPI    C3 5747  14.796  11.956  10.943 -0.2069 -0.2050 -0.2263
  360loPI   PO4 5748  14.996  12.214  10.283 -0.0568  0.2848 -0.3536
  360loPI   GL1 5749  15.165  12.183   9.991  0.0816  0.0382  0.0530
  360loPI   GL2 5750  15.170  11.882   9.829 -0.1519 -0.2729 -0.1287
  360loPI   C1A 5751  15.458  12.293   9.754 -0.2675 -0.0946 -0.4000
  360loPI   C2A 5752  15.601  12.387   9.297  0.0165 -0.0932  0.1437
  360loPI   C3A 5753  15.636  12.333   8.842  0.1039 -0.0039  0.1648
  360loPI   C4A 5754  15.647  12.406   8.309  0.3705  0.1722 -0.0372
  360loPI   C5A 5755  15.441  12.420   7.985  0.0572  0.0783 -0.2956
  360loPI   C6A 5756  15.369  12.582   7.600 -0.0968  0.0905 -0.0954
  360loPI   C1B 5757  15.157  12.030   9.409 -0.0616  0.0262 -0.1948
  360loPI   C2B 5758  15.148  12.080   8.947  0.0695  0.0327 -0.0983
  360loPI   C3B 5759  15.295  12.057   8.463 -0.0866  0.0377  0.4168
  360loPI   C4B 5760  15.341  11.890   8.075  0.0132 -0.1890  0.0622
  361loPI    C1 5761  13.993  17.979  10.604  0.0530 -0.0964 -0.1144
  361loPI    C2 5762  13.602  18.048  10.655  0.0879 -0.0494  0.0990
  361loPI    C3 5763  13.872  18.291  10.823  0.2097 -0.1988  0.1222
  361loPI   PO4 5764  14.003  18.001  10.348  0.0368 -0.1274  0.0587
  361loPI   GL1 5765  13.949  18.032  10.020  0.0030  0.1882 -0.1495
  361loPI   GL2 5766  14.169  17.941   9.824  0.0955 -0.0271 -0.1825
  361loPI   C1A 5767  13.712  17.776   9.703  0.0898  0.0731 -0.0023
  361loPI   C2A 5768  13.718  17.575   9.323  0.0193 -0.0844 -0.1745
  361loPI   C3A 5769  13.538  17.588   8.848 -0.0500  0.1640 -0.1601
  361loPI   C4A 5770  13.562  17.799   8.442  0.2957 -0.0425 -0.2151
  361loPI   C5A 5771  13.429  17.599   8.105  0.0889 -0.2430 -0.4475
  361loPI   C6A 5772  13.196  17.726   7.691 -0.2157  0.1148  0.3299
  361loPI   C1B 5773  14.120  18.015   9.357  0.1044 -0.0240  0.2084
  361loPI   C2B 5774  14.035  18.106   8.864 -0.2781 -0.0652 -0.2610
  361loPI   C3B 5775  13.901  18.151   8.469  0.0309  0.1971 -0.1173
  361loPI   C4B 5776  13.986  18.242   8.077 -0.1589 -0.0288  0.0144
  362loPI    C1 5777  14.079   2.049  10.349 -0.1251 -0.0778  0.2216
  362loPI    C2 5778  14.195   1.669  10.299 -0.1729 -0.0360 -0.2438
  362loPI    C3 5779  14.084   1.798  10.661  0.0112 -0.4160 -0.0462
  362loPI   PO4 5780  14.238   2.164  10.197  0.0545 -0.4695 -0.4005
  362loPI   GL1 5781  14.269   2.231   9.803 -0.1990 -0.0905 -0.2846
  362loPI   GL2 5782  14.180   2.571   9.881 -0.2403  0.1986  0.0190
  362loPI   C1A 5783  14.218   2.433   9.333  0.3915 -0.1774  0.1878
  362loPI   C2A 5784  14.182   2.453   8.899  0.2167  0.1027  0.0796
  362loPI   C3A 5785  14.068   2.337   8.519  0.2578  0.1710 -0.0670
  362loPI   C4A 5786  14.082   2.325   8.045 -0.2303 -0.2900  0.0456
  362loPI   C5A 5787  14.259   2.377   7.681  0.1433 -0.0409 -0.3373
  362loPI   C6A 5788  14.449   2.063   7.422  0.0934 -0.0575  0.2886
  362loPI   C1B 5789  14.140   2.865   9.548 -0.2618 -0.0282  0.0627
  362loPI   C2B 5790  14.062   2.936   9.167 -0.3228 -0.2519  0.5732
  362loPI   C3B 5791  14.020   3.003   8.669  0.0942  0.0525 -0.0768
  362loPI   C4B 5792  13.967   2.789   8.316  0.0590 -0.0592  0.0918
  363loPI    C1 5793  15.937   1.383   9.897  0.2018  0.0092  0.0048
  363loPI    C2 5794  16.067   1.611  10.199  0.0184 -0.1198  0.1833
  363loPI    C3 5795  15.855   1.280  10.275 -0.1100 -0.1025 -0.0904
  363loPI   PO4 5796  15.816   1.481   9.755  0.0375  0.3418  0.0565
  363loPI   GL1 5797  15.832   1.375   9.329  0.1884  0.0294 -0.0562
  363loPI   GL2 5798  15.698   1.133   9.350  0.2256 -0.1987  0.1480
  363loPI   C1A 5799  15.785   1.516   8.871 -0.2068  0.0281 -0.1943
  363loPI   C2A 5800  15.820   1.417   8.500  0.2993  0.0380  0.0461
  363loPI   C3A 5801  15.734   1.492   8.031  0.0899 -0.1764  0.0290
  363loPI   C4A 5802  15.743   1.240   7.677  0.0653  0.2949  0.1178
  363loPI   C5A 5803  15.678   0.874   7.262  0.1599 -0.3068  0.1571
  363loPI   C6A 5804  15.515   0.653   6.955  0.1864 -0.0274  0.0613
  363loPI   C1B 5805  15.563   1.079   8.930  0.3383 -0.0970  0.1129
  363loPI   C2B 5806  15.519   1.014   8.526  0.0217  0.0758 -0.0372
  363loPI   C3B 5807  15.690   0.917   8.071 -0.2241 -0.0988  0.2228
  363loPI   C4B 5808  15.659   0.722   7.722  0.2145 -0.0613  0.0167
  364loPI    C1 5809   9.348  13.611  10.754 -0.0972  0.1323 -0.1154
  364loPI    C2 5810   9.113  13.695  11.066 -0.1899  0.0639 -0.1660
  364loPI    C3 5811   9.423  13.932  10.979 -0.0073 -0.0593  0.1328
  364loPI   PO4 5812   9.188  13.548  10.562  0.0962 -0.0013  0.0007
  364loPI   GL1 5813   9.042  13.438  10.093 -0.0782  0.0791  0.0102
  364loPI   GL2 5814   9.033  13.825  10.149  0.3585 -0.2291  0.0912
  364loPI   C1A 5815   9.169  13.252   9.687 -0.0003  0.0276  0.1724
  364loPI   C2A 5816   9.183  13.242   9.231 -0.2359 -0.0419  0.0088
  364loPI   C3A 5817   9.174  13.178   8.817 -0.0639  0.2007  0.1420
  364loPI   C4A 5818   8.991  12.975   8.361 -0.3476  0.2060 -0.4221
  364loPI   C5A 5819   8.679  13.156   8.119  0.1464 -0.0760 -0.0783
  364loPI   C6A 5820   8.209  13.304   7.955 -0.1172 -0.0012 -0.1187
  364loPI   C1B 5821   9.024  13.707   9.691 -0.0981  0.0341 -0.1602
  364loPI   C2B 5822   8.994  13.701   9.263  0.2119  0.0645 -0.0741
  364loPI   C3B 5823   8.948  13.624   8.919 -0.0225 -0.0027  0.1767
  364loPI   C4B 5824   8.920  13.446   8.495 -0.1896 -0.0280  0.1635
  365loPI    C1 5825  13.221   3.459  10.664 -0.0482 -0.0421 -0.0430
  365loPI    C2 5826  13.502   3.337  10.921  0.0767  0.0574 -0.1314
  365loPI    C3 5827  13.483   3.722  10.811  0.0388  0.0115 -0.2884
  365loPI   PO4 5828  13.097   3.275  10.578 -0.0293 -0.1236 -0.0129
  365loPI   GL1 5829  12.886   3.261  10.210  0.1356  0.2880  0.0641
  365loPI   GL2 5830  13.140   3.156  10.036  0.0614  0.0252 -0.0700
  365loPI   C1A 5831  12.705   3.277   9.796  0.1011  0.1180 -0.2063
  365loPI   C2A 5832  12.640   3.262   9.422  0.0146 -0.0791  0.1344
  365loPI   C3A 5833  12.539   3.268   9.032  0.0744 -0.1303 -0.0778
  365loPI   C4A 5834  12.459   3.247   8.577 -0.2471 -0.3798  0.0416
  365loPI   C5A 5835  12.453   3.175   8.126  0.1552  0.4208  0.2452
  365loPI   C6A 5836  12.255   3.209   7.756  0.0839 -0.0356  0.2702
  365loPI   C1B 5837  13.127   3.123   9.606  0.2098 -0.0025 -0.2517
  365loPI   C2B 5838  13.011   3.167   9.059 -0.0171 -0.2785  0.1767
  365loPI   C3B 5839  13.057   3.082   8.691  0.2340  0.4357 -0.2191
  365loPI   C4B 5840  12.892   3.058   8.227  0.1124 -0.4449 -0.3701
  366loPI    C1 5841   5.072   6.452  10.650 -0.1162 -0.2098  0.1622
  366loPI    C2 5842   5.360   6.618  10.872  0.1512 -0.1560 -0.2172
  366loPI    C3 5843   5.198   6.270  10.984  0.1052 -0.0085  0.1904
  366loPI   PO4 5844   5.112   6.519  10.408 -0.3178  0.3425  0.0244
  366loPI   GL1 5845   5.336   6.373  10.143  0.0344 -0.2267 -0.2249
  366loPI   GL2 5846   5.068   6.125  10.010  0.1204 -0.2485  0.1029
  366loPI   C1A 5847   5.370   6.463   9.729  0.1763  0.0003  0.0388
  366loPI   C2A 5848   5.361   6.589   9.344  0.2385 -0.2063  0.1144
  366loPI   C3A 5849   5.438   6.560   9.014 -0.2111 -0.3400 -0.0806
  366loPI   C4A 5850   5.508   6.385   8.541  0.0116  0.1125  0.3999
  366loPI   C5A 5851   5.358   6.554   8.158  0.1268  0.0553 -0.0752
  366loPI   C6A 5852   5.090   6.793   7.955  0.0151  0.1260 -0.0510
  366loPI   C1B 5853   4.990   6.082   9.487 -0.3723  0.1043 -0.1365
  366loPI   C2B 5854   5.052   6.216   9.152 -0.0406  0.1318 -0.0010
  366loPI   C3B 5855   5.056   6.002   8.748 -0.1926  0.0682  0.4338
  366loPI   C4B 5856   5.121   6.089   8.270 -0.0888 -0.2268  0.2448
  367loPI    C1 5857  11.992  13.216  10.753  0.1759 -0.0033 -0.1440
  367loPI    C2 5858  12.218  13.000  11.002 -0.0596  0.1099  0.1754
  367loPI    C3 5859  12.343  13.360  10.880  0.0184  0.0901  0.1961
  367loPI   PO4 5860  11.995  13.065  10.550 -0.1301 -0.4284  0.2108
  367loPI   GL1 5861  12.207  13.156  10.231  0.1157  0.1914 -0.1093
  367loPI   GL2 5862  12.436  13.202  10.118 -0.0125 -0.1097 -0.0690
  367loPI   C1A 5863  12.039  13.076   9.818  0.1780 -0.4183 -0.0992
  367loPI   C2A 5864  12.127  12.948   9.404 -0.1350 -0.0884  0.1517
  367loPI   C3A 5865  12.111  12.903   9.041 -0.3869 -0.4072  0.0411
  367loPI   C4A 5866  12.159  12.769   8.573 -0.0098 -0.3809  0.1406
  367loPI   C5A 5867  12.254  12.686   8.226 -0.1111 -0.2810  0.1412
  367loPI   C6A 5868  12.489  13.040   7.995  0.2458  0.3448 -0.1508
  367loPI   C1B 5869  12.514  13.302   9.833  0.3137  0.1509 -0.2202
  367loPI   C2B 5870  12.553  13.152   9.305  0.0638 -0.4535  0.0077
  367loPI   C3B 5871  12.504  13.229   8.877  0.1137 -0.0484 -0.0900
  367loPI   C4B 5872  12.404  13.123   8.468 -0.0133 -0.0601  0.1172
  368loPI    C1 5873   6.071   3.328  10.665 -0.0580  0.1863  0.1563
  368loPI    C2 5874   6.181   2.991  10.851 -0.0767  0.1917  0.1771
  368loPI    C3 5875   6.194   3.340  11.046  0.0213  0.2148  0.1300
  368loPI   PO4 5876   6.228   3.243  10.446  0.1491 -0.0719  0.0971
  368loPI   GL1 5877   6.225   3.115   9.991  0.1315  0.0545  0.0361
  368loPI   GL2 5878   6.250   3.353   9.842 -0.1239 -0.2533 -0.3394
  368loPI   C1A 5879   6.264   2.886   9.582  0.1253 -0.0459  0.1495
  368loPI   C2A 5880   6.333   2.739   9.092  0.1366  0.0358  0.2907
  368loPI   C3A 5881   6.458   2.829   8.758 -0.0365  0.1354 -0.5131
  368loPI   C4A 5882   6.480   2.983   8.401  0.1295 -0.2525  0.1729
  368loPI   C5A 5883   6.520   2.948   7.956 -0.1178  0.1572  0.2795
  368loPI   C6A 5884   6.496   2.927   7.573  0.0009 -0.1269 -0.1097
  368loPI   C1B 5885   6.326   3.513   9.357 -0.0133  0.1857 -0.2001
  368loPI   C2B 5886   6.292   3.597   8.871 -0.0264  0.2907  0.2507
  368loPI   C3B 5887   6.301   3.503   8.501 -0.1527 -0.0592 -0.0572
  368loPI   C4B 5888   6.530   3.444   8.164 -0.0234 -0.2342  0.1334
  369loPI    C1 5889   1.076   2.139   9.982  0.0859  0.1668 -0.0002
  369loPI    C2 5890   1.066   2.333  10.332 -0.0053  0.2129 -0.0279
  369loPI    C3 5891   1.416   2.267  10.149  0.0572  0.0558  0.1449
  369loPI   PO4 5892   0.827   2.323   9.850 -0.0780 -0.0434  0.0036
  369loPI   GL1 5893   0.903   2.568   9.449 -0.0729 -0.2143  0.0266
  369loPI   GL2 5894   0.588   2.442   9.316  0.1419  0.2247 -0.0605
  369loPI   C1A 5895   0.993   2.271   9.059 -0.0507 -0.1245  0.4366
  369loPI   C2A 5896   1.102   2.181   8.618 -0.1611  0.1768  0.1980
  369loPI   C3A 5897   1.505   2.268   8.381 -0.0283 -0.0921  0.4220
  369loPI   C4A 5898   1.813   2.415   7.996  0.2647 -0.2127  0.1489
  369loPI   C5A 5899   2.153   2.399   7.955 -0.1552  0.3053 -0.3055
  369loPI   C6A 5900   2.600   2.341   7.897 -0.1230  0.0920 -0.1362
  369loPI   C1B 5901   0.488   2.385   8.921 -0.1767 -0.2486 -0.3025
  369loPI   C2B 5902   0.542   2.474   8.536 -0.4136 -0.2294 -0.0101
  369loPI   C3B 5903   0.591   2.868   8.260 -0.1263  0.0544 -0.2670
  369loPI   C4B 5904   0.605   3.134   7.833 -0.2895 -0.2175  0.0372
  370loPI    C1 5905   7.125  13.178  10.870 -0.2664 -0.1981  0.0357
  370loPI    C2 5906   7.451  13.368  11.004 -0.2940 -0.0230 -0.1421
  370loPI    C3 5907   7.160  13.267  11.259 -0.3476  0.3098 -0.0659
  370loPI   PO4 5908   7.104  13.405  10.640 -0.0908  0.1004 -0.2704
  370loPI   GL1 5909   6.790  13.449  10.289 -0.1520 -0.0004  0.4259
  370loPI   GL2 5910   6.967  13.738  10.315 -0.0380 -0.1853 -0.0553
  370loPI   C1A 5911   6.711  13.198   9.906 -0.3932  0.0261 -0.1600
  370loPI   C2A 5912   6.765  13.266   9.527  0.2931 -0.0232  0.1954
  370loPI   C3A 5913   6.799  13.319   9.123 -0.0432  0.0259 -0.0579
  370loPI   C4A 5914   6.777  13.312   8.725 -0.0719  0.2342  0.3617
  370loPI   C5A 5915   6.932  13.323   8.270 -0.3913 -0.1993  0.0886
  370loPI   C6A 5916   7.078  13.672   8.021  0.0064  0.0378  0.1041
  370loPI   C1B 5917   7.109  13.640   9.862  0.0833  0.0193 -0.0426
  370loPI   C2B 5918   7.002  13.695   9.461 -0.3129  0.0322 -0.0426
  370loPI   C3B 5919   7.143  13.692   9.020 -0.2638  0.5705  0.1904
  370loPI   C4B 5920   7.167  13.684   8.565  0.2878  0.2766  0.0945
  371loPI    C1 5921   6.941  11.589  10.659  0.1171  0.1774 -0.1958
  371loPI    C2 5922   7.327  11.510  10.726  0.0254 -0.0960  0.0317
  371loPI    C3 5923   7.058  11.448  11.015 -0.2163 -0.0992 -0.1902
  371loPI   PO4 5924   7.005  11.680  10.376  0.1089 -0.1468  0.2414
  371loPI   GL1 5925   6.832  11.543   9.986 -0.0252  0.0077 -0.1147
  371loPI   GL2 5926   6.776  11.822   9.934  0.1124  0.2765 -0.0489
  371loPI   C1A 5927   6.770  11.467   9.535 -0.3572  0.2113 -0.0519
  371loPI   C2A 5928   6.734  11.319   9.094 -0.0635 -0.3522  0.0794
  371loPI   C3A 5929   6.684  11.231   8.668 -0.0825  0.2957  0.1366
  371loPI   C4A 5930   6.628  11.064   8.175 -0.1115  0.1406 -0.0804
  371loPI   C5A 5931   6.584  10.980   7.819  0.1884  0.1473 -0.3920
  371loPI   C6A 5932   6.519  10.655   7.756 -0.1374 -0.0149 -0.3313
  371loPI   C1B 5933   6.652  11.933   9.620  0.0173  0.0269  0.2464
  371loPI   C2B 5934   6.645  11.936   9.160  0.2816 -0.0911  0.0527
  371loPI   C3B 5935   6.674  11.687   8.751  0.2413  0.1522  0.3352
  371loPI   C4B 5936   6.628  11.590   8.316  0.0996 -0.2366  0.0726
  372loPI    C1 5937   4.489  12.073  10.516  0.0861  0.0765  0.0857
  372loPI    C2 5938   4.309  12.173  10.859 -0.2207  0.0706 -0.0701
  372loPI    C3 5939   4.501  11.823  10.829 -0.1926  0.0711  0.0942
  372loPI   PO4 5940   4.265  12.135  10.253 -0.0713 -0.5183 -0.1900
  372loPI   GL1 5941   4.124  11.921  10.004  0.0665  0.1872 -0.2584
  372loPI   GL2 5942   3.896  12.182   9.846 -0.1133  0.0286 -0.1472
  372loPI   C1A 5943   3.961  11.718   9.711  0.0181  0.0252  0.1299
  372loPI   C2A 5944   4.052  11.629   9.318  0.0574  0.0853  0.1658
  372loPI   C3A 5945   3.815  11.576   8.949 -0.1135  0.0841  0.1450
  372loPI   C4A 5946   3.844  11.517   8.588  0.2692  0.0796  0.0528
  372loPI   C5A 5947   3.995  11.224   8.288  0.1598 -0.2246 -0.3958
  372loPI   C6A 5948   3.962  10.995   7.935 -0.0096 -0.2862  0.0015
  372loPI   C1B 5949   3.701  12.162   9.509  0.1839  0.1560 -0.2596
  372loPI   C2B 5950   3.723  12.026   9.136 -0.0720  0.1227 -0.2002
  372loPI   C3B 5951   3.820  12.093   8.670  0.3274 -0.3108 -0.0323
  372loPI   C4B 5952   3.759  11.954   8.199  0.2780 -0.0530 -0.0011
  373loPI    C1 5953  10.806   2.923  10.672 -0.0044  0.0109  0.0067
  373loPI    C2 5954  10.688   2.615  10.898 -0.2632  0.0775 -0.0343
  373loPI    C3 5955  10.726   2.978  11.060 -0.1881  0.0720 -0.0390
  373loPI   PO4 5956  10.695   2.860  10.456 -0.1923 -0.1380 -0.0486
  373loPI   GL1 5957  10.780   3.094  10.101  0.1405  0.0752 -0.0993
  373loPI   GL2 5958  10.744   2.853   9.830 -0.0063 -0.1647  0.2807
  373loPI   C1A 5959  11.026   3.200   9.660  0.1082  0.3626 -0.1352
  373loPI   C2A 5960  11.052   3.174   9.190 -0.3312 -0.2733 -0.0975
  373loPI   C3A 5961  10.986   3.198   8.785  0.2739  0.2197  0.2784
  373loPI   C4A 5962  11.036   3.287   8.344 -0.1600  0.2023  0.2049
  373loPI   C5A 5963  11.103   3.314   8.021  0.1475  0.2067  0.2406
  373loPI   C6A 5964  11.491   3.056   7.802 -0.1584 -0.2108 -0.1849
  373loPI   C1B 5965  10.729   2.828   9.408  0.2848 -0.0626 -0.0060
  373loPI   C2B 5966  10.674   2.840   9.000  0.0967 -0.0893  0.0364
  373loPI   C3B 5967  10.699   2.884   8.453 -0.2242 -0.0211 -0.1032
  373loPI   C4B 5968  10.753   2.707   8.116 -0.0652 -0.4263 -0.0607
  374loPI    C1 5969   8.733   6.913  10.751 -0.3998  0.0422  0.1614
  374loPI    C2 5970   8.854   7.070  11.099 -0.0642 -0.0241  0.0777
  374loPI    C3 5971   8.702   6.700  11.088 -0.1097 -0.0080  0.1581
  374loPI   PO4 5972   8.957   7.056  10.503 -0.0284  0.3161  0.5441
  374loPI   GL1 5973   9.131   6.857  10.111 -0.0509  0.0559 -0.2189
  374loPI   GL2 5974   9.295   7.050  10.044 -0.0893 -0.0607  0.1616
  374loPI   C1A 5975   8.966   6.965   9.696 -0.1309 -0.3494  0.1579
  374loPI   C2A 5976   9.067   7.000   9.381  0.0744  0.0990 -0.2806
  374loPI   C3A 5977   9.148   7.001   8.971 -0.1614 -0.1319 -0.0937
  374loPI   C4A 5978   9.191   6.976   8.458  0.4603 -0.2807 -0.0821
  374loPI   C5A 5979   8.916   6.990   8.118 -0.0161 -0.3961  0.1893
  374loPI   C6A 5980   8.850   7.326   7.761  0.0852 -0.0001 -0.0069
  374loPI   C1B 5981   9.358   7.327   9.712 -0.0211 -0.5015  0.0653
  374loPI   C2B 5982   9.408   7.429   9.278 -0.0407 -0.1417  0.0238
  374loPI   C3B 5983   9.484   7.324   8.819 -0.0675 -0.0257 -0.1396
  374loPI   C4B 5984   9.479   7.412   8.364  0.0736  0.0408 -0.0276
  375loPI    C1 5985  15.547   5.536  10.945 -0.0054 -0.0245 -0.3786
  375loPI    C2 5986  15.447   5.914  10.859 -0.1016  0.0071 -0.1336
  375loPI    C3 5987  15.207   5.690  11.088  0.0733 -0.1249 -0.0765
  375loPI   PO4 5988  15.639   5.421  10.592 -0.0581  0.0280  0.1536
  375loPI   GL1 5989  15.853   5.388  10.203 -0.0093  0.1800  0.0332
  375loPI   GL2 5990  16.094   5.551   9.994  0.2214  0.0661 -0.0359
  375loPI   C1A 5991  15.705   5.226   9.857  0.2382 -0.1485  0.1671
  375loPI   C2A 5992  15.681   5.228   9.439 -0.0941  0.2454 -0.0355
  375loPI   C3A 5993  15.672   5.097   9.010 -0.0098  0.2647 -0.2077
  375loPI   C4A 5994  15.692   5.326   8.628 -0.1485  0.0301  0.0875
  375loPI   C5A 5995  15.826   5.097   8.231  0.0001  0.4510 -0.3074
  375loPI   C6A 5996  15.933   5.245   7.895 -0.3956  0.0611  0.2954
  375loPI   C1B 5997  16.038   5.595   9.567 -0.1906 -0.1500 -0.1137
  375loPI   C2B 5998  16.051   5.562   9.111 -0.0307 -0.4754 -0.2255
  375loPI   C3B 5999  16.104   5.644   8.719 -0.0201  0.0505 -0.1633
  375loPI   C4B 6000  16.112   5.605   8.263  0.1480 -0.4205 -0.0802
  376loPI    C1 6001   2.994   6.676  10.335 -0.0780  0.0238 -0.1507
  376loPI    C2 6002   2.868   7.030  10.472 -0.0278  0.0653 -0.2113
  376loPI    C3 6003   2.756   6.693  10.656 -0.1982  0.1038 -0.2431
  376loPI   PO4 6004   3.153   6.790  10.147  0.0437  0.2921 -0.2751
  376loPI   GL1 6005   3.129   6.841   9.761 -0.1407  0.2320  0.3618
  376loPI   GL2 6006   3.277   7.012   9.603 -0.2017 -0.0747 -0.1126
  376loPI   C1A 6007   2.902   6.609   9.452  0.1604 -0.0446 -0.4210
  376loPI   C2A 6008   2.979   6.627   9.088  0.1290  0.0914  0.0449
  376loPI   C3A 6009   2.850   6.594   8.660 -0.1204  0.3300 -0.1695
  376loPI   C4A 6010   2.867   6.484   8.285 -0.3193  0.4192 -0.2054
  376loPI   C5A 6011   2.753   6.586   7.820  0.0483  0.0740 -0.1844
  376loPI   C6A 6012   2.852   6.898   7.567 -0.0634 -0.0351  0.1135
  376loPI   C1B 6013   3.388   6.969   9.200  0.1890 -0.2963 -0.0753
  376loPI   C2B 6014   3.440   7.010   8.704  0.0891  0.0170 -0.1116
  376loPI   C3B 6015   3.251   6.760   8.370  0.1552 -0.0277  0.3022
  376loPI   C4B 6016   3.264   6.605   8.001  0.2806  0.0370 -0.0315
  377loPI    C1 6017   4.511  15.416  10.466 -0.2349  0.2101 -0.1606
  377loPI    C2 6018   4.297  15.380  10.801 -0.0330  0.0464 -0.0469
  377loPI    C3 6019   4.693  15.428  10.822 -0.0088 -0.0481 -0.2643
  377loPI   PO4 6020   4.448  15.138  10.340 -0.2106  0.1350  0.4873
  377loPI   GL1 6021   4.628  14.962   9.984  0.1090 -0.2531 -0.1881
  377loPI   GL2 6022   4.817  15.311   9.997 -0.2755 -0.1603  0.0148
  377loPI   C1A 6023   4.636  15.070   9.588 -0.2579 -0.1189  0.0633
  377loPI   C2A 6024   4.641  15.159   9.119 -0.0751  0.1464 -0.2160
  377loPI   C3A 6025   4.702  15.177   8.688 -0.1359  0.0947 -0.0132
  377loPI   C4A 6026   4.808  15.100   8.230 -0.2249  0.6296  0.3137
  377loPI   C5A 6027   4.618  14.848   8.010  0.0102 -0.1163 -0.2741
  377loPI   C6A 6028   4.317  14.679   7.673 -0.1892  0.1357 -0.3143
  377loPI   C1B 6029   4.877  15.461   9.480 -0.1237 -0.3384  0.0508
  377loPI   C2B 6030   5.072  15.485   9.146  0.0281 -0.1822 -0.2765
  377loPI   C3B 6031   5.175  15.533   8.689 -0.0223 -0.0924  0.1736
  377loPI   C4B 6032   5.451  15.412   8.285 -0.0838  0.0536 -0.0574
  378loPI    C1 6033  10.361  17.216  10.987  0.2220  0.0653  0.1388
  378loPI    C2 6034  10.021  17.216  11.199  0.1355 -0.2358  0.0053
  378loPI    C3 6035  10.369  17.297  11.379  0.0227 -0.1581  0.1914
  378loPI   PO4 6036  10.317  17.240  10.766 -0.1440  0.0450 -0.1221
  378loPI   GL1 6037  10.428  16.967  10.399 -0.3336 -0.1999 -0.1014
  378loPI   GL2 6038  10.615  17.274  10.385 -0.1793 -0.1339  0.2272
  378loPI   C1A 6039  10.574  16.704   9.995  0.2290  0.1868  0.0086
  378loPI   C2A 6040  10.597  16.585   9.577 -0.0730 -0.0397  0.0544
  378loPI   C3A 6041  10.479  16.651   9.161  0.0694  0.2241  0.1438
  378loPI   C4A 6042  10.644  16.681   8.736 -0.1072 -0.4904 -0.0358
  378loPI   C5A 6043  10.542  16.544   8.320 -0.1027  0.3046  0.0887
  378loPI   C6A 6044  10.639  16.539   7.866  0.0849 -0.0755  0.2389
  378loPI   C1B 6045  10.423  17.218   9.980  0.1507  0.1683  0.0557
  378loPI   C2B 6046  10.373  17.172   9.521  0.0408  0.1913  0.2761
  378loPI   C3B 6047  10.440  17.088   8.978  0.0358 -0.1897 -0.3409
  378loPI   C4B 6048  10.590  17.319   8.535 -0.1712  0.1303  0.2878
  379loPI    C1 6049   7.939  14.753  11.092  0.0070 -0.1402 -0.0743
  379loPI    C2 6050   7.817  14.421  11.279  0.2666 -0.2926 -0.1704
  379loPI    C3 6051   7.951  14.733  11.491 -0.4072 -0.0657 -0.0532
  379loPI   PO4 6052   8.058  14.592  10.751 -0.1070 -0.2031 -0.3851
  379loPI   GL1 6053   8.437  14.569  10.430  0.1769 -0.0832 -0.0568
  379loPI   GL2 6054   8.513  14.803  10.262 -0.2486 -0.1497 -0.0848
  379loPI   C1A 6055   8.221  14.294  10.132 -0.1582  0.1517 -0.0817
  379loPI   C2A 6056   8.336  14.351   9.671  0.1735  0.4645 -0.7822
  379loPI   C3A 6057   8.308  14.324   9.232 -0.2269 -0.0211  0.0367
  379loPI   C4A 6058   8.319  14.344   8.751  0.3335 -0.1071  0.4465
  379loPI   C5A 6059   8.243  14.254   8.381  0.1115 -0.0931  0.0165
  379loPI   C6A 6060   8.086  13.960   7.986 -0.1938 -0.0519 -0.4472
  379loPI   C1B 6061   8.669  14.727   9.831  0.1050  0.2238  0.0319
  379loPI   C2B 6062   8.653  14.628   9.410 -0.3354  0.3087  0.0185
  379loPI   C3B 6063   8.721  14.683   8.934  0.0007 -0.2395 -0.0558
  379loPI   C4B 6064   8.687  14.561   8.453  0.0050  0.3157 -0.0980
  380loPI    C1 6065   5.956  14.833  10.742 -0.2003  0.0062 -0.1256
  380loPI    C2 6066   5.597  14.832  10.917 -0.1121 -0.2105  0.0589
  380loPI    C3 6067   5.906  15.009  11.098 -0.1071 -0.0936 -0.0626
  380loPI   PO4 6068   5.900  14.601  10.557 -0.1569  0.1090 -0.1384
  380loPI   GL1 6069   5.937  14.575  10.082  0.0832  0.3223  0.1716
  380loPI   GL2 6070   5.722  14.266  10.219 -0.2278  0.0133  0.1451
  380loPI   C1A 6071   5.946  14.389   9.741  0.4579  0.1229  0.0374
  380loPI   C2A 6072   5.915  14.361   9.295 -0.0348 -0.0180 -0.0426
  380loPI   C3A 6073   5.979  14.411   8.889 -0.0881 -0.2184  0.1344
  380loPI   C4A 6074   5.862  14.337   8.421  0.1381  0.1204  0.1878
  380loPI   C5A 6075   5.760  14.055   8.098  0.0490 -0.1075 -0.1023
  380loPI   C6A 6076   5.716  14.011   7.604 -0.0786  0.0530  0.1001
  380loPI   C1B 6077   5.473  14.495   9.899 -0.0834 -0.2827 -0.1259
  380loPI   C2B 6078   5.501  14.331   9.532  0.1428 -0.3092  0.1776
  380loPI   C3B 6079   5.511  14.427   9.091  0.2376  0.0704 -0.0893
  380loPI   C4B 6080   5.497  14.582   8.705  0.2814 -0.4325 -0.2333
  381loPI    C1 6081   8.387  16.363  10.658  0.4184 -0.1205  0.0016
  381loPI    C2 6082   8.244  16.086  10.909  0.1145 -0.0572 -0.0965
  381loPI    C3 6083   8.518  16.349  11.035 -0.1269  0.0541  0.2075
  381loPI   PO4 6084   8.388  16.202  10.391 -0.1079 -0.2861 -0.0929
  381loPI   GL1 6085   8.231  16.308   9.887 -0.2345  0.0656  0.0992
  381loPI   GL2 6086   7.914  16.246  10.020 -0.0317  0.3332  0.1600
  381loPI   C1A 6087   8.173  16.295   9.408 -0.0747 -0.0705 -0.2399
  381loPI   C2A 6088   8.245  16.276   8.992 -0.2056 -0.2168 -0.3557
  381loPI   C3A 6089   8.308  16.138   8.520 -0.1488 -0.1221  0.3160
  381loPI   C4A 6090   8.151  16.120   8.085 -0.2807 -0.0238 -0.1016
  381loPI   C5A 6091   7.711  16.014   7.927 -0.0971 -0.1885 -0.2023
  381loPI   C6A 6092   7.462  16.194   7.651 -0.4190 -0.2481  0.4495
  381loPI   C1B 6093   7.761  16.278   9.631  0.1642  0.2282 -0.2270
  381loPI   C2B 6094   7.699  16.291   9.170  0.2186  0.1869  0.1583
  381loPI   C3B 6095   7.755  16.227   8.710 -0.0539 -0.0230  0.1897
  381loPI   C4B 6096   7.813  16.289   8.393  0.1035 -0.0639  0.2265
  382loPI    C1 6097  17.330   6.005  10.498  0.0483 -0.2071  0.1582
  382loPI    C2 6098  17.144   5.812  10.796 -0.1891 -0.3803 -0.0963
  382loPI    C3 6099  17.346   5.606  10.519 -0.0420 -0.2267 -0.1054
  382loPI   PO4 6100  17.193   6.176  10.435 -0.0575  0.0891 -0.0286
  382loPI   GL1 6101  17.087   6.282  10.077  0.2386 -0.0574 -0.1013
  382loPI   GL2 6102  16.729   6.331   9.855  0.1315 -0.0160 -0.1634
  382loPI   C1A 6103  17.186   6.312   9.665 -0.0594  0.0467 -0.1643
  382loPI   C2A 6104  17.240   6.256   9.254  0.1432  0.0398  0.5482
  382loPI   C3A 6105  17.238   6.237   8.773 -0.2846  0.0100  0.0541
  382loPI   C4A 6106  17.336   6.200   8.354  0.0473  0.1270 -0.1907
  382loPI   C5A 6107  17.382   6.148   7.881 -0.1902  0.1566  0.1613
  382loPI   C6A 6108  17.319   5.841   7.528 -0.0226 -0.1392 -0.0821
  382loPI   C1B 6109  16.805   6.485   9.403 -0.0109  0.1409  0.2210
  382loPI   C2B 6110  16.747   6.432   8.897 -0.2867  0.0548  0.1395
  382loPI   C3B 6111  16.773   6.497   8.410  0.1813  0.2574 -0.2393
  382loPI   C4B 6112  16.790   6.261   8.100 -0.0459 -0.0536  0.1879
  383loPI    C1 6113   4.963  15.140  11.098 -0.0054  0.1456 -0.1908
  383loPI    C2 6114   5.107  14.836  11.314 -0.3186  0.0535 -0.1059
  383loPI    C3 6115   5.134  15.210  11.452  0.0527  0.0661 -0.2029
  383loPI   PO4 6116   5.206  15.172  10.782 -0.1513 -0.0768  0.4440
  383loPI   GL1 6117   5.358  15.234  10.352 -0.1492  0.0096  0.3322
  383loPI   GL2 6118   5.338  15.518  10.027 -0.2323 -0.0160  0.2857
  383loPI   C1A 6119   5.247  14.986   9.916  0.1382  0.0738 -0.0716
  383loPI   C2A 6120   5.198  15.025   9.524 -0.1676 -0.1775 -0.0270
  383loPI   C3A 6121   5.258  15.025   9.050  0.0658  0.3636  0.0437
  383loPI   C4A 6122   5.178  14.982   8.671  0.1980 -0.2308 -0.1245
  383loPI   C5A 6123   5.370  14.925   8.347 -0.0230  0.0798 -0.1242
  383loPI   C6A 6124   5.798  14.806   8.142  0.2508 -0.0763  0.1651
  383loPI   C1B 6125   5.398  15.530   9.621  0.1928 -0.1614 -0.1970
  383loPI   C2B 6126   5.550  15.379   9.254  0.0214  0.1628  0.3742
  383loPI   C3B 6127   5.655  15.421   8.844  0.0973  0.0103  0.2923
  383loPI   C4B 6128   6.001  15.745   8.570  0.1148 -0.1783  0.2786
  384loPI    C1 6129   2.803   2.771  10.346 -0.1615  0.0927  0.2323
  384loPI    C2 6130   2.943   2.407  10.433  0.0953  0.1431  0.0438
  384loPI    C3 6131   3.040   2.719  10.664  0.1747  0.1528 -0.0023
  384loPI   PO4 6132   2.773   2.785  10.029  0.0350 -0.0753 -0.0168
  384loPI   GL1 6133   2.596   2.624   9.642  0.2601  0.0724 -0.1696
  384loPI   GL2 6134   2.473   3.038   9.682  0.0207 -0.0501  0.2122
  384loPI   C1A 6135   2.437   2.504   9.275  0.4071  0.1928 -0.0621
  384loPI   C2A 6136   2.310   2.513   8.797  0.3607  0.1797  0.0088
  384loPI   C3A 6137   2.468   2.421   8.367 -0.0140 -0.2173 -0.1194
  384loPI   C4A 6138   2.477   2.800   7.985  0.0089 -0.2081 -0.0258
  384loPI   C5A 6139   2.435   3.191   7.724  0.2073 -0.1076 -0.0018
  384loPI   C6A 6140   2.317   3.540   7.764  0.4287  0.1555  0.2141
  384loPI   C1B 6141   2.179   3.011   9.346  0.1819  0.0204  0.0010
  384loPI   C2B 6142   2.019   3.246   8.999  0.0153 -0.2970 -0.2474
  384loPI   C3B 6143   1.817   3.083   8.566 -0.0308 -0.0899  0.2739
  384loPI   C4B 6144   1.845   2.975   8.036 -0.1531  0.0838 -0.1380
  385loPI    C1 6145   6.937  15.546  10.402  0.2897 -0.1098  0.2482
  385loPI    C2 6146   6.743  15.450  10.738  0.0306 -0.2848  0.0532
  385loPI    C3 6147   6.804  15.173  10.456  0.0466 -0.0856 -0.1413
  385loPI   PO4 6148   6.769  15.791  10.256  0.0450  0.2108 -0.1889
  385loPI   GL1 6149   7.056  15.989   9.995  0.3643 -0.1461  0.0567
  385loPI   GL2 6150   6.934  15.792   9.739 -0.0086  0.2280 -0.0264
  385loPI   C1A 6151   7.354  15.927   9.666 -0.1280  0.0745 -0.2205
  385loPI   C2A 6152   7.331  15.949   9.250 -0.1871 -0.2979  0.2313
  385loPI   C3A 6153   7.409  15.911   8.858 -0.2585 -0.0264  0.2280
  385loPI   C4A 6154   7.471  15.908   8.356 -0.1323  0.0095  0.1481
  385loPI   C5A 6155   7.234  15.738   7.987 -0.2268  0.1276  0.1461
  385loPI   C6A 6156   7.124  15.473   7.663 -0.0299 -0.1150 -0.0579
  385loPI   C1B 6157   6.948  15.606   9.366 -0.3338 -0.1177 -0.2182
  385loPI   C2B 6158   6.964  15.495   8.922 -0.0779 -0.0170 -0.0117
  385loPI   C3B 6159   7.071  15.555   8.519  0.0735 -0.0339  0.2733
  385loPI   C4B 6160   6.849  15.500   8.224  0.0957  0.4256 -0.1666
  386loPI    C1 6161  10.857  17.460  11.153  0.0149 -0.0709 -0.2222
  386loPI    C2 6162  10.925  17.849  11.090 -0.0639 -0.0036  0.0910
  386loPI    C3 6163  10.589  17.732  11.272 -0.0504 -0.2210 -0.0203
  386loPI   PO4 6164  10.955  17.323  10.878 -0.0140  0.0377 -0.0662
  386loPI   GL1 6165  11.072  17.470  10.493  0.1234 -0.1704 -0.1145
  386loPI   GL2 6166  11.410  17.555  10.599  0.4119  0.0486  0.1507
  386loPI   C1A 6167  11.002  17.084  10.144 -0.1128 -0.1309  0.1462
  386loPI   C2A 6168  10.880  17.061   9.735 -0.0525 -0.1480  0.1283
  386loPI   C3A 6169  10.847  16.937   9.357  0.1048 -0.1842  0.0264
  386loPI   C4A 6170  10.920  16.991   8.977 -0.0597 -0.1445 -0.0881
  386loPI   C5A 6171  11.047  17.004   8.555  0.2615 -0.0062  0.1010
  386loPI   C6A 6172  11.281  16.948   8.214 -0.3589  0.0460  0.0340
  386loPI   C1B 6173  11.378  17.592  10.164  0.1540 -0.1310  0.0813
  386loPI   C2B 6174  11.305  17.379   9.841 -0.1343 -0.3140 -0.0585
  386loPI   C3B 6175  11.311  17.310   9.384 -0.0503  0.0591  0.1775
  386loPI   C4B 6176  11.302  17.318   8.838 -0.2330 -0.0370  0.2035
  387loPI    C1 6177   4.491  13.504  10.775  0.0411  0.1289  0.1720
  387loPI    C2 6178   4.546  13.185  11.009  0.1572  0.0168 -0.0058
  387loPI    C3 6179   4.221  13.413  11.056  0.0419 -0.1626  0.0810
  387loPI   PO4 6180   4.466  13.427  10.546 -0.0955 -0.1490  0.1565
  387loPI   GL1 6181   4.625  13.583  10.128 -0.1402  0.0945 -0.1467
  387loPI   GL2 6182   4.585  13.312  10.008 -0.1095 -0.1336  0.2854
  387loPI   C1A 6183   4.538  13.743   9.740 -0.0060  0.2665  0.1982
  387loPI   C2A 6184   4.693  13.734   9.416  0.1651 -0.1220  0.2239
  387loPI   C3A 6185   4.632  13.760   8.943 -0.0440 -0.1338  0.0294
  387loPI   C4A 6186   4.674  13.853   8.453 -0.0816 -0.1078  0.0163
  387loPI   C5A 6187   4.880  14.053   8.094  0.0910  0.1903 -0.1243
  387loPI   C6A 6188   4.952  14.447   7.872  0.0666  0.1326 -0.0621
  387loPI   C1B 6189   4.753  13.248   9.610 -0.2024 -0.4631 -0.0620
  387loPI   C2B 6190   4.834  13.207   9.196 -0.0479 -0.0809  0.2115
  387loPI   C3B 6191   4.740  13.244   8.734 -0.0011  0.0910 -0.0777
  387loPI   C4B 6192   4.953  13.363   8.347  0.1042 -0.1931 -0.4125
  388loPI    C1 6193   4.346   0.687  10.312 -0.0104  0.0210 -0.0997
  388loPI    C2 6194   4.035   0.623  10.555  0.0691  0.2058  0.0534
  388loPI    C3 6195   4.402   0.667  10.707  0.2011 -0.1818 -0.1378
  388loPI   PO4 6196   4.257   0.631  10.056 -0.1878  0.1905  0.0113
  388loPI   GL1 6197   4.298   0.907   9.633 -0.1009  0.1639  0.4147
  388loPI   GL2 6198   3.886   0.828   9.585  0.0254 -0.0464  0.0147
  388loPI   C1A 6199   4.243   1.036   9.194  0.5754 -0.4283  0.1803
  388loPI   C2A 6200   4.263   1.228   8.797 -0.2128  0.0156  0.0368
  388loPI   C3A 6201   4.110   1.147   8.387 -0.0618 -0.0381 -0.0317
  388loPI   C4A 6202   3.782   1.395   8.075 -0.0284  0.3762  0.1383
  388loPI   C5A 6203   3.951   1.646   7.764 -0.0802 -0.0269 -0.3306
  388loPI   C6A 6204   4.415   1.798   7.739  0.0888 -0.4984  0.0764
  388loPI   C1B 6205   3.734   0.752   9.234  0.2412 -0.2223  0.2029
  388loPI   C2B 6206   3.917   0.784   8.830 -0.2235  0.1015 -0.1705
  388loPI   C3B 6207   3.971   0.661   8.448  0.1522  0.1859  0.0141
  388loPI   C4B 6208   4.199   0.648   8.050  0.0346 -0.2436 -0.0329
  389loPI    C1 6209  11.593   3.103  10.695 -0.1194  0.0799 -0.0835
  389loPI    C2 6210  11.263   3.239  10.512 -0.0967  0.1793 -0.0514
  389loPI    C3 6211  11.239   3.084  10.880 -0.1602 -0.1226 -0.1797
  389loPI   PO4 6212  11.747   3.288  10.495  0.0283  0.1152  0.0472
  389loPI   GL1 6213  11.588   3.551  10.157  0.0076 -0.0516 -0.3207
  389loPI   GL2 6214  11.805   3.473  10.005 -0.1703 -0.0240 -0.1658
  389loPI   C1A 6215  11.402   3.591   9.758 -0.1693 -0.0949  0.0105
  389loPI   C2A 6216  11.392   3.569   9.406  0.0024  0.1041 -0.0448
  389loPI   C3A 6217  11.404   3.483   8.993 -0.1191  0.1237 -0.1555
  389loPI   C4A 6218  11.476   3.599   8.484 -0.0241 -0.0927 -0.0277
  389loPI   C5A 6219  11.523   3.671   8.140 -0.0929 -0.1439  0.0203
  389loPI   C6A 6220  11.836   3.569   7.919  0.1382 -0.0900 -0.2029
  389loPI   C1B 6221  11.828   3.484   9.581  0.2515 -0.0915  0.1446
  389loPI   C2B 6222  11.883   3.451   9.204  0.3674  0.0184  0.3531
  389loPI   C3B 6223  11.995   3.456   8.887 -0.0144 -0.3382 -0.0848
  389loPI   C4B 6224  11.970   3.445   8.394 -0.0846  0.0721  0.1634
  390loPI    C1 6225  18.411   0.051  10.079 -0.1787  0.0566 -0.1983
  390loPI    C2 6226  18.319   0.440  10.088 -0.1069  0.0694  0.0577
  390loPI    C3 6227  18.035   0.166  10.152 -0.1468  0.0811 -0.0685
  390loPI   PO4 6228  18.574   0.107   9.842 -0.0369  0.1483  0.0906
  390loPI   GL1 6229  18.610   0.090   9.453 -0.2563 -0.2015  0.0148
  390loPI   GL2 6230  18.897   0.152   9.373 -0.1082  0.2521 -0.0667
  390loPI   C1A 6231  18.462  -0.202   9.133  0.1740  0.0868 -0.2558
  390loPI   C2A 6232  18.289  -0.208   8.739  0.3531  0.3071  0.0102
  390loPI   C3A 6233  18.254  -0.349   8.328  0.1736 -0.1986  0.2430
  390loPI   C4A 6234  18.306  -0.157   7.972  0.0431  0.0277  0.3441
  390loPI   C5A 6235  18.589  -0.088   7.618  0.0317  0.2184  0.0406
  390loPI   C6A 6236  18.662  -0.393   7.267  0.2296 -0.0712  0.1400
  390loPI   C1B 6237  18.800   0.136   8.957 -0.1468  0.1028  0.0663
  390loPI   C2B 6238  18.753   0.101   8.621 -0.2884  0.1116 -0.1744
  390loPI   C3B 6239  18.825   0.096   8.181 -0.0002  0.1384  0.1931
  390loPI   C4B 6240  18.854   0.309   7.809  0.0070  0.1480  0.2588
  391loPI    C1 6241   1.385  10.128  10.928  0.0431 -0.0689  0.1563
  391loPI    C2 6242   1.672  10.304  11.143  0.0374  0.0651  0.0559
  391loPI    C3 6243   1.331  10.499  11.068  0.0070 -0.0117 -0.0066
  391loPI   PO4 6244   1.554   9.964  10.737  0.0054  0.1837  0.0576
  391loPI   GL1 6245   1.446   9.861  10.257  0.0397 -0.3387  0.1587
  391loPI   GL2 6246   1.216   9.629  10.249 -0.1812  0.1127 -0.0552
  391loPI   C1A 6247   1.620   9.827   9.817  0.1914 -0.0013  0.0024
  391loPI   C2A 6248   1.496   9.726   9.350 -0.1160  0.0696  0.1661
  391loPI   C3A 6249   1.478   9.711   8.978  0.1294  0.1510 -0.1678
  391loPI   C4A 6250   1.572   9.785   8.579  0.1562 -0.1773  0.2328
  391loPI   C5A 6251   1.406   9.829   8.253  0.0256 -0.2173  0.1831
  391loPI   C6A 6252   0.964   9.806   7.972  0.1771  0.0747  0.0138
  391loPI   C1B 6253   1.120   9.779   9.864  0.0425 -0.2814  0.3483
  391loPI   C2B 6254   1.026   9.843   9.423  0.4239 -0.1909 -0.1646
  391loPI   C3B 6255   0.940   9.905   9.028  0.1942 -0.2225 -0.1604
  391loPI   C4B 6256   1.013   9.883   8.578 -0.2159  0.0914 -0.2456
  392loPI    C1 6257  14.550  13.061  10.493 -0.1974  0.0290  0.0263
  392loPI    C2 6258  14.504  12.773  10.767  0.0332  0.0777  0.1185
  392loPI    C3 6259  14.315  13.122  10.811  0.0563  0.0793  0.2080
  392loPI   PO4 6260  14.526  12.995  10.281  0.1875  0.3909  0.0523
  392loPI   GL1 6261  14.580  13.051   9.912  0.4756  0.0622 -0.0908
  392loPI   GL2 6262  14.518  12.664   9.821  0.0670 -0.1321  0.0695
  392loPI   C1A 6263  14.881  13.077   9.541  0.1816  0.0272  0.1089
  392loPI   C2A 6264  15.004  13.054   9.108  0.3226 -0.0085 -0.0668
  392loPI   C3A 6265  14.804  13.180   8.789 -0.2857 -0.0823 -0.1157
  392loPI   C4A 6266  14.703  13.043   8.307 -0.0408 -0.0564  0.1704
  392loPI   C5A 6267  14.970  12.973   7.942 -0.0904  0.2282 -0.0830
  392loPI   C6A 6268  15.384  13.096   7.673  0.0497  0.3097 -0.4101
  392loPI   C1B 6269  14.481  12.753   9.401 -0.1274  0.0559 -0.0990
  392loPI   C2B 6270  14.577  12.755   8.941 -0.5424 -0.0812  0.2848
  392loPI   C3B 6271  14.558  12.643   8.525  0.2699 -0.1974  0.3085
  392loPI   C4B 6272  14.275  12.739   8.147 -0.0969 -0.2281 -0.2551
  393loPI    C1 6273   1.174  17.166   9.910  0.1537  0.2162 -0.1885
  393loPI    C2 6274   1.035  17.325  10.250  0.2028  0.1633 -0.1432
  393loPI    C3 6275   1.391  17.143  10.246  0.0717 -0.0978 -0.1536
  393loPI   PO4 6276   0.886  17.050   9.876 -0.2212  0.2805  0.0159
  393loPI   GL1 6277   0.675  16.932   9.639  0.0100  0.1253 -0.1163
  393loPI   GL2 6278   0.557  17.229   9.409 -0.1509  0.1001 -0.3192
  393loPI   C1A 6279   0.612  16.786   9.261 -0.3379 -0.3439 -0.0964
  393loPI   C2A 6280   0.415  16.897   8.788  0.1688 -0.0178  0.1740
  393loPI   C3A 6281   0.482  17.017   8.395 -0.2512  0.0308 -0.0374
  393loPI   C4A 6282   0.309  17.100   7.949 -0.4661  0.0350 -0.3943
  393loPI   C5A 6283   0.439  17.157   7.490  0.1674  0.1825 -0.2474
  393loPI   C6A 6284   0.423  16.944   6.931 -0.0408  0.0400 -0.0079
  393loPI   C1B 6285   0.512  17.414   9.013 -0.2064  0.4824  0.1983
  393loPI   C2B 6286   0.484  17.510   8.668 -0.0752  0.4914  0.4001
  393loPI   C3B 6287   0.316  17.513   8.294 -0.1448 -0.1778 -0.2959
  393loPI   C4B 6288   0.353  17.612   7.851 -0.1269 -0.1811 -0.1625
  394loPI    C1 6289   5.983  16.020  10.470 -0.0036 -0.0641 -0.0970
  394loPI    C2 6290   6.094  16.260  10.770  0.3645 -0.3890  0.0357
  394loPI    C3 6291   5.710  16.156  10.728  0.2429  0.0040  0.1324
  394loPI   PO4 6292   6.196  16.002  10.321 -0.2919  0.1608 -0.0326
  394loPI   GL1 6293   6.343  15.741   9.938 -0.2442  0.4322  0.0962
  394loPI   GL2 6294   6.173  15.441   9.937 -0.0350 -0.4170 -0.0650
  394loPI   C1A 6295   6.492  15.718   9.502 -0.1555  0.3524 -0.1181
  394loPI   C2A 6296   6.514  15.697   9.092  0.0419  0.1103  0.2524
  394loPI   C3A 6297   6.539  15.583   8.652  0.0424  0.3147 -0.5445
  394loPI   C4A 6298   6.311  15.574   8.255  0.0273 -0.4025 -0.0511
  394loPI   C5A 6299   6.263  15.631   7.812 -0.2923 -0.1719 -0.1212
  394loPI   C6A 6300   6.115  15.752   7.373  0.0766  0.1600 -0.2652
  394loPI   C1B 6301   6.003  15.304   9.520  0.0675  0.1496 -0.1850
  394loPI   C2B 6302   6.055  15.298   9.040 -0.1981 -0.1615 -0.1021
  394loPI   C3B 6303   6.197  15.233   8.647 -0.0591  0.0056  0.1931
  394loPI   C4B 6304   6.216  15.071   8.208  0.2439 -0.2297 -0.1549
  395loPI    C1 6305  14.824   9.917  10.567 -0.0635 -0.1424  0.0762
  395loPI    C2 6306  14.651  10.097  10.880 -0.3684 -0.0293 -0.1520
  395loPI    C3 6307  15.023   9.954  10.912 -0.2532  0.3199  0.1439
  395loPI   PO4 6308  14.702   9.920  10.406 -0.2707 -0.1357  0.1279
  395loPI   GL1 6309  14.376  10.039  10.077  0.3316  0.0790 -0.3466
  395loPI   GL2 6310  14.515   9.783   9.909 -0.1976  0.0384  0.2124
  395loPI   C1A 6311  14.210  10.310   9.769  0.3208  0.0020 -0.1168
  395loPI   C2A 6312  14.271  10.403   9.290  0.0287 -0.2830 -0.3349
  395loPI   C3A 6313  14.246  10.287   8.852 -0.2629 -0.0324 -0.1035
  395loPI   C4A 6314  14.356  10.410   8.464  0.0653  0.0635 -0.1363
  395loPI   C5A 6315  14.323  10.472   8.089  0.1692 -0.0525 -0.0750
  395loPI   C6A 6316  14.383  10.237   7.746 -0.1154  0.0814 -0.0561
  395loPI   C1B 6317  14.452   9.818   9.507 -0.1556  0.6499 -0.1520
  395loPI   C2B 6318  14.348   9.842   9.064  0.2382  0.3779 -0.1616
  395loPI   C3B 6319  14.459   9.865   8.640  0.1794 -0.4441 -0.0935
  395loPI   C4B 6320  14.278   9.952   8.267 -0.0058 -0.3323  0.0108
  396loPI    C1 6321   2.792   0.684  10.251 -0.1507  0.0122  0.0399
  396loPI    C2 6322   3.087   0.719  10.519 -0.0232  0.0423 -0.1032
  396loPI    C3 6323   2.762   0.502  10.606  0.1124 -0.1244 -0.0057
  396loPI   PO4 6324   2.941   0.667   9.972 -0.0825  0.0847 -0.1210
  396loPI   GL1 6325   2.783   0.680   9.508 -0.0418 -0.1301  0.0735
  396loPI   GL2 6326   3.098   0.479   9.464  0.0966 -0.1338 -0.0456
  396loPI   C1A 6327   2.659   0.758   9.050  0.0549  0.1034  0.3726
  396loPI   C2A 6328   2.631   0.710   8.663 -0.1149 -0.1940  0.3694
  396loPI   C3A 6329   2.739   0.935   8.173  0.2701  0.0410 -0.0162
  396loPI   C4A 6330   2.863   1.255   7.791  0.0138 -0.1500  0.2427
  396loPI   C5A 6331   3.041   1.490   7.436 -0.0613  0.0280 -0.1468
  396loPI   C6A 6332   3.054   1.825   7.086 -0.1590 -0.2693 -0.1607
  396loPI   C1B 6333   3.202   0.681   9.185 -0.3484  0.0023 -0.1547
  396loPI   C2B 6334   3.196   0.800   8.798 -0.1981  0.0125  0.0133
  396loPI   C3B 6335   3.076   0.651   8.352  0.2472  0.2378  0.0408
  396loPI   C4B 6336   3.277   0.550   7.880  0.0542  0.2545  0.0505
  397loPI    C1 6337  18.320   4.122  10.255 -0.3605  0.1931 -0.3050
  397loPI    C2 6338  17.984   4.200  10.458 -0.1249  0.0481  0.1559
  397loPI    C3 6339  18.093   3.821  10.389  0.1494  0.0852  0.3699
  397loPI   PO4 6340  18.328   4.369  10.081 -0.2087  0.0303  0.1738
  397loPI   GL1 6341  18.206   4.462   9.672 -0.1963 -0.2723 -0.0984
  397loPI   GL2 6342  18.219   4.832   9.589 -0.0867  0.0996  0.1526
  397loPI   C1A 6343  17.973   4.245   9.357 -0.0896 -0.0225  0.0226
  397loPI   C2A 6344  17.951   4.300   8.926  0.2000  0.1018 -0.1268
  397loPI   C3A 6345  18.005   4.191   8.546  0.1375  0.1044  0.0256
  397loPI   C4A 6346  17.940   3.902   8.236 -0.3178  0.1292 -0.2466
  397loPI   C5A 6347  17.742   4.010   7.852  0.0116 -0.1680 -0.3097
  397loPI   C6A 6348  17.472   3.865   7.536 -0.2482  0.2627 -0.1242
  397loPI   C1B 6349  18.244   4.632   9.154 -0.3211  0.0833  0.1627
  397loPI   C2B 6350  18.204   4.720   8.788  0.2345  0.0925  0.0630
  397loPI   C3B 6351  18.272   4.645   8.378  0.0485 -0.1950  0.4006
  397loPI   C4B 6352  18.640   4.541   8.099 -0.0674  0.0085 -0.0118
  398loPI    C1 6353   8.587   6.300  10.878 -0.1075  0.1743 -0.0900
  398loPI    C2 6354   8.966   6.224  10.981 -0.1625 -0.1626 -0.1244
  398loPI    C3 6355   8.686   6.259  11.264 -0.1502 -0.1689 -0.1115
  398loPI   PO4 6356   8.546   6.266  10.675 -0.0956 -0.1832  0.2187
  398loPI   GL1 6357   8.475   6.585  10.316 -0.0782 -0.0253 -0.2925
  398loPI   GL2 6358   8.074   6.602  10.239  0.0251 -0.0010  0.0849
  398loPI   C1A 6359   8.615   6.531   9.879 -0.1167  0.1220  0.1395
  398loPI   C2A 6360   8.671   6.631   9.426 -0.0687  0.2624 -0.1286
  398loPI   C3A 6361   8.784   6.588   8.968 -0.3038  0.2132 -0.2410
  398loPI   C4A 6362   8.814   6.583   8.515  0.2187  0.1013 -0.3918
  398loPI   C5A 6363   9.060   6.513   8.151 -0.1760 -0.0834  0.4640
  398loPI   C6A 6364   9.342   6.539   7.918  0.2303  0.0983 -0.0913
  398loPI   C1B 6365   8.114   6.719   9.804 -0.2208  0.0981  0.0430
  398loPI   C2B 6366   8.176   6.727   9.289  0.1327  0.1686 -0.1420
  398loPI   C3B 6367   8.342   6.674   8.906 -0.1884 -0.3146 -0.0730
  398loPI   C4B 6368   8.335   6.597   8.488  0.2698 -0.2295  0.4255
  399loPI    C1 6369  13.313  15.775  11.030 -0.0655 -0.1168 -0.0778
  399loPI    C2 6370  12.965  15.935  11.146 -0.0292 -0.2193  0.1800
  399loPI    C3 6371  13.167  15.695  11.394  0.3685  0.0678  0.1446
  399loPI   PO4 6372  13.157  15.713  10.732  0.3421  0.0326  0.1758
  399loPI   GL1 6373  12.802  15.568  10.553 -0.2939  0.0638 -0.1034
  399loPI   GL2 6374  12.762  15.834  10.318 -0.1927  0.0970  0.2738
  399loPI   C1A 6375  12.715  15.460  10.068  0.0389 -0.1590  0.3731
  399loPI   C2A 6376  12.570  15.269   9.784 -0.0197  0.0578  0.0311
  399loPI   C3A 6377  12.382  15.290   9.383  0.1961  0.0509  0.4053
  399loPI   C4A 6378  12.309  15.261   8.937  0.1065 -0.3417  0.1255
  399loPI   C5A 6379  12.233  15.259   8.387  0.0227  0.3790 -0.0331
  399loPI   C6A 6380  11.815  15.381   8.231 -0.1196  0.0743  0.0938
  399loPI   C1B 6381  12.958  15.839   9.886 -0.0425 -0.0167  0.4756
  399loPI   C2B 6382  12.697  15.715   9.538 -0.1452 -0.2319  0.1247
  399loPI   C3B 6383  12.636  15.609   9.118 -0.1795  0.2268 -0.0496
  399loPI   C4B 6384  12.756  15.503   8.678 -0.2310  0.1501 -0.0015
  400loPI    C1 6385  15.555   8.743  10.868  0.0969  0.1621  0.2777
  400loPI    C2 6386  15.747   8.425  11.015 -0.2859 -0.0363  0.3615
  400loPI    C3 6387  15.677   8.743  11.248 -0.0684  0.0346  0.3321
  400loPI   PO4 6388  15.626   8.819  10.664 -0.0125  0.0226 -0.0156
  400loPI   GL1 6389  15.649   8.879  10.227 -0.0374  0.1112  0.0349
  400loPI   GL2 6390  15.660   9.153  10.093  0.1002 -0.2453 -0.0445
  400loPI   C1A 6391  15.699   8.485   9.981 -0.2832 -0.1871 -0.2627
  400loPI   C2A 6392  15.698   8.526   9.618  0.2988 -0.0502 -0.0322
  400loPI   C3A 6393  15.785   8.488   9.258 -0.1465 -0.1244 -0.2755
  400loPI   C4A 6394  15.704   8.523   8.846 -0.0579 -0.1245 -0.1143
  400loPI   C5A 6395  15.768   8.507   8.390  0.1747  0.1890  0.0746
  400loPI   C6A 6396  15.783   8.666   7.959 -0.0893  0.0164 -0.0280
  400loPI   C1B 6397  15.621   8.989   9.729 -0.1969  0.0002  0.1275
  400loPI   C2B 6398  15.665   8.977   9.271  0.2618 -0.0755 -0.1997
  400loPI   C3B 6399  15.529   9.057   8.819 -0.0517  0.1983  0.0948
  400loPI   C4B 6400  15.557   9.092   8.486  0.3388 -0.0000 -0.3389
  401loPI    C1 6401   8.780   8.077  10.739  0.1407  0.0381  0.0382
  401loPI    C2 6402   8.391   8.008  10.679  0.1498 -0.2799  0.3121
  401loPI    C3 6403   8.508   8.339  10.871  0.0520  0.0902 -0.2412
  401loPI   PO4 6404   8.864   7.952  10.583 -0.0055 -0.1113 -0.1130
  401loPI   GL1 6405   8.584   7.714  10.342  0.0334  0.2794 -0.0534
  401loPI   GL2 6406   8.771   7.839  10.100  0.0990 -0.1463  0.2105
  401loPI   C1A 6407   8.319   7.533  10.033  0.1371  0.0837  0.4161
  401loPI   C2A 6408   8.432   7.727   9.592 -0.2794 -0.0969  0.0289
  401loPI   C3A 6409   8.374   7.643   9.067  0.0503  0.2232 -0.1159
  401loPI   C4A 6410   8.432   7.540   8.601 -0.0874  0.3110 -0.0889
  401loPI   C5A 6411   8.512   7.567   8.183 -0.0983  0.2727  0.0249
  401loPI   C6A 6412   8.882   7.695   8.050  0.0012  0.2448 -0.4474
  401loPI   C1B 6413   8.793   8.043   9.663 -0.0755 -0.3590 -0.1345
  401loPI   C2B 6414   8.847   8.063   9.228 -0.0172 -0.0116 -0.0616
  401loPI   C3B 6415   8.703   7.930   8.871  0.0167  0.0756 -0.1668
  401loPI   C4B 6416   8.798   7.945   8.467 -0.0311  0.0562 -0.2333
  402loPI    C1 6417  13.383  10.939  10.749 -0.0578 -0.0880  0.0476
  402loPI    C2 6418  13.716  11.141  10.839 -0.1219  0.0813 -0.0893
  402loPI    C3 6419  13.674  10.762  10.958  0.0148  0.1360  0.1392
  402loPI   PO4 6420  13.339  11.077  10.484  0.0339 -0.1602  0.2165
  402loPI   GL1 6421  13.284  11.101  10.052  0.3175 -0.0325  0.0800
  402loPI   GL2 6422  13.652  11.014  10.015 -0.0243 -0.2019 -0.0569
  402loPI   C1A 6423  13.135  10.757   9.764 -0.3090 -0.2232  0.3310
  402loPI   C2A 6424  13.193  10.655   9.291 -0.0666 -0.3051 -0.1354
  402loPI   C3A 6425  13.274  10.587   8.817  0.2396 -0.0549 -0.1009
  402loPI   C4A 6426  13.302  10.561   8.437 -0.0874  0.0909  0.0346
  402loPI   C5A 6427  13.480  10.567   7.970  0.0162 -0.1051 -0.0495
  402loPI   C6A 6428  13.466  10.573   7.412  0.1724 -0.0494  0.2138
  402loPI   C1B 6429  13.538  11.048   9.561 -0.2250  0.0394  0.0920
  402loPI   C2B 6430  13.568  11.029   9.094  0.1999  0.0664 -0.1939
  402loPI   C3B 6431  13.599  10.900   8.578  0.0687  0.0258  0.1375
  402loPI   C4B 6432  13.866  10.857   8.219 -0.0296 -0.0270 -0.1202
  403loPI    C1 6433  18.430   5.264  10.346  0.0511  0.0045  0.1309
  403loPI    C2 6434  18.515   5.476  10.674  0.1031 -0.0689  0.1651
  403loPI    C3 6435  18.139   5.463  10.536  0.1151  0.1155  0.1132
  403loPI   PO4 6436  18.658   5.301  10.210  0.0359  0.0633 -0.1309
  403loPI   GL1 6437  18.673   5.208   9.817 -0.0768  0.1958  0.0311
  403loPI   GL2 6438  18.924   5.202   9.622  0.1010 -0.0407  0.2396
  403loPI   C1A 6439  18.451   5.250   9.401 -0.0177  0.2938  0.3582
  403loPI   C2A 6440  18.526   5.407   8.982  0.1568  0.2038 -0.0315
  403loPI   C3A 6441  18.472   5.485   8.612  0.3404  0.0218  0.1764
  403loPI   C4A 6442  18.399   5.540   8.143  0.0225  0.0053  0.1269
  403loPI   C5A 6443  18.612   5.597   7.678 -0.2195 -0.0988  0.0949
  403loPI   C6A 6444  18.572   5.991   7.509 -0.3973  0.0149 -0.0015
  403loPI   C1B 6445  19.162   5.116   9.229  0.1389 -0.0826  0.2771
  403loPI   C2B 6446  19.101   5.337   8.839  0.0961 -0.1176  0.1198
  403loPI   C3B 6447  18.901   5.406   8.445 -0.1137  0.3681 -0.2703
  403loPI   C4B 6448  18.959   5.511   8.089 -0.0787  0.1891 -0.2710
  404loPI    C1 6449  11.147   9.220  10.582  0.1287 -0.0369 -0.0226
  404loPI    C2 6450  11.279   9.075  10.931  0.0110 -0.0204  0.0293
  404loPI    C3 6451  11.085   9.425  10.920  0.0154 -0.0203 -0.0530
  404loPI   PO4 6452  10.981   9.059  10.477  0.0869  0.0017  0.0270
  404loPI   GL1 6453  10.816   9.181  10.113  0.3311 -0.2185 -0.0093
  404loPI   GL2 6454  10.671   8.901   9.891 -0.0973 -0.2195  0.3236
  404loPI   C1A 6455  10.811   9.390   9.683 -0.2030  0.3722 -0.1821
  404loPI   C2A 6456  10.790   9.477   9.197 -0.2044 -0.1504  0.1826
  404loPI   C3A 6457  10.802   9.504   8.843 -0.3060  0.1983  0.0549
  404loPI   C4A 6458  10.802   9.481   8.392  0.0974  0.1683  0.0291
  404loPI   C5A 6459  10.793   9.350   7.966 -0.0685  0.0651  0.1422
  404loPI   C6A 6460  11.006   9.226   7.624 -0.1095  0.2628 -0.0724
  404loPI   C1B 6461  10.789   8.929   9.511  0.1017  0.1078  0.2536
  404loPI   C2B 6462  10.882   9.042   9.039 -0.0702 -0.3478  0.0462
  404loPI   C3B 6463  11.055   9.078   8.656  0.0837  0.2654 -0.0475
  404loPI   C4B 6464  11.005   9.006   8.281 -0.0784  0.2863 -0.3098
  405loPI    C1 6465  15.826   7.961  10.917 -0.1305  0.0099 -0.1904
  405loPI    C2 6466  16.068   7.797  11.191 -0.0527  0.2590 -0.1070
  405loPI    C3 6467  15.679   7.704  11.186 -0.0201  0.1162 -0.0264
  405loPI   PO4 6468  15.963   7.931  10.620  0.2742  0.1252 -0.0569
  405loPI   GL1 6469  16.191   7.698  10.454 -0.1539  0.0194 -0.0567
  405loPI   GL2 6470  15.996   7.543  10.234 -0.0220  0.0412 -0.2606
  405loPI   C1A 6471  16.306   7.863   9.975  0.0179 -0.1397  0.0576
  405loPI   C2A 6472  16.382   7.859   9.570 -0.1052  0.0918 -0.1342
  405loPI   C3A 6473  16.381   7.920   9.179 -0.0472  0.1140 -0.1158
  405loPI   C4A 6474  16.401   7.902   8.807 -0.1228  0.3820 -0.0710
  405loPI   C5A 6475  16.345   7.928   8.326  0.0864 -0.0570 -0.1473
  405loPI   C6A 6476  16.244   7.641   8.044  0.2056  0.0609 -0.1127
  405loPI   C1B 6477  15.950   7.514   9.790 -0.0468 -0.0998 -0.0699
  405loPI   C2B 6478  16.020   7.494   9.449  0.3327 -0.1393 -0.0036
  405loPI   C3B 6479  16.051   7.548   9.048  0.1426 -0.1174 -0.3527
  405loPI   C4B 6480  16.051   7.548   8.632 -0.3072 -0.0899  0.0840
  406loPI    C1 6481   2.088   1.125  10.311 -0.2014 -0.2241 -0.0110
  406loPI    C2 6482   1.768   1.290  10.487  0.0096  0.0466  0.1284
  406loPI    C3 6483   1.986   1.017  10.683 -0.0594 -0.0413  0.0834
  406loPI   PO4 6484   2.132   1.336  10.148 -0.1967 -0.0758 -0.1155
  406loPI   GL1 6485   2.288   1.450   9.840  0.0283 -0.2118 -0.1125
  406loPI   GL2 6486   2.135   1.844   9.777 -0.0708 -0.2504 -0.2933
  406loPI   C1A 6487   2.429   1.471   9.526 -0.1584  0.0730  0.1884
  406loPI   C2A 6488   2.575   1.557   9.025  0.1659  0.1112 -0.0044
  406loPI   C3A 6489   2.806   1.702   8.657 -0.0635 -0.2181 -0.0979
  406loPI   C4A 6490   3.008   1.672   8.314 -0.1675  0.0663 -0.2405
  406loPI   C5A 6491   2.899   1.749   8.010 -0.1790  0.0482  0.0792
  406loPI   C6A 6492   3.077   2.084   7.691 -0.1315  0.2393  0.1228
  406loPI   C1B 6493   2.381   1.919   9.404 -0.0116 -0.0523  0.0212
  406loPI   C2B 6494   2.485   2.081   8.918  0.0977  0.6028 -0.2636
  406loPI   C3B 6495   2.788   2.174   8.641 -0.0249  0.1111  0.1519
  406loPI   C4B 6496   2.945   2.316   8.327 -0.1444 -0.3546  0.4068
  407loPI    C1 6497  13.980   3.038  10.347 -0.0973  0.0298 -0.1230
  407loPI    C2 6498  14.076   2.872  10.698  0.1803  0.0113 -0.2051
  407loPI    C3 6499  13.926   3.243  10.687  0.2953  0.0625 -0.0759
  407loPI   PO4 6500  14.233   2.992  10.188 -0.0090  0.2553  0.1581
  407loPI   GL1 6501  14.444   3.261   9.882 -0.0916  0.0714  0.1080
  407loPI   GL2 6502  14.101   3.309   9.779  0.2116 -0.2828 -0.0959
  407loPI   C1A 6503  14.478   3.223   9.489 -0.1800  0.0415 -0.0386
  407loPI   C2A 6504  14.458   3.281   9.063  0.0333 -0.1665  0.0350
  407loPI   C3A 6505  14.430   3.255   8.602 -0.3696 -0.0845 -0.1980
  407loPI   C4A 6506  14.351   3.184   8.087  0.0784 -0.0918  0.0176
  407loPI   C5A 6507  14.364   3.130   7.675  0.1383 -0.1830  0.1311
  407loPI   C6A 6508  14.470   3.062   7.304  0.2205 -0.1488 -0.1420
  407loPI   C1B 6509  14.015   3.338   9.421  0.2786 -0.1560  0.2109
  407loPI   C2B 6510  13.883   3.385   8.929 -0.0315 -0.1387  0.0056
  407loPI   C3B 6511  13.825   3.390   8.538  0.2158  0.2992  0.2934
  407loPI   C4B 6512  13.767   3.246   8.123 -0.0886  0.0868  0.1115
  408loPI    C1 6513   6.380  14.302  11.048  0.0335  0.1133 -0.0984
  408loPI    C2 6514   6.003  14.434  11.058  0.0922  0.2972 -0.2501
  408loPI    C3 6515   6.306  14.694  11.074  0.2158  0.1406  0.0302
  408loPI   PO4 6516   6.466  14.166  10.825  0.0963  0.1671 -0.0213
  408loPI   GL1 6517   6.344  13.881  10.419  0.0891  0.1826  0.1966
  408loPI   GL2 6518   6.224  14.177  10.336  0.3674  0.0172  0.0387
  408loPI   C1A 6519   6.566  13.797  10.037  0.1351  0.1579 -0.3019
  408loPI   C2A 6520   6.580  13.685   9.718  0.1395  0.0446 -0.0386
  408loPI   C3A 6521   6.563  13.820   9.353 -0.4396  0.2956  0.3381
  408loPI   C4A 6522   6.554  13.806   8.939 -0.3797 -0.2592 -0.0226
  408loPI   C5A 6523   6.659  13.788   8.551 -0.1544 -0.0266 -0.0593
  408loPI   C6A 6524   6.654  13.948   8.123  0.1146 -0.0518 -0.0850
  408loPI   C1B 6525   6.388  14.312   9.951 -0.3501 -0.1054 -0.1722
  408loPI   C2B 6526   6.439  14.337   9.456 -0.3560  0.2565 -0.1919
  408loPI   C3B 6527   6.444  14.301   8.999  0.0606 -0.3457  0.3925
  408loPI   C4B 6528   6.508  14.246   8.534 -0.2895 -0.2178 -0.1669
  409loPI    C1 6529  15.661  10.386  10.352  0.1520  0.0002  0.2285
  409loPI    C2 6530  15.389  10.620  10.529  0.0089  0.1333 -0.1564
  409loPI    C3 6531  15.720  10.513  10.726 -0.0804  0.3878  0.1395
  409loPI   PO4 6532  15.585  10.206  10.229 -0.0675 -0.2722  0.1245
  409loPI   GL1 6533  15.496  10.039   9.881 -0.1491  0.3150 -0.0284
  409loPI   GL2 6534  15.823   9.919   9.738  0.1217 -0.0694  0.0015
  409loPI   C1A 6535  15.223  10.097   9.572  0.0803  0.2708 -0.0033
  409loPI   C2A 6536  15.214  10.116   9.175  0.0208 -0.1782  0.0153
  409loPI   C3A 6537  15.271  10.067   8.776 -0.0531  0.2195  0.1698
  409loPI   C4A 6538  15.311  10.205   8.340  0.1276 -0.0306  0.0511
  409loPI   C5A 6539  15.604  10.406   7.991  0.4874  0.1539  0.0589
  409loPI   C6A 6540  15.587  10.885   7.779 -0.2661  0.0006  0.1942
  409loPI   C1B 6541  15.672  10.051   9.358 -0.0743 -0.0823 -0.0876
  409loPI   C2B 6542  15.689   9.978   9.008  0.1476 -0.1489  0.0934
  409loPI   C3B 6543  15.795   9.927   8.691  0.0899 -0.4001 -0.3591
  409loPI   C4B 6544  15.800  10.060   8.292  0.2827 -0.0525 -0.1336
  410loPI    C1 6545  12.535   2.737  10.457  0.0577 -0.1221 -0.1223
  410loPI    C2 6546  12.697   2.989  10.721 -0.2479  0.1748 -0.2104
  410loPI    C3 6547  12.362   2.790  10.814  0.0310 -0.2652 -0.1131
  410loPI   PO4 6548  12.558   2.869  10.255 -0.3145  0.0588 -0.2095
  410loPI   GL1 6549  12.729   2.508  10.083  0.0600  0.0503  0.2756
  410loPI   GL2 6550  12.805   2.777   9.839 -0.0963  0.1010 -0.1450
  410loPI   C1A 6551  12.443   2.441   9.756 -0.1468  0.0260  0.2772
  410loPI   C2A 6552  12.186   2.435   9.536 -0.1522 -0.0419  0.0849
  410loPI   C3A 6553  12.284   2.427   9.089  0.2440 -0.1526  0.1502
  410loPI   C4A 6554  12.265   2.345   8.662 -0.2715 -0.1535 -0.4609
  410loPI   C5A 6555  12.196   2.396   8.260  0.1127 -0.0616  0.1513
  410loPI   C6A 6556  12.339   2.539   7.762 -0.2790 -0.0362 -0.1030
  410loPI   C1B 6557  12.696   2.730   9.448  0.1775 -0.0255 -0.0247
  410loPI   C2B 6558  12.592   2.769   9.030 -0.2217 -0.2092  0.0502
  410loPI   C3B 6559  12.644   2.772   8.552  0.2639 -0.2766 -0.1694
  410loPI   C4B 6560  12.631   2.601   8.216  0.1673  0.2379 -0.0014
  411loPI    C1 6561   0.324  17.930   9.841 -0.1054 -0.1274 -0.0712
  411loPI    C2 6562   0.006  18.126   9.698  0.0516  0.0338 -0.2057
  411loPI    C3 6563   0.049  18.074  10.092 -0.2628 -0.2025 -0.1989
  411loPI   PO4 6564   0.329  17.686   9.704 -0.2462  0.0292  0.1649
  411loPI   GL1 6565   0.122  17.498   9.495  0.3533  0.1305  0.2503
  411loPI   GL2 6566   0.042  17.815   9.298 -0.1994  0.1512 -0.3954
  411loPI   C1A 6567   0.048  17.253   9.092 -0.2058  0.1042  0.1934
  411loPI   C2A 6568  -0.062  17.260   8.636  0.0680 -0.4031 -0.0044
  411loPI   C3A 6569  -0.146  17.293   8.176  0.3411  0.3287  0.2420
  411loPI   C4A 6570  -0.063  17.227   7.714  0.0472 -0.1850  0.1058
  411loPI   C5A 6571  -0.371  17.116   7.422 -0.0797  0.1045 -0.0396
  411loPI   C6A 6572  -0.806  17.205   7.503  0.1551  0.0498 -0.1992
  411loPI   C1B 6573  -0.169  17.849   8.927 -0.0605 -0.2031  0.1573
  411loPI   C2B 6574  -0.182  17.713   8.522  0.2427 -0.0016  0.1118
  411loPI   C3B 6575  -0.086  17.749   8.085 -0.2293 -0.0095  0.0791
  411loPI   C4B 6576  -0.059  17.997   7.693 -0.0045  0.0972 -0.1481
  412loPI    C1 6577  11.692   8.341  10.925  0.0202  0.0326  0.0304
  412loPI    C2 6578  11.411   8.198  11.171 -0.1611  0.2328 -0.0568
  412loPI    C3 6579  11.455   8.593  11.125  0.1258  0.2033 -0.0565
  412loPI   PO4 6580  11.699   8.293  10.622 -0.0632 -0.1230  0.2419
  412loPI   GL1 6581  11.475   8.341  10.295 -0.1309  0.0519  0.2655
  412loPI   GL2 6582  11.399   8.054  10.172 -0.1533  0.0552 -0.0664
  412loPI   C1A 6583  11.533   8.584   9.879  0.1181  0.3265 -0.0514
  412loPI   C2A 6584  11.579   8.281   9.583 -0.0560  0.1594  0.3635
  412loPI   C3A 6585  11.550   8.137   9.148  0.1024  0.2223 -0.3194
  412loPI   C4A 6586  11.564   8.283   8.825 -0.2088  0.1688  0.0880
  412loPI   C5A 6587  11.686   8.321   8.417  0.0815  0.3428 -0.1266
  412loPI   C6A 6588  11.639   8.251   7.952  0.1367  0.2797 -0.2449
  412loPI   C1B 6589  11.152   7.936   9.743  0.3356 -0.3161  0.1438
  412loPI   C2B 6590  11.151   7.740   9.298 -0.2859  0.3235 -0.0525
  412loPI   C3B 6591  11.264   7.831   8.885  0.0881  0.0356 -0.0807
  412loPI   C4B 6592  11.346   7.972   8.367  0.1213 -0.1638 -0.2550
  413loPI    C1 6593   3.142   5.321  10.565 -0.0489  0.0866 -0.0958
  413loPI    C2 6594   3.541   5.327  10.535 -0.0419  0.0031 -0.0227
  413loPI    C3 6595   3.357   5.562  10.800 -0.0485  0.1189 -0.1291
  413loPI   PO4 6596   3.041   5.366  10.306  0.0201 -0.1973  0.1367
  413loPI   GL1 6597   2.943   5.151   9.900 -0.0782  0.4066  0.1344
  413loPI   GL2 6598   2.957   4.852   9.884 -0.1295  0.2170 -0.1244
  413loPI   C1A 6599   2.775   5.076   9.456 -0.2169  0.0200  0.1994
  413loPI   C2A 6600   2.607   5.034   9.017  0.1813 -0.0108 -0.0221
  413loPI   C3A 6601   2.604   4.850   8.654 -0.2716 -0.0454 -0.0992
  413loPI   C4A 6602   2.499   4.883   8.201  0.0981  0.0489  0.1078
  413loPI   C5A 6603   2.244   5.208   7.981 -0.3084  0.2698 -0.0799
  413loPI   C6A 6604   2.061   5.597   7.781  0.1215 -0.2109  0.0686
  413loPI   C1B 6605   3.109   4.732   9.531  0.0326 -0.2796  0.1325
  413loPI   C2B 6606   3.136   4.717   9.121 -0.3327  0.1064  0.0012
  413loPI   C3B 6607   3.081   4.740   8.735  0.2456 -0.0366  0.2958
  413loPI   C4B 6608   3.060   4.741   8.305 -0.0177  0.3624 -0.2620
  414loPI    C1 6609   5.243  11.112  10.779  0.2081 -0.0566  0.0100
  414loPI    C2 6610   4.932  11.247  10.992  0.1213  0.0224 -0.1643
  414loPI    C3 6611   5.174  10.968  11.146  0.0110  0.0175  0.0036
  414loPI   PO4 6612   5.090  11.160  10.532 -0.0569  0.3632  0.0270
  414loPI   GL1 6613   4.829  11.061  10.197  0.0619 -0.2009  0.1669
  414loPI   GL2 6614   4.965  11.382  10.027 -0.2395 -0.1976 -0.2983
  414loPI   C1A 6615   4.564  11.098   9.909  0.4074 -0.2735  0.1173
  414loPI   C2A 6616   4.652  10.955   9.477 -0.0530  0.0778 -0.0006
  414loPI   C3A 6617   4.601  10.993   9.074  0.2145 -0.0927  0.3299
  414loPI   C4A 6618   4.553  10.927   8.720 -0.0422 -0.2563  0.0333
  414loPI   C5A 6619   4.491  11.024   8.308  0.0248 -0.3090 -0.0606
  414loPI   C6A 6620   4.599  10.864   7.947  0.0519  0.0332  0.0948
  414loPI   C1B 6621   4.994  11.304   9.609 -0.0480 -0.0483  0.2040
  414loPI   C2B 6622   4.973  11.336   9.175 -0.2138  0.2015 -0.1187
  414loPI   C3B 6623   4.849  11.322   8.795  0.0017 -0.0610  0.0678
  414loPI   C4B 6624   4.887  11.425   8.319  0.1358  0.3155 -0.0168
  415loPI    C1 6625   6.189   7.222  10.643  0.1808 -0.0889  0.1886
  415loPI    C2 6626   6.333   7.358  10.991  0.0395  0.1170  0.1686
  415loPI    C3 6627   6.033   7.551  10.810  0.2749  0.1555 -0.1912
  415loPI   PO4 6628   6.254   6.934  10.677  0.2732 -0.2426 -0.3988
  415loPI   GL1 6629   6.517   6.632  10.485 -0.1787  0.0177 -0.0568
  415loPI   GL2 6630   6.243   6.649  10.237 -0.2425 -0.0070  0.2564
  415loPI   C1A 6631   6.744   6.613  10.084 -0.0514  0.1345  0.1147
  415loPI   C2A 6632   6.737   6.632   9.651 -0.1083  0.1659  0.0770
  415loPI   C3A 6633   6.760   6.738   9.221  0.2538 -0.4276 -0.3324
  415loPI   C4A 6634   6.815   6.675   8.777  0.1538 -0.1002 -0.0236
  415loPI   C5A 6635   6.978   6.729   8.424  0.5590 -0.1354 -0.0066
  415loPI   C6A 6636   7.232   6.860   8.030 -0.1851 -0.2390 -0.0681
  415loPI   C1B 6637   6.276   6.806   9.872 -0.1201 -0.3186 -0.0619
  415loPI   C2B 6638   6.191   6.780   9.464 -0.1418 -0.2469  0.1474
  415loPI   C3B 6639   6.331   6.793   8.902 -0.2507 -0.4796 -0.0964
  415loPI   C4B 6640   6.364   6.774   8.499  0.0572 -0.1033 -0.2981
  416loPI    C1 6641   6.450  13.217  10.728 -0.0818 -0.1792 -0.0810
  416loPI    C2 6642   6.326  13.105  11.091  0.1848  0.0953  0.0997
  416loPI    C3 6643   6.653  13.332  11.053  0.2875 -0.1137 -0.3281
  416loPI   PO4 6644   6.397  13.367  10.523 -0.1274 -0.2885 -0.0529
  416loPI   GL1 6645   6.166  13.562  10.018 -0.0832 -0.1145 -0.0786
  416loPI   GL2 6646   6.040  13.863   9.951  0.4003 -0.0848 -0.6264
  416loPI   C1A 6647   6.255  13.325   9.679  0.1264 -0.4370  0.2850
  416loPI   C2A 6648   6.210  13.413   9.375 -0.0819  0.1414  0.1523
  416loPI   C3A 6649   6.218  13.401   8.964  0.2566 -0.1892  0.0406
  416loPI   C4A 6650   6.326  13.425   8.560 -0.1699 -0.1273 -0.1877
  416loPI   C5A 6651   6.434  13.429   8.122 -0.1402  0.3016  0.2648
  416loPI   C6A 6652   6.297  13.714   7.838  0.5215 -0.0745 -0.0877
  416loPI   C1B 6653   6.156  13.892   9.601  0.0558  0.2080  0.3366
  416loPI   C2B 6654   6.028  13.804   9.183  0.1136 -0.0458  0.1296
  416loPI   C3B 6655   6.078  13.863   8.751  0.1719 -0.2489 -0.1129
  416loPI   C4B 6656   6.141  13.903   8.352 -0.0969  0.3544 -0.1822
  417loPI    C1 6657   9.567   9.616  10.582  0.1233 -0.0084 -0.0325
  417loPI    C2 6658   9.418   9.723  10.938 -0.0578 -0.2907 -0.0202
  417loPI    C3 6659   9.708   9.448  10.917  0.3068  0.0878 -0.0604
  417loPI   PO4 6660   9.335   9.593  10.362  0.0101  0.2218 -0.0376
  417loPI   GL1 6661   9.237   9.803  10.003 -0.0783  0.3292  0.0184
  417loPI   GL2 6662   9.403   9.663   9.851  0.1755  0.1339  0.0175
  417loPI   C1A 6663   9.160   9.968   9.561 -0.0623  0.1556  0.0291
  417loPI   C2A 6664   9.280   9.885   9.147  0.3209 -0.0037 -0.3086
  417loPI   C3A 6665   9.304   9.679   8.710 -0.0800 -0.1436 -0.0718
  417loPI   C4A 6666   9.100   9.684   8.278 -0.0935  0.0765 -0.1260
  417loPI   C5A 6667   9.006   9.798   7.938 -0.1843  0.2501  0.2523
  417loPI   C6A 6668   8.971   9.551   7.533  0.0261 -0.1316 -0.1145
  417loPI   C1B 6669   9.657   9.747   9.482  0.0530  0.0722  0.0994
  417loPI   C2B 6670   9.770   9.623   8.965  0.2015 -0.0282 -0.1449
  417loPI   C3B 6671   9.808   9.603   8.534  0.0542 -0.0553 -0.0435
  417loPI   C4B 6672  10.181   9.594   8.192  0.1124  0.1987 -0.1742
  418loPI    C1 6673   0.083   9.900  10.989  0.0543  0.0550 -0.0160
  418loPI    C2 6674   0.329   9.734  11.257  0.1383  0.0171 -0.1160
  418loPI    C3 6675   0.133  10.071  11.347  0.3893  0.1644 -0.1119
  418loPI   PO4 6676   0.149   9.768  10.820 -0.0397 -0.1930 -0.1702
  418loPI   GL1 6677   0.125   9.842  10.415  0.1685  0.1147 -0.0285
  418loPI   GL2 6678  -0.042  10.085  10.184  0.0807 -0.1027  0.1824
  418loPI   C1A 6679   0.208   9.649   9.997  0.0166 -0.1308 -0.0232
  418loPI   C2A 6680   0.170   9.623   9.545 -0.1242  0.2396  0.1576
  418loPI   C3A 6681   0.186   9.606   9.122  0.1238  0.0938 -0.1603
  418loPI   C4A 6682   0.121   9.722   8.631  0.0418 -0.1820 -0.1177
  418loPI   C5A 6683  -0.038   9.544   8.179  0.0210 -0.2343  0.0490
  418loPI   C6A 6684  -0.153   9.103   7.976  0.2864  0.0624 -0.1174
  418loPI   C1B 6685   0.142  10.108   9.770  0.1206 -0.1935 -0.1117
  418loPI   C2B 6686  -0.007  10.139   9.292 -0.1785  0.0357  0.1619
  418loPI   C3B 6687  -0.065  10.177   8.808 -0.1796  0.1552  0.1677
  418loPI   C4B 6688  -0.073  10.173   8.408  0.2334  0.2455  0.0851
  419loPI    C1 6689  14.251  10.351  10.978  0.0219  0.0561 -0.2247
  419loPI    C2 6690  14.004  10.525  11.240 -0.2195 -0.1640 -0.3017
  419loPI    C3 6691  14.189  10.184  11.335  0.3704  0.1984 -0.0930
  419loPI   PO4 6692  14.079  10.503  10.742 -0.0532  0.0052  0.2553
  419loPI   GL1 6693  14.100  10.441  10.212 -0.3048  0.0999 -0.3904
  419loPI   GL2 6694  13.876  10.191  10.272  0.2421 -0.0451  0.0319
  419loPI   C1A 6695  14.044  10.824   9.903  0.1690  0.1701  0.0659
  419loPI   C2A 6696  14.102  10.929   9.492  0.1424  0.1988  0.1293
  419loPI   C3A 6697  14.139  10.862   9.027 -0.2983  0.2401  0.0123
  419loPI   C4A 6698  14.214  10.887   8.620 -0.3852  0.1731  0.1805
  419loPI   C5A 6699  14.357  10.964   8.199 -0.0583  0.0240  0.0664
  419loPI   C6A 6700  14.552  10.799   7.781  0.0324 -0.2172 -0.2416
  419loPI   C1B 6701  13.926   9.925   9.845  0.0092 -0.1103 -0.0553
  419loPI   C2B 6702  13.913  10.004   9.446 -0.0570  0.0999  0.0534
  419loPI   C3B 6703  13.844  10.065   9.077  0.1075  0.1562 -0.1438
  419loPI   C4B 6704  13.915   9.950   8.652  0.0723  0.0878  0.0536
  420loPI    C1 6705   5.369   7.121  10.917  0.0794  0.1131 -0.4036
  420loPI    C2 6706   5.753   7.112  10.806  0.1878  0.2208 -0.0511
  420loPI    C3 6707   5.620   7.406  11.042 -0.1063  0.1675 -0.1464
  420loPI   PO4 6708   5.264   7.079  10.651 -0.1207  0.0598 -0.2885
  420loPI   GL1 6709   5.555   6.785  10.383  0.0991  0.5014  0.1132
  420loPI   GL2 6710   5.327   6.930  10.100 -0.1648 -0.2084  0.3456
  420loPI   C1A 6711   5.911   7.057  10.110 -0.0002  0.0088  0.1204
  420loPI   C2A 6712   5.717   7.022   9.717 -0.2453 -0.0249  0.0472
  420loPI   C3A 6713   5.736   6.938   9.283  0.0364  0.1587  0.0483
  420loPI   C4A 6714   5.684   6.942   8.800 -0.0475 -0.0648 -0.0059
  420loPI   C5A 6715   5.884   6.804   8.447  0.0269 -0.0807  0.1202
  420loPI   C6A 6716   6.003   6.401   8.268  0.0538  0.0000 -0.0067
  420loPI   C1B 6717   5.205   6.927   9.715  0.1684  0.1155  0.0672
  420loPI   C2B 6718   5.215   7.058   9.277  0.2107 -0.0561  0.0901
  420loPI   C3B 6719   5.235   7.036   8.876 -0.0173 -0.0044  0.3399
  420loPI   C4B 6720   5.224   6.918   8.491  0.1173 -0.4286 -0.0882
  421loPI    C1 6721   5.740   3.376  10.276  0.0825  0.1423  0.1138
  421loPI    C2 6722   6.038   3.640  10.234 -0.0246  0.2079 -0.2764
  421loPI    C3 6723   5.775   3.681  10.533  0.1597  0.3432 -0.1302
  421loPI   PO4 6724   5.636   3.363  10.089  0.0231 -0.3393  0.0409
  421loPI   GL1 6725   5.831   3.544   9.757  0.1765 -0.1943 -0.1149
  421loPI   GL2 6726   5.570   3.516   9.565 -0.4058 -0.1903  0.1110
  421loPI   C1A 6727   6.023   3.863   9.579  0.2176 -0.2033  0.0295
  421loPI   C2A 6728   6.164   3.986   9.139  0.4688  0.0214 -0.2879
  421loPI   C3A 6729   6.191   4.028   8.689  0.3931 -0.4104 -0.1589
  421loPI   C4A 6730   6.091   4.017   8.250 -0.2120 -0.2910 -0.1158
  421loPI   C5A 6731   5.942   3.920   7.909  0.0554 -0.2501  0.0211
  421loPI   C6A 6732   6.071   3.828   7.476 -0.2481 -0.0234  0.0974
  421loPI   C1B 6733   5.843   3.622   9.216 -0.1517 -0.2392 -0.1927
  421loPI   C2B 6734   5.837   3.614   8.723  0.5142 -0.1055  0.2752
  421loPI   C3B 6735   5.845   3.580   8.313 -0.0651 -0.2194 -0.0447
  421loPI   C4B 6736   5.992   3.373   7.927  0.1622  0.3834 -0.0931
  422loPI    C1 6737  11.481   2.539  10.596  0.1455 -0.2489  0.0333
  422loPI    C2 6738  11.432   2.322  10.929  0.4309  0.1710  0.3593
  422loPI    C3 6739  11.176   2.617  10.843  0.3176  0.0182  0.1673
  422loPI   PO4 6740  11.522   2.350  10.401  0.0151 -0.0696  0.0528
  422loPI   GL1 6741  11.666   2.239  10.025  0.0193  0.1427 -0.0118
  422loPI   GL2 6742  11.920   2.084   9.843 -0.0728 -0.2608 -0.1391
  422loPI   C1A 6743  11.519   2.284   9.576 -0.3090  0.1286  0.1675
  422loPI   C2A 6744  11.372   2.199   9.139 -0.0929 -0.2182  0.3280
  422loPI   C3A 6745  11.307   2.171   8.728  0.0174  0.2697  0.0505
  422loPI   C4A 6746  11.331   2.282   8.353  0.2855  0.3872  0.1797
  422loPI   C5A 6747  11.437   2.362   7.932 -0.1882 -0.2224 -0.0166
  422loPI   C6A 6748  11.329   2.444   7.567 -0.0141  0.0083  0.1236
  422loPI   C1B 6749  11.973   1.986   9.499 -0.0794  0.1171 -0.0963
  422loPI   C2B 6750  11.920   2.064   9.070  0.0746 -0.2152  0.0529
  422loPI   C3B 6751  11.840   2.016   8.598  0.1391 -0.4046  0.1286
  422loPI   C4B 6752  11.763   2.057   8.173  0.1602  0.0916  0.1271
  423loPI    C1 6753   9.718   8.349  10.764 -0.1489  0.2704 -0.2127
  423loPI    C2 6754   9.693   8.748  10.762 -0.1223  0.2736 -0.0432
  423loPI    C3 6755   9.882   8.561  11.060 -0.2567  0.1275 -0.0486
  423loPI   PO4 6756   9.897   8.281  10.538 -0.1086 -0.1878  0.2811
  423loPI   GL1 6757  10.054   7.963  10.147  0.3293  0.0029  0.0963
  423loPI   GL2 6758   9.689   8.144  10.031  0.1012  0.2447 -0.0456
  423loPI   C1A 6759  10.132   8.012   9.697  0.1763  0.0197 -0.0356
  423loPI   C2A 6760  10.196   8.089   9.314 -0.0699 -0.0365 -0.0352
  423loPI   C3A 6761  10.289   8.218   8.948 -0.0296 -0.0962 -0.1334
  423loPI   C4A 6762  10.357   8.174   8.566  0.0971  0.0352  0.1106
  423loPI   C5A 6763  10.177   8.213   8.204 -0.1573 -0.0369  0.1980
  423loPI   C6A 6764  10.014   7.940   7.832 -0.0164 -0.2042 -0.3875
  423loPI   C1B 6765   9.706   8.237   9.599 -0.2272 -0.0865  0.3512
  423loPI   C2B 6766   9.782   8.304   9.095  0.1119  0.1487 -0.2797
  423loPI   C3B 6767   9.830   8.250   8.701 -0.0927 -0.1298  0.1887
  423loPI   C4B 6768   9.719   8.266   8.222  0.0540  0.0446 -0.0263
  424loPI    C1 6769  10.569   7.730  10.436 -0.0945  0.1881  0.3343
  424loPI    C2 6770  10.494   7.472  10.732  0.0304  0.1747  0.3547
  424loPI    C3 6771  10.820   7.703  10.746  0.0679  0.1322  0.1995
  424loPI   PO4 6772  10.486   7.778  10.207  0.0822 -0.0394 -0.0632
  424loPI   GL1 6773  10.690   8.003   9.957  0.0765 -0.3017  0.1037
  424loPI   GL2 6774  10.497   8.324   9.997  0.0215  0.0211  0.0348
  424loPI   C1A 6775  10.689   7.952   9.557  0.3413 -0.2878  0.1643
  424loPI   C2A 6776  10.842   7.999   9.071  0.0830 -0.0843  0.1829
  424loPI   C3A 6777  10.824   8.082   8.638 -0.2402  0.4077  0.2278
  424loPI   C4A 6778  10.732   7.968   8.272 -0.1553  0.0600 -0.0314
  424loPI   C5A 6779  10.591   7.780   7.945 -0.1903  0.1080  0.0542
  424loPI   C6A 6780  10.181   7.468   7.923  0.1883 -0.0278  0.0802
  424loPI   C1B 6781  10.519   8.506   9.536  0.1502 -0.2812  0.0855
  424loPI   C2B 6782  10.608   8.648   9.147 -0.2609  0.0198 -0.0319
  424loPI   C3B 6783  10.696   8.601   8.697 -0.1599 -0.1615  0.1259
  424loPI   C4B 6784  10.686   8.523   8.313  0.0365  0.2172  0.1419
  425loPI    C1 6785  16.053   0.491  10.108  0.0098 -0.1299  0.0753
  425loPI    C2 6786  15.902   0.498  10.479  0.0199  0.0302  0.0773
  425loPI    C3 6787  16.091   0.171  10.345 -0.1985 -0.1185  0.1260
  425loPI   PO4 6788  15.874   0.564   9.948  0.1415 -0.1776  0.0292
  425loPI   GL1 6789  15.833   0.398   9.577 -0.1545 -0.0704  0.2328
  425loPI   GL2 6790  15.699   0.631   9.309  0.0676 -0.0874 -0.0327
  425loPI   C1A 6791  15.709   0.165   9.222  0.0773 -0.1543 -0.1455
  425loPI   C2A 6792  15.855   0.028   8.796 -0.1133 -0.2219  0.0264
  425loPI   C3A 6793  15.832   0.031   8.390 -0.0572 -0.1302  0.0308
  425loPI   C4A 6794  15.986   0.033   8.027  0.0613  0.0917 -0.1750
  425loPI   C5A 6795  16.053  -0.154   7.609  0.1583  0.1945 -0.0064
  425loPI   C6A 6796  16.387  -0.297   7.309 -0.0373 -0.0140  0.1476
  425loPI   C1B 6797  15.793   0.617   8.904 -0.0760 -0.0310 -0.2409
  425loPI   C2B 6798  15.673   0.464   8.501 -0.0925  0.2311  0.1982
  425loPI   C3B 6799  15.604   0.397   8.166  0.1297 -0.1962 -0.0674
  425loPI   C4B 6800  15.300   0.492   7.968  0.1915  0.0959  0.0152
  426loPI    C1 6801   9.914   2.373  10.031 -0.0996  0.1778 -0.0433
  426loPI    C2 6802   9.634   2.659  10.034 -0.2406  0.0402  0.1459
  426loPI    C3 6803   9.880   2.616  10.347 -0.0802  0.0880  0.0282
  426loPI   PO4 6804   9.826   2.179   9.901  0.0807 -0.0289 -0.0302
  426loPI   GL1 6805   9.946   2.011   9.640 -0.1932  0.1533 -0.0093
  426loPI   GL2 6806   9.634   2.107   9.427  0.1689  0.2974 -0.1931
  426loPI   C1A 6807  10.080   1.661   9.424  0.1914 -0.1740 -0.0385
  426loPI   C2A 6808  10.038   1.529   9.054  0.3195 -0.0295 -0.1192
  426loPI   C3A 6809   9.936   1.543   8.702 -0.1697  0.1613  0.0273
  426loPI   C4A 6810   9.577   1.646   8.454  0.0968 -0.3822 -0.1694
  426loPI   C5A 6811   9.472   1.614   8.089 -0.1886  0.0579  0.1069
  426loPI   C6A 6812   9.172   1.384   7.681  0.1439  0.1438 -0.3318
  426loPI   C1B 6813   9.995   2.099   9.141  0.2429  0.0306 -0.0999
  426loPI   C2B 6814  10.020   1.996   8.599 -0.3478  0.1108  0.1780
  426loPI   C3B 6815  10.013   2.082   8.186 -0.2121  0.1078 -0.0593
  426loPI   C4B 6816   9.938   1.926   7.796 -0.0235  0.3731  0.5160
  427loPI    C1 6817  11.635   1.862  10.383  0.2004 -0.1576  0.3624
  427loPI    C2 6818  11.348   1.591  10.449 -0.2136  0.1210 -0.2064
  427loPI    C3 6819  11.390   1.903  10.697 -0.1583 -0.1123  0.0835
  427loPI   PO4 6820  11.862   1.761  10.437  0.0638 -0.0718  0.0792
  427loPI   GL1 6821  12.106   1.675  10.096  0.1431  0.2358 -0.0235
  427loPI   GL2 6822  12.455   1.557  10.027 -0.0426 -0.0837 -0.0842
  427loPI   C1A 6823  12.062   1.506   9.708  0.0230 -0.0608 -0.2909
  427loPI   C2A 6824  12.051   1.495   9.318 -0.1257 -0.0254  0.2754
  427loPI   C3A 6825  12.080   1.482   8.921  0.3736  0.0891  0.0589
  427loPI   C4A 6826  11.913   1.479   8.567 -0.2053 -0.3068 -0.1256
  427loPI   C5A 6827  11.819   1.572   8.201  0.0564  0.0512 -0.2562
  427loPI   C6A 6828  12.032   1.750   7.867  0.0896 -0.1519 -0.0677
  427loPI   C1B 6829  12.546   1.423   9.616 -0.4214  0.0476 -0.1563
  427loPI   C2B 6830  12.605   1.404   9.150 -0.0856 -0.0743 -0.0644
  427loPI   C3B 6831  12.561   1.359   8.748  0.0179  0.1137  0.3176
  427loPI   C4B 6832  12.378   1.399   8.293  0.0649  0.1708 -0.3200
  428loPI    C1 6833  11.608  13.406  10.970  0.0452  0.0207  0.1656
  428loPI    C2 6834  11.634  13.055  11.160  0.0482 -0.1185 -0.0880
  428loPI    C3 6835  11.493  13.377  11.352  0.0999 -0.2437  0.1634
  428loPI   PO4 6836  11.495  13.263  10.710 -0.1609 -0.0723  0.4402
  428loPI   GL1 6837  11.666  13.294  10.274  0.0801  0.1930 -0.0497
  428loPI   GL2 6838  11.788  13.505  10.177 -0.1060  0.0631 -0.1417
  428loPI   C1A 6839  11.525  13.179   9.903  0.0023  0.1872  0.0483
  428loPI   C2A 6840  11.634  13.106   9.501  0.1563 -0.0179 -0.1136
  428loPI   C3A 6841  11.583  13.070   9.026 -0.1542  0.1348  0.3141
  428loPI   C4A 6842  11.583  12.892   8.515 -0.1106 -0.1822 -0.0585
  428loPI   C5A 6843  11.622  12.799   8.154 -0.0641  0.0691 -0.2190
  428loPI   C6A 6844  11.500  12.438   7.984 -0.2316  0.2066  0.0939
  428loPI   C1B 6845  12.060  13.542   9.815 -0.2825  0.0308 -0.0387
  428loPI   C2B 6846  12.137  13.462   9.430  0.1848  0.0129 -0.2952
  428loPI   C3B 6847  11.979  13.430   9.018  0.0696  0.0834 -0.1767
  428loPI   C4B 6848  11.943  13.218   8.686 -0.0262 -0.1062  0.2315
  429loPI    C1 6849   2.596   3.188  10.284 -0.0372 -0.0999 -0.0163
  429loPI    C2 6850   2.389   3.271  10.616  0.0166 -0.1023  0.0180
  429loPI    C3 6851   2.764   3.135  10.643  0.0974  0.1038 -0.0479
  429loPI   PO4 6852   2.405   3.377  10.096 -0.0727  0.1550  0.2253
  429loPI   GL1 6853   2.259   3.712   9.783  0.3662 -0.1667  0.1946
  429loPI   GL2 6854   1.803   3.799   9.796  0.1464  0.0218  0.1646
  429loPI   C1A 6855   2.396   3.819   9.376  0.0852  0.2072  0.0474
  429loPI   C2A 6856   2.728   3.910   9.097  0.2517 -0.0205  0.2135
  429loPI   C3A 6857   2.721   3.839   8.663 -0.1273  0.2661 -0.1338
  429loPI   C4A 6858   2.581   3.782   8.298 -0.1702  0.1570  0.1120
  429loPI   C5A 6859   2.535   4.089   7.950  0.0236  0.0290  0.2323
  429loPI   C6A 6860   2.596   4.235   7.581  0.1403 -0.1782 -0.0921
  429loPI   C1B 6861   1.440   3.657   9.485  0.0409 -0.1817 -0.0081
  429loPI   C2B 6862   1.231   3.895   9.109 -0.0125 -0.2405 -0.1600
  429loPI   C3B 6863   0.952   4.101   8.822 -0.1586  0.0060  0.2348
  429loPI   C4B 6864   0.991   4.417   8.548  0.0813 -0.1180 -0.3436
  430loPI    C1 6865  14.040  16.879  10.643  0.0768  0.1051 -0.0842
  430loPI    C2 6866  14.041  17.197  10.885  0.0803  0.0115  0.0402
  430loPI    C3 6867  13.982  16.832  11.036  0.0534 -0.0449 -0.1050
  430loPI   PO4 6868  13.769  16.960  10.376  0.1922 -0.1697 -0.2105
  430loPI   GL1 6869  13.560  16.855   9.924  0.0632  0.1259  0.2749
  430loPI   GL2 6870  13.517  17.048   9.707 -0.3900  0.4919 -0.3107
  430loPI   C1A 6871  13.473  16.570   9.581  0.1046 -0.0015  0.0015
  430loPI   C2A 6872  13.377  16.473   9.212 -0.0500 -0.0866  0.2444
  430loPI   C3A 6873  13.445  16.404   8.695 -0.1680  0.3163 -0.0365
  430loPI   C4A 6874  13.349  16.318   8.304  0.0928 -0.1210  0.0283
  430loPI   C5A 6875  13.652  16.292   7.973 -0.3442 -0.1573  0.2139
  430loPI   C6A 6876  13.878  16.271   7.641 -0.0731 -0.0073  0.0559
  430loPI   C1B 6877  13.322  16.979   9.324 -0.0560  0.0090  0.1793
  430loPI   C2B 6878  13.214  16.830   8.863  0.2625  0.0599  0.0141
  430loPI   C3B 6879  13.238  16.872   8.449  0.0875 -0.1873  0.0919
  430loPI   C4B 6880  13.333  16.870   8.076 -0.0712  0.3555  0.3050
  431loPI    C1 6881   5.290   4.847  10.620 -0.0755 -0.2421  0.0090
  431loPI    C2 6882   5.333   4.548  10.882 -0.1571 -0.1195  0.1639
  431loPI    C3 6883   5.182   4.899  11.001  0.1421  0.0575  0.0335
  431loPI   PO4 6884   5.117   4.656  10.334  0.1264 -0.2169  0.1310
  431loPI   GL1 6885   5.246   4.650   9.963 -0.1890  0.1764 -0.2824
  431loPI   GL2 6886   5.350   4.898   9.857 -0.3354 -0.1019 -0.0199
  431loPI   C1A 6887   5.385   4.554   9.530  0.1819  0.2590  0.0436
  431loPI   C2A 6888   5.524   4.562   9.001 -0.2696 -0.1757  0.3153
  431loPI   C3A 6889   5.457   4.586   8.496  0.1117 -0.1160 -0.2449
  431loPI   C4A 6890   5.512   4.533   8.146  0.3011 -0.0060  0.3729
  431loPI   C5A 6891   5.662   4.774   7.787 -0.2827 -0.1983 -0.2736
  431loPI   C6A 6892   6.063   4.749   7.548  0.3950 -0.0288  0.1608
  431loPI   C1B 6893   5.359   5.041   9.410 -0.2582 -0.0837 -0.1775
  431loPI   C2B 6894   5.279   5.086   9.035 -0.0062 -0.0638 -0.0606
  431loPI   C3B 6895   5.345   5.099   8.549 -0.4229 -0.5548  0.0651
  431loPI   C4B 6896   5.419   5.076   8.100 -0.0693  0.0011  0.0413
  432loPI    C1 6897  10.180   6.276  10.959  0.0876 -0.1297 -0.0688
  432loPI    C2 6898  10.480   6.504  11.095  0.0418 -0.0426 -0.1131
  432loPI    C3 6899  10.100   6.622  11.143  0.0094 -0.2010  0.0329
  432loPI   PO4 6900  10.366   6.153  10.663  0.0174 -0.2865  0.2015
  432loPI   GL1 6901  10.423   5.875  10.372 -0.1411  0.0023  0.1669
  432loPI   GL2 6902  10.720   6.072  10.261  0.3952  0.0760 -0.1047
  432loPI   C1A 6903  10.356   5.681   9.992  0.0393 -0.2148 -0.0690
  432loPI   C2A 6904  10.451   5.702   9.630  0.1851  0.3988  0.2921
  432loPI   C3A 6905  10.462   5.655   9.269  0.2837 -0.1055  0.0033
  432loPI   C4A 6906  10.453   5.636   8.814  0.1721  0.3583  0.3943
  432loPI   C5A 6907  10.368   5.849   8.410  0.5003 -0.1004 -0.1736
  432loPI   C6A 6908   9.984   5.902   8.126  0.1169 -0.1221 -0.2671
  432loPI   C1B 6909  10.616   6.097   9.961 -0.3549  0.1021 -0.0242
  432loPI   C2B 6910  10.734   6.107   9.551 -0.4375 -0.1632 -0.1198
  432loPI   C3B 6911  10.809   6.016   9.136 -0.2404 -0.0016  0.2385
  432loPI   C4B 6912  10.756   5.942   8.669 -0.0429 -0.1140  0.3300
  433loPI    C1 6913   4.376  18.189  10.096 -0.0326 -0.2766  0.0417
  433loPI    C2 6914   4.197  18.064  10.431 -0.1200 -0.1017  0.0613
  433loPI    C3 6915   4.562  18.225  10.448 -0.1055 -0.1356  0.0668
  433loPI   PO4 6916   4.210  18.070   9.887 -0.1030  0.1105 -0.0425
  433loPI   GL1 6917   4.199  17.947   9.505 -0.2772 -0.0402  0.0523
  433loPI   GL2 6918   4.144  17.611   9.617  0.0345  0.0657 -0.1947
  433loPI   C1A 6919   4.033  17.788   9.107  0.4239  0.2071 -0.3256
  433loPI   C2A 6920   4.041  17.738   8.608  0.1673 -0.2769  0.1116
  433loPI   C3A 6921   4.234  17.774   8.157  0.1125 -0.0747 -0.4062
  433loPI   C4A 6922   4.542  17.593   7.949  0.1951  0.1395 -0.1064
  433loPI   C5A 6923   4.471  17.136   7.730  0.1446  0.0662  0.0513
  433loPI   C6A 6924   4.611  16.661   7.756  0.0116 -0.1167  0.1412
  433loPI   C1B 6925   4.193  17.271   9.328 -0.2645  0.1572 -0.1279
  433loPI   C2B 6926   4.140  17.207   8.835  0.1315  0.1707  0.0487
  433loPI   C3B 6927   4.253  17.298   8.438  0.0277  0.0040  0.1195
  433loPI   C4B 6928   4.067  17.296   8.043  0.0516 -0.0119  0.2274
  434loPI    C1 6929  11.580  17.106  11.064  0.3508 -0.0220 -0.0512
  434loPI    C2 6930  11.647  17.306  11.404 -0.0183  0.0629 -0.0244
  434loPI    C3 6931  11.569  16.914  11.415  0.1291  0.0330 -0.0265
  434loPI   PO4 6932  11.635  17.216  10.887 -0.0878  0.3179  0.0691
  434loPI   GL1 6933  11.820  17.074  10.460 -0.2076 -0.1892  0.0077
  434loPI   GL2 6934  11.510  17.106  10.385 -0.2397 -0.0064  0.0480
  434loPI   C1A 6935  12.046  16.906   9.947  0.2033 -0.0300 -0.2823
  434loPI   C2A 6936  11.952  16.773   9.583 -0.1506  0.2372  0.0808
  434loPI   C3A 6937  11.997  16.822   9.080  0.1292 -0.1251 -0.2180
  434loPI   C4A 6938  11.898  16.754   8.652 -0.1516  0.0841 -0.2672
  434loPI   C5A 6939  11.749  16.720   8.236 -0.1046 -0.0282  0.2022
  434loPI   C6A 6940  11.592  16.879   7.833  0.2292  0.0034 -0.1136
  434loPI   C1B 6941  11.531  16.967   9.985  0.1431  0.0227 -0.1797
  434loPI   C2B 6942  11.339  16.875   9.645  0.0783  0.0934 -0.0696
  434loPI   C3B 6943  11.334  16.796   9.212  0.1190 -0.0646 -0.1082
  434loPI   C4B 6944  11.490  16.871   8.924 -0.4560 -0.4682 -0.4690
  435loPI    C1 6945  11.366  10.042  10.845  0.0772  0.0972 -0.0593
  435loPI    C2 6946  11.248  10.230  11.178 -0.0991 -0.1479  0.0194
  435loPI    C3 6947  11.491   9.914  11.202 -0.1691 -0.2100 -0.0790
  435loPI   PO4 6948  11.119  10.063  10.706  0.0619  0.1830  0.1978
  435loPI   GL1 6949  11.044   9.976  10.220  0.1482 -0.1371  0.3165
  435loPI   GL2 6950  10.929   9.822   9.992  0.4562  0.2725  0.0707
  435loPI   C1A 6951  10.933  10.350   9.922 -0.0308 -0.0840 -0.0847
  435loPI   C2A 6952  10.896  10.364   9.479 -0.0339 -0.2927 -0.1045
  435loPI   C3A 6953  10.983  10.354   9.110  0.1110 -0.0896  0.2912
  435loPI   C4A 6954  10.867  10.348   8.679 -0.1066 -0.2801  0.0457
  435loPI   C5A 6955  10.792  10.356   8.235  0.0862  0.3933  0.2412
  435loPI   C6A 6956  10.428  10.588   7.949 -0.3147 -0.0155 -0.0313
  435loPI   C1B 6957  11.048   9.873   9.566  0.1784  0.0610  0.2259
  435loPI   C2B 6958  11.156   9.811   9.129  0.0671 -0.2699 -0.1099
  435loPI   C3B 6959  11.194   9.835   8.787 -0.0358  0.0820 -0.2625
  435loPI   C4B 6960  11.182   9.937   8.461 -0.1927 -0.5707  0.0878
  436loPI    C1 6961  10.068   3.623  10.858  0.1121 -0.0521  0.0851
  436loPI    C2 6962   9.908   3.986  10.808  0.0617 -0.1063 -0.1592
  436loPI    C3 6963  10.146   3.914  11.121 -0.1661  0.0533  0.0548
  436loPI   PO4 6964  10.050   3.566  10.611 -0.1830 -0.0912 -0.1949
  436loPI   GL1 6965   9.712   3.742  10.323 -0.2107  0.2556 -0.0803
  436loPI   GL2 6966   9.841   3.919  10.028 -0.1524 -0.1636 -0.0517
  436loPI   C1A 6967   9.555   3.538   9.981 -0.0415 -0.1642 -0.0638
  436loPI   C2A 6968   9.550   3.436   9.554 -0.2690  0.0848  0.2068
  436loPI   C3A 6969   9.542   3.584   9.165 -0.0298 -0.2284 -0.2005
  436loPI   C4A 6970   9.547   3.570   8.618 -0.1520 -0.2092 -0.0787
  436loPI   C5A 6971   9.468   3.536   8.246 -0.0781 -0.1934  0.1227
  436loPI   C6A 6972   9.117   3.410   7.993 -0.1720 -0.3004 -0.0882
  436loPI   C1B 6973   9.943   4.003   9.552 -0.3078 -0.1054 -0.1158
  436loPI   C2B 6974   9.875   3.937   9.169  0.1174 -0.1037 -0.1342
  436loPI   C3B 6975   9.863   4.008   8.685 -0.1200 -0.0849  0.1157
  436loPI   C4B 6976   9.902   4.010   8.276  0.1113 -0.0660 -0.4091
  437loPI    C1 6977   9.955   6.661  10.691  0.0651  0.1005  0.0364
  437loPI    C2 6978  10.069   7.033  10.784 -0.0247  0.1086  0.1155
  437loPI    C3 6979   9.705   6.904  10.888 -0.0114  0.0143  0.0460
  437loPI   PO4 6980   9.954   6.682  10.394  0.1537 -0.0301  0.3884
  437loPI   GL1 6981  10.170   6.628  10.064  0.0940 -0.0439  0.3404
  437loPI   GL2 6982  10.193   6.324  10.168  0.3011  0.2377 -0.3119
  437loPI   C1A 6983  10.047   6.717   9.689  0.0169 -0.3098  0.1284
  437loPI   C2A 6984  10.097   6.673   9.232  0.1786 -0.1074  0.2956
  437loPI   C3A 6985  10.178   6.750   8.729  0.0488  0.1315  0.0414
  437loPI   C4A 6986  10.146   6.843   8.367 -0.4359 -0.2388  0.1836
  437loPI   C5A 6987  10.266   6.979   7.902  0.1794  0.1820  0.1469
  437loPI   C6A 6988  10.473   6.666   7.663 -0.0132  0.1121 -0.0048
  437loPI   C1B 6989  10.194   6.194   9.748 -0.0225  0.0999  0.1796
  437loPI   C2B 6990  10.188   6.162   9.332  0.0077  0.0158  0.3384
  437loPI   C3B 6991  10.291   6.179   8.863  0.2874 -0.2849 -0.2789
  437loPI   C4B 6992  10.471   6.364   8.485  0.3254 -0.2223 -0.0454
  438loPI    C1 6993  16.894  11.565  10.648  0.1830 -0.0084  0.0325
  438loPI    C2 6994  16.526  11.644  10.785  0.1259 -0.0461 -0.0971
  438loPI    C3 6995  16.846  11.796  10.972  0.0458 -0.0258  0.0252
  438loPI   PO4 6996  16.840  11.534  10.438  0.2427 -0.1526 -0.2410
  438loPI   GL1 6997  16.942  11.186  10.164 -0.0923 -0.1370 -0.0027
  438loPI   GL2 6998  16.892  10.804  10.150 -0.1807  0.0162  0.0276
  438loPI   C1A 6999  16.971  11.123   9.694  0.1562  0.1771  0.3575
  438loPI   C2A 7000  16.976  11.054   9.262  0.0328  0.0220 -0.2275
  438loPI   C3A 7001  16.928  11.022   8.863 -0.5540  0.1880  0.2350
  438loPI   C4A 7002  16.848  11.077   8.443 -0.1089  0.3702  0.4132
  438loPI   C5A 7003  16.704  11.012   7.998  0.0884 -0.1910 -0.0845
  438loPI   C6A 7004  16.268  10.842   7.857 -0.0450 -0.2289  0.2595
  438loPI   C1B 7005  17.059  10.650   9.779  0.2460 -0.0061 -0.4850
  438loPI   C2B 7006  17.037  10.555   9.309  0.2178 -0.4932 -0.0700
  438loPI   C3B 7007  17.069  10.465   8.853  0.1604  0.0662  0.2106
  438loPI   C4B 7008  17.048  10.378   8.371  0.4087  0.3402 -0.3682
  439loPI    C1 7009  16.773   8.840  10.552 -0.1224 -0.2348 -0.0672
  439loPI    C2 7010  16.795   9.131  10.827  0.1185 -0.1279 -0.1967
  439loPI    C3 7011  16.557   8.815  10.888  0.1199 -0.0734  0.1043
  439loPI   PO4 7012  16.883   8.966  10.322 -0.0691 -0.0252  0.3454
  439loPI   GL1 7013  17.125   8.994   9.875  0.4212  0.0386  0.3909
  439loPI   GL2 7014  17.421   9.029   9.791 -0.1731  0.2025 -0.1882
  439loPI   C1A 7015  16.974   9.231   9.485  0.1743 -0.0322 -0.0309
  439loPI   C2A 7016  16.964   9.191   9.095  0.1425 -0.0923  0.2750
  439loPI   C3A 7017  16.912   9.148   8.627 -0.1025  0.1369 -0.3072
  439loPI   C4A 7018  17.045   9.408   8.281 -0.0817  0.0180 -0.0291
  439loPI   C5A 7019  17.174   9.422   7.850  0.2565 -0.0041  0.0731
  439loPI   C6A 7020  17.232   9.330   7.436 -0.0438  0.2791  0.2098
  439loPI   C1B 7021  17.418   9.072   9.355 -0.1615 -0.0163 -0.0216
  439loPI   C2B 7022  17.436   9.044   8.935 -0.1973 -0.1386  0.1452
  439loPI   C3B 7023  17.534   9.033   8.538 -0.0657 -0.5264  0.0142
  439loPI   C4B 7024  17.355   8.998   8.146  0.0055  0.2108  0.1424
  440loPI    C1 7025   6.341  12.402  10.459 -0.1775  0.3880 -0.0666
  440loPI    C2 7026   6.191  12.690  10.692  0.1884  0.3898  0.1756
  440loPI    C3 7027   6.354  12.364  10.857 -0.1625  0.0683 -0.0945
  440loPI   PO4 7028   6.124  12.337  10.339 -0.0867 -0.0124  0.5614
  440loPI   GL1 7029   5.781  12.447  10.077 -0.2806  0.3438 -0.1758
  440loPI   GL2 7030   5.640  12.282   9.870  0.2833  0.1844 -0.0964
  440loPI   C1A 7031   6.025  12.484   9.694  0.0727  0.0821 -0.1841
  440loPI   C2A 7032   6.118  12.537   9.314  0.0438 -0.2352 -0.0107
  440loPI   C3A 7033   6.059  12.562   8.888 -0.2179 -0.0931  0.1773
  440loPI   C4A 7034   6.077  12.467   8.469 -0.1486  0.3876  0.0294
  440loPI   C5A 7035   6.046  12.512   8.019  0.1429  0.2843  0.0029
  440loPI   C6A 7036   5.942  12.371   7.657  0.1549  0.0052  0.2560
  440loPI   C1B 7037   5.683  12.182   9.486  0.1642  0.1226  0.1507
  440loPI   C2B 7038   5.712  12.179   9.025  0.2282  0.1756 -0.0474
  440loPI   C3B 7039   5.675  12.140   8.598 -0.0357 -0.0731 -0.1302
  440loPI   C4B 7040   5.708  12.142   8.165 -0.1357  0.3680  0.1624
  441loPI    C1 7041   6.315  18.433  10.255 -0.0797 -0.1914 -0.0464
  441loPI    C2 7042   6.164  18.784  10.376  0.0099 -0.0802 -0.2520
  441loPI    C3 7043   6.027  18.442  10.533 -0.0267  0.0493  0.0032
  441loPI   PO4 7044   6.245  18.446  10.008 -0.0753  0.0786 -0.3235
  441loPI   GL1 7045   5.985  18.443   9.648 -0.1197 -0.0155 -0.0094
  441loPI   GL2 7046   5.653  18.589   9.512 -0.3083 -0.0479  0.1681
  441loPI   C1A 7047   6.078  18.629   9.227 -0.2374  0.3038  0.2092
  441loPI   C2A 7048   6.188  18.558   8.887  0.0181  0.2883 -0.2118
  441loPI   C3A 7049   6.242  18.653   8.477 -0.0141 -0.0612 -0.0552
  441loPI   C4A 7050   6.222  18.662   7.968  0.0033 -0.1054  0.0825
  441loPI   C5A 7051   6.041  18.664   7.613  0.1455 -0.3559 -0.2178
  441loPI   C6A 7052   6.163  18.981   7.250  0.0065  0.3521 -0.0525
  441loPI   C1B 7053   5.564  18.749   9.079 -0.1350 -0.1823  0.0411
  441loPI   C2B 7054   5.772  18.790   8.626 -0.3298 -0.2683  0.1608
  441loPI   C3B 7055   5.740  18.667   8.268  0.3416 -0.1704  0.1199
  441loPI   C4B 7056   5.571  18.562   7.839 -0.0377 -0.0241  0.2328
  442loPI    C1 7057   6.918   7.696  10.810  0.1973  0.3390  0.1443
  442loPI    C2 7058   6.855   7.451  11.120  0.1272 -0.1168 -0.2205
  442loPI    C3 7059   7.224   7.494  10.971  0.1790  0.1829 -0.0145
  442loPI   PO4 7060   6.591   7.611  10.663 -0.0093  0.1697  0.0325
  442loPI   GL1 7061   6.560   7.391  10.323  0.4705 -0.1871 -0.3534
  442loPI   GL2 7062   6.441   7.084  10.271 -0.3186 -0.0650 -0.2545
  442loPI   C1A 7063   6.888   7.561  10.041  0.3772 -0.3911 -0.1484
  442loPI   C2A 7064   7.066   7.581   9.591  0.1054  0.1370  0.0298
  442loPI   C3A 7065   6.974   7.569   9.271 -0.0935 -0.2577 -0.2011
  442loPI   C4A 7066   7.061   7.517   8.866  0.0811 -0.1204  0.1752
  442loPI   C5A 7067   6.932   7.487   8.412 -0.2052  0.1311 -0.0411
  442loPI   C6A 7068   6.854   7.271   8.191  0.0343  0.0560 -0.1218
  442loPI   C1B 7069   6.619   7.168   9.820  0.3229  0.0604 -0.2465
  442loPI   C2B 7070   6.562   7.124   9.465  0.0299  0.2170  0.0372
  442loPI   C3B 7071   6.662   7.269   9.068  0.0547  0.1221 -0.1371
  442loPI   C4B 7072   6.705   7.118   8.667  0.0537 -0.1047  0.3003
  443loPI    C1 7073   3.779  12.818  10.687 -0.1306  0.0982 -0.0236
  443loPI    C2 7074   4.121  12.974  10.824 -0.0644 -0.0994  0.0402
  443loPI    C3 7075   3.837  12.858  11.081 -0.1698  0.0391 -0.0117
  443loPI   PO4 7076   3.784  12.764  10.395 -0.1915  0.0679  0.1990
  443loPI   GL1 7077   3.966  12.654  10.076  0.2501 -0.1086  0.1737
  443loPI   GL2 7078   3.872  12.990   9.859  0.1774 -0.0380 -0.1833
  443loPI   C1A 7079   4.108  12.541   9.581  0.0592 -0.0048  0.0573
  443loPI   C2A 7080   4.171  12.532   9.120  0.1059  0.2367 -0.0399
  443loPI   C3A 7081   4.144  12.541   8.691  0.2002  0.0103 -0.0100
  443loPI   C4A 7082   4.002  12.601   8.380 -0.0717 -0.0382  0.0518
  443loPI   C5A 7083   3.932  12.565   8.002 -0.1631 -0.2511  0.4545
  443loPI   C6A 7084   4.209  12.407   7.620  0.3744 -0.1941 -0.1946
  443loPI   C1B 7085   3.881  12.972   9.458  0.0309 -0.3547 -0.0419
  443loPI   C2B 7086   3.943  12.986   9.016 -0.3777 -0.2584 -0.1116
  443loPI   C3B 7087   3.931  13.037   8.582  0.2674  0.1703  0.4006
  443loPI   C4B 7088   3.841  13.009   8.166 -0.1781 -0.0891 -0.1695
  444loPI    C1 7089   9.686  14.273  10.728  0.1968 -0.0014  0.0097
  444loPI    C2 7090  10.009  14.413  10.918  0.2314 -0.0316 -0.0268
  444loPI    C3 7091   9.663  14.376  11.114  0.2762 -0.0972  0.0405
  444loPI   PO4 7092   9.656  14.481  10.537  0.0028  0.2182  0.1649
  444loPI   GL1 7093   9.587  14.435  10.165  0.0072 -0.0703  0.0092
  444loPI   GL2 7094   9.376  14.169   9.924  0.1013 -0.2563  0.1614
  444loPI   C1A 7095   9.682  14.566   9.779  0.3090 -0.1965  0.1460
  444loPI   C2A 7096   9.620  14.562   9.410 -0.3511 -0.1441 -0.1117
  444loPI   C3A 7097   9.744  14.503   9.007  0.2083  0.2886  0.0428
  444loPI   C4A 7098   9.903  14.331   8.649  0.0487 -0.1059  0.1578
  444loPI   C5A 7099  10.181  14.407   8.251  0.2215  0.0449  0.0497
  444loPI   C6A 7100  10.544  14.253   7.937 -0.2015  0.0705 -0.4704
  444loPI   C1B 7101   9.323  14.163   9.463 -0.1290 -0.0323  0.1843
  444loPI   C2B 7102   9.316  14.096   8.966 -0.0007 -0.1947  0.1062
  444loPI   C3B 7103   9.366  14.000   8.627 -0.0362  0.1474 -0.1415
  444loPI   C4B 7104   9.233  13.771   8.281 -0.3562 -0.0308 -0.0757
  445loPI    C1 7105  12.566   6.878  10.975 -0.2103  0.0214  0.0402
  445loPI    C2 7106  12.831   7.152  11.098 -0.2515  0.0656  0.0308
  445loPI    C3 7107  12.449   7.176  11.215 -0.2697  0.0506 -0.0250
  445loPI   PO4 7108  12.722   6.784  10.706  0.5110 -0.0598 -0.1251
  445loPI   GL1 7109  12.838   6.742  10.387  0.3428  0.1509  0.0993
  445loPI   GL2 7110  12.944   6.545  10.224 -0.2483 -0.1402 -0.0733
  445loPI   C1A 7111  12.960   7.020  10.023  0.0170  0.2177 -0.0441
  445loPI   C2A 7112  12.926   6.960   9.616  0.2837 -0.4301  0.0972
  445loPI   C3A 7113  12.917   6.960   9.162 -0.1159  0.1447 -0.1513
  445loPI   C4A 7114  12.774   6.903   8.784  0.0148  0.2029 -0.2125
  445loPI   C5A 7115  12.879   7.063   8.372 -0.0337  0.2340  0.2834
  445loPI   C6A 7116  12.694   7.511   8.249  0.0610  0.0729 -0.1646
  445loPI   C1B 7117  13.011   6.488   9.778 -0.2148  0.2828  0.2439
  445loPI   C2B 7118  13.035   6.471   9.398 -0.3846 -0.4707 -0.1103
  445loPI   C3B 7119  13.039   6.384   8.962 -0.1002  0.0002 -0.1971
  445loPI   C4B 7120  12.927   6.501   8.599  0.1655  0.1216 -0.0663
  446loPI    C1 7121  11.763  14.778  10.981 -0.2884 -0.1031 -0.1035
  446loPI    C2 7122  11.824  14.407  11.116  0.0703  0.0633  0.2116
  446loPI    C3 7123  11.813  14.714  11.372  0.4471  0.3499 -0.1042
  446loPI   PO4 7124  11.548  14.776  10.748  0.1051  0.4684 -0.0423
  446loPI   GL1 7125  11.562  14.627  10.388 -0.0606  0.2983 -0.1083
  446loPI   GL2 7126  11.266  14.619  10.267  0.1553  0.2554 -0.3842
  446loPI   C1A 7127  11.686  14.644   9.891 -0.2510 -0.3297 -0.0150
  446loPI   C2A 7128  11.631  14.587   9.418  0.1558 -0.2827 -0.1572
  446loPI   C3A 7129  11.523  14.493   9.052 -0.0335  0.2092 -0.3100
  446loPI   C4A 7130  11.670  14.358   8.564  0.0835 -0.1145 -0.0565
  446loPI   C5A 7131  11.973  14.231   8.105  0.0662 -0.1313  0.1529
  446loPI   C6A 7132  12.199  14.278   7.676 -0.2284 -0.0501 -0.1891
  446loPI   C1B 7133  11.222  14.696   9.828  0.4559  0.0808  0.0471
  446loPI   C2B 7134  11.135  14.654   9.468 -0.0049  0.1379 -0.0293
  446loPI   C3B 7135  11.051  14.656   9.007 -0.2093 -0.0360  0.0735
  446loPI   C4B 7136  11.170  14.514   8.542  0.2275  0.1600  0.2535
  447loPI    C1 7137   1.354   5.154  10.294  0.0300 -0.0833  0.2286
  447loPI    C2 7138   1.303   4.779  10.423  0.1094 -0.1114  0.1788
  447loPI    C3 7139   1.658   4.959  10.464  0.1101 -0.0895  0.0802
  447loPI   PO4 7140   1.201   5.137  10.078  0.2041  0.1736 -0.1228
  447loPI   GL1 7141   1.438   5.140   9.765 -0.0526 -0.1196  0.3214
  447loPI   GL2 7142   1.344   4.850   9.690 -0.1767  0.5737 -0.0108
  447loPI   C1A 7143   1.306   5.471   9.483  0.0039 -0.0989  0.0608
  447loPI   C2A 7144   1.314   5.622   8.993  0.1279 -0.2402 -0.4328
  447loPI   C3A 7145   1.258   5.612   8.530  0.1338 -0.0896 -0.1355
  447loPI   C4A 7146   1.365   5.538   8.063 -0.3458  0.0914  0.0261
  447loPI   C5A 7147   1.366   5.362   7.625 -0.4275  0.1563  0.0008
  447loPI   C6A 7148   1.459   5.421   7.177 -0.0181  0.2603  0.2399
  447loPI   C1B 7149   1.586   4.723   9.271 -0.0344  0.1105  0.1530
  447loPI   C2B 7150   1.626   4.844   8.802 -0.3021 -0.0366  0.2308
  447loPI   C3B 7151   1.565   4.979   8.419  0.0882 -0.0883  0.0268
  447loPI   C4B 7152   1.361   5.022   8.031  0.2383  0.1443 -0.1409
  448loPI    C1 7153  10.684   0.469  10.537 -0.0758  0.0333 -0.2446
  448loPI    C2 7154  10.521   0.590  10.882  0.1697  0.2497 -0.2014
  448loPI    C3 7155  10.287   0.503  10.569 -0.0871 -0.3691  0.1450
  448loPI   PO4 7156  10.783   0.706  10.457  0.1052 -0.2247 -0.0261
  448loPI   GL1 7157  10.909   0.746  10.118  0.0069  0.2930  0.0427
  448loPI   GL2 7158  10.950   0.955  10.013  0.1605  0.0428 -0.0983
  448loPI   C1A 7159  10.909   0.509   9.738 -0.0319  0.2547  0.3526
  448loPI   C2A 7160  10.931   0.458   9.332 -0.2395  0.2289  0.0275
  448loPI   C3A 7161  10.864   0.400   8.909  0.0905 -0.1286 -0.1505
  448loPI   C4A 7162  10.877   0.272   8.522  0.2863 -0.1318 -0.1092
  448loPI   C5A 7163  10.884   0.133   8.069 -0.0888 -0.2485  0.1640
  448loPI   C6A 7164  10.595   0.061   7.767  0.2267 -0.2594 -0.0344
  448loPI   C1B 7165  10.825   1.013   9.609  0.1982 -0.2351  0.0629
  448loPI   C2B 7166  10.801   0.900   9.173  0.2698 -0.0251 -0.1564
  448loPI   C3B 7167  10.655   0.855   8.775 -0.0720  0.3260  0.1996
  448loPI   C4B 7168  10.598   0.726   8.311 -0.1081  0.0810 -0.0927
  449loPI    C1 7169  10.998  12.411  10.631 -0.1189 -0.0558  0.0352
  449loPI    C2 7170  11.057  12.029  10.528 -0.0591 -0.0187 -0.0695
  449loPI    C3 7171  11.249  12.183  10.843 -0.2465 -0.1341  0.1033
  449loPI   PO4 7172  10.996  12.532  10.382 -0.3553  0.1220  0.0998
  449loPI   GL1 7173  11.113  12.269  10.080 -0.2737 -0.1502 -0.2290
  449loPI   GL2 7174  10.901  12.295   9.933  0.1939  0.1406  0.0131
  449loPI   C1A 7175  11.379  12.315   9.718 -0.2262 -0.4523  0.0334
  449loPI   C2A 7176  11.308  12.317   9.243 -0.0057 -0.1279 -0.1456
  449loPI   C3A 7177  11.361  12.077   8.877  0.0210  0.0575 -0.1892
  449loPI   C4A 7178  11.265  12.008   8.564 -0.2851  0.0781 -0.2072
  449loPI   C5A 7179  11.274  11.730   8.058 -0.0819  0.4215  0.2429
  449loPI   C6A 7180  11.426  11.498   7.721 -0.1689 -0.0847  0.1820
  449loPI   C1B 7181  10.912  12.414   9.503 -0.1710  0.1093  0.1040
  449loPI   C2B 7182  10.846  12.344   9.006  0.0060  0.0426  0.1572
  449loPI   C3B 7183  10.814  12.310   8.567 -0.0299  0.0221 -0.0054
  449loPI   C4B 7184  10.567  12.429   8.249  0.0186  0.1191 -0.0293
  450loPI    C1 7185  13.404  14.912  10.135 -0.0289  0.2072 -0.0270
  450loPI    C2 7186  13.423  15.004  10.523  0.0994 -0.0984  0.0417
  450loPI    C3 7187  13.169  15.200  10.284 -0.0840 -0.0057  0.3069
  450loPI   PO4 7188  13.660  14.865  10.044  0.0403 -0.1668 -0.1754
  450loPI   GL1 7189  13.655  15.007   9.675 -0.1028  0.2364 -0.0575
  450loPI   GL2 7190  13.475  14.741   9.572  0.2591  0.0451 -0.0844
  450loPI   C1A 7191  13.489  15.108   9.211  0.3272  0.0973  0.0719
  450loPI   C2A 7192  13.238  15.350   8.938  0.1201 -0.2245  0.1885
  450loPI   C3A 7193  13.236  15.266   8.518  0.0530 -0.0058  0.2163
  450loPI   C4A 7194  13.550  15.038   8.291  0.2271 -0.2689 -0.1718
  450loPI   C5A 7195  13.467  14.923   7.992  0.1041  0.1644  0.0328
  450loPI   C6A 7196  13.322  14.501   7.738  0.3853  0.2999  0.0957
  450loPI   C1B 7197  13.415  14.595   9.157 -0.1843 -0.1188 -0.1451
  450loPI   C2B 7198  13.569  14.386   8.817 -0.3541  0.1115  0.0636
  450loPI   C3B 7199  13.808  14.593   8.440  0.4154  0.0254 -0.0506
  450loPI   C4B 7200  13.991  14.912   8.199 -0.1022 -0.0254  0.0789
  451loPI    C1 7201   5.140   0.144  10.108 -0.0345 -0.1469 -0.1132
  451loPI    C2 7202   4.758   0.033  10.067 -0.0536 -0.1397  0.0403
  451loPI    C3 7203   4.862   0.414  10.006 -0.0936 -0.1143  0.1290
  451loPI   PO4 7204   5.292  -0.035   9.927  0.0280  0.2216 -0.4542
  451loPI   GL1 7205   5.180  -0.183   9.542  0.0689  0.2666 -0.0528
  451loPI   GL2 7206   5.088   0.265   9.587 -0.2670 -0.1457  0.0714
  451loPI   C1A 7207   5.098  -0.140   9.073 -0.0549  0.0412  0.3698
  451loPI   C2A 7208   5.243   0.063   8.754  0.1481 -0.0668  0.3256
  451loPI   C3A 7209   5.277   0.268   8.408 -0.2314  0.1040 -0.1301
  451loPI   C4A 7210   5.173   0.278   7.970 -0.1745 -0.3811 -0.0342
  451loPI   C5A 7211   5.236   0.377   7.510 -0.1495 -0.3162 -0.1157
  451loPI   C6A 7212   5.633   0.406   7.451  0.0899  0.1175 -0.0253
  451loPI   C1B 7213   5.118   0.347   9.186  0.0206  0.1803 -0.1651
  451loPI   C2B 7214   5.044   0.586   8.853  0.0395  0.0883  0.0309
  451loPI   C3B 7215   5.023   0.719   8.428 -0.0573 -0.2997 -0.2009
  451loPI   C4B 7216   4.758   0.489   8.118 -0.0627 -0.0475  0.1030
  452loPI    C1 7217   4.044   8.876  10.779  0.2859 -0.0817 -0.0670
  452loPI    C2 7218   4.313   8.613  10.915  0.1819 -0.1087  0.0895
  452loPI    C3 7219   3.923   8.522  10.920  0.1652 -0.0515 -0.0926
  452loPI   PO4 7220   4.162   8.982  10.541 -0.2084  0.2050  0.0299
  452loPI   GL1 7221   4.460   9.135  10.164  0.1286 -0.2525  0.0260
  452loPI   GL2 7222   4.646   9.375  10.213  0.1936  0.2142  0.0042
  452loPI   C1A 7223   4.253   9.232   9.823 -0.5206 -0.1750 -0.1043
  452loPI   C2A 7224   4.199   9.164   9.405 -0.0896  0.0607  0.1684
  452loPI   C3A 7225   4.084   9.163   8.984  0.0263 -0.3736 -0.0513
  452loPI   C4A 7226   4.170   9.170   8.471 -0.0583 -0.1200  0.0691
  452loPI   C5A 7227   4.290   9.220   8.101 -0.2313 -0.5390  0.1360
  452loPI   C6A 7228   4.088   9.550   7.835  0.0058  0.1303  0.0189
  452loPI   C1B 7229   4.575   9.656   9.951  0.2574 -0.0304  0.1958
  452loPI   C2B 7230   4.556   9.596   9.484 -0.0252 -0.0844  0.0720
  452loPI   C3B 7231   4.587   9.560   9.076 -0.0937  0.0174 -0.1060
  452loPI   C4B 7232   4.479   9.587   8.682 -0.0685  0.2017  0.1268
  453loPI    C1 7233  18.497   6.769  10.731  0.2379  0.1667  0.0842
  453loPI    C2 7234  18.236   6.833  11.027  0.0916 -0.1159  0.0202
  453loPI    C3 7235  18.505   7.114  10.934 -0.0563  0.0969  0.2204
  453loPI   PO4 7236  18.443   6.747  10.539  0.1444 -0.1644  0.3529
  453loPI   GL1 7237  18.364   6.794  10.162 -0.2646  0.0479 -0.0423
  453loPI   GL2 7238  18.066   6.780   9.905  0.0750 -0.1493 -0.0182
  453loPI   C1A 7239  18.472   6.743   9.647  0.0206 -0.0816 -0.0947
  453loPI   C2A 7240  18.472   6.762   9.236  0.1493  0.3904 -0.1694
  453loPI   C3A 7241  18.506   6.776   8.841  0.3097  0.1868  0.0483
  453loPI   C4A 7242  18.512   6.924   8.449 -0.0549  0.2047  0.0664
  453loPI   C5A 7243  18.490   7.256   8.123 -0.1479  0.1182 -0.1018
  453loPI   C6A 7244  18.406   7.629   8.145 -0.0281  0.0123  0.2065
  453loPI   C1B 7245  18.014   6.911   9.505 -0.2450  0.1971 -0.0947
  453loPI   C2B 7246  18.019   6.854   9.096  0.1486  0.1818 -0.0460
  453loPI   C3B 7247  18.027   7.002   8.628  0.0351 -0.0270  0.4366
  453loPI   C4B 7248  17.957   6.992   8.219  0.0253 -0.0789  0.1485
  454loPI    C1 7249   5.041   2.743  10.456 -0.2252 -0.0698 -0.3563
  454loPI    C2 7250   4.708   2.716  10.677 -0.0400 -0.0801 -0.0729
  454loPI    C3 7251   5.055   2.815  10.849  0.0974 -0.0254 -0.3735
  454loPI   PO4 7252   4.971   2.870  10.242  0.1736 -0.1787  0.1408
  454loPI   GL1 7253   4.913   2.920   9.802 -0.0454 -0.1641  0.1238
  454loPI   GL2 7254   4.607   3.030   9.776  0.0501 -0.4410 -0.0306
  454loPI   C1A 7255   5.241   3.135   9.527 -0.1520 -0.2317 -0.0571
  454loPI   C2A 7256   5.345   3.272   9.105  0.0155 -0.1151 -0.4787
  454loPI   C3A 7257   5.414   3.240   8.628  0.3358  0.2663 -0.1860
  454loPI   C4A 7258   5.609   3.161   8.246  0.0226 -0.0656 -0.4262
  454loPI   C5A 7259   5.588   3.019   7.813  0.1414 -0.2248  0.0993
  454loPI   C6A 7260   5.325   2.825   7.495  0.0746  0.1592  0.1215
  454loPI   C1B 7261   4.595   3.152   9.437 -0.1978  0.1101  0.2215
  454loPI   C2B 7262   4.844   3.289   9.187  0.0848 -0.0234  0.1529
  454loPI   C3B 7263   4.867   3.408   8.821  0.5294 -0.1898 -0.1320
  454loPI   C4B 7264   4.791   3.351   8.358  0.0043  0.0156  0.2407
  455loPI    C1 7265   0.378   7.403  11.096  0.3078  0.0239 -0.0555
  455loPI    C2 7266   0.070   7.658  11.114  0.2286 -0.0641 -0.1549
  455loPI    C3 7267   0.240   7.526  11.451  0.2620  0.1098 -0.1026
  455loPI   PO4 7268   0.384   7.455  10.789  0.1501 -0.3586 -0.0884
  455loPI   GL1 7269   0.292   7.544  10.271  0.0091  0.1480 -0.2627
  455loPI   GL2 7270   0.439   7.354  10.046  0.1218  0.0683 -0.0413
  455loPI   C1A 7271   0.234   7.740   9.854  0.0968 -0.2201 -0.0497
  455loPI   C2A 7272   0.288   7.776   9.378  0.1965  0.2319 -0.0537
  455loPI   C3A 7273   0.209   7.710   8.930 -0.2157  0.0958  0.1094
  455loPI   C4A 7274   0.182   7.845   8.580  0.1888  0.0342 -0.0293
  455loPI   C5A 7275  -0.038   8.080   8.341 -0.0709 -0.1613 -0.1782
  455loPI   C6A 7276   0.081   8.303   7.986 -0.0147  0.1594  0.0581
  455loPI   C1B 7277   0.699   7.417   9.602  0.2766 -0.0045 -0.1470
  455loPI   C2B 7278   0.698   7.585   9.189  0.0700 -0.0718 -0.3392
  455loPI   C3B 7279   0.818   7.642   8.845  0.1757  0.1629  0.1546
  455loPI   C4B 7280   0.742   7.705   8.440  0.0917 -0.2780  0.1823
  456loPI    C1 7281   1.871  12.933  10.795  0.1618  0.4886 -0.0369
  456loPI    C2 7282   1.776  13.123  11.134  0.1781  0.1033  0.1898
  456loPI    C3 7283   2.137  12.956  11.092  0.0544 -0.1518  0.1230
  456loPI   PO4 7284   1.648  13.127  10.602  0.0340 -0.2872 -0.3405
  456loPI   GL1 7285   1.553  13.098  10.186 -0.0412 -0.1364 -0.3051
  456loPI   GL2 7286   1.254  13.309  10.122 -0.1048 -0.1157 -0.0474
  456loPI   C1A 7287   1.585  13.101   9.754  0.1681 -0.1333 -0.1257
  456loPI   C2A 7288   1.512  12.982   9.325 -0.0744 -0.1376 -0.6256
  456loPI   C3A 7289   1.515  13.024   8.813  0.0462  0.0736  0.0732
  456loPI   C4A 7290   1.570  13.096   8.364  0.0231  0.0582  0.1253
  456loPI   C5A 7291   1.227  13.159   8.007 -0.0730 -0.1681  0.1793
  456loPI   C6A 7292   1.179  13.444   7.673  0.1098 -0.1287  0.2481
  456loPI   C1B 7293   1.035  13.126   9.749 -0.2825 -0.1703  0.3076
  456loPI   C2B 7294   0.914  13.111   9.296  0.1995 -0.0221 -0.2325
  456loPI   C3B 7295   0.971  13.119   8.981 -0.0811 -0.0704 -0.1320
  456loPI   C4B 7296   1.081  13.175   8.529 -0.1404 -0.1947 -0.2384
  457loPI    C1 7297  14.129   6.489  10.677  0.0818 -0.1291  0.1291
  457loPI    C2 7298  13.974   6.225  10.935 -0.0772  0.0880  0.2596
  457loPI    C3 7299  13.964   6.616  11.019 -0.1578  0.1648 -0.0904
  457loPI   PO4 7300  14.119   6.427  10.480 -0.0561  0.2992  0.1982
  457loPI   GL1 7301  14.050   6.251  10.085  0.1649  0.2722  0.3761
  457loPI   GL2 7302  14.059   5.946  10.180  0.1121  0.3326  0.3163
  457loPI   C1A 7303  14.054   6.182   9.619 -0.2354  0.0378 -0.1551
  457loPI   C2A 7304  13.954   6.141   9.232  0.1479 -0.2254 -0.0838
  457loPI   C3A 7305  14.014   6.058   8.927 -0.1381  0.0799 -0.2884
  457loPI   C4A 7306  14.140   6.024   8.555  0.2526  0.0607  0.0149
  457loPI   C5A 7307  14.170   6.081   8.146  0.1066  0.1209  0.3434
  457loPI   C6A 7308  14.505   6.305   7.899  0.1304  0.1149  0.2839
  457loPI   C1B 7309  13.647   5.914   9.901 -0.0112 -0.1287  0.2277
  457loPI   C2B 7310  13.593   5.844   9.487  0.1095  0.0755 -0.0815
  457loPI   C3B 7311  13.621   5.810   9.061  0.1938  0.0149 -0.0077
  457loPI   C4B 7312  13.652   5.749   8.678 -0.2280 -0.0273  0.0220
  458loPI    C1 7313  17.699   2.181  10.212 -0.0339 -0.0735 -0.0747
  458loPI    C2 7314  17.833   1.827  10.341  0.0353  0.0416  0.1771
  458loPI    C3 7315  17.508   1.991  10.508 -0.0694  0.0415 -0.0230
  458loPI   PO4 7316  17.619   2.173   9.918  0.0705 -0.0903 -0.3639
  458loPI   GL1 7317  17.422   2.253   9.428  0.1249 -0.3445  0.2086
  458loPI   GL2 7318  17.560   2.037   9.465 -0.0913 -0.1679 -0.0308
  458loPI   C1A 7319  17.284   2.451   9.048 -0.1632 -0.0477  0.1408
  458loPI   C2A 7320  17.215   2.551   8.606 -0.1007  0.2925  0.0922
  458loPI   C3A 7321  17.367   2.748   8.141  0.1364  0.1081  0.3079
  458loPI   C4A 7322  17.510   2.734   7.714 -0.0681 -0.0433  0.1943
  458loPI   C5A 7323  17.548   2.252   7.545  0.1318  0.0476 -0.3328
  458loPI   C6A 7324  17.566   2.100   7.166  0.0191  0.0590 -0.2688
  458loPI   C1B 7325  17.703   2.111   8.985 -0.0489  0.0411  0.1621
  458loPI   C2B 7326  17.729   2.447   8.690  0.1182  0.0558  0.2081
  458loPI   C3B 7327  17.724   2.495   8.313  0.0461  0.0267  0.0156
  458loPI   C4B 7328  17.875   2.417   7.946 -0.1196 -0.0433  0.0387
  459loPI    C1 7329  12.003   8.757  10.680 -0.0675 -0.0943  0.1601
  459loPI    C2 7330  11.846   8.852  11.036 -0.0321 -0.0797  0.1719
  459loPI    C3 7331  12.144   8.586  11.013  0.0798  0.0447  0.1704
  459loPI   PO4 7332  12.054   8.995  10.493 -0.0194  0.0924 -0.0189
  459loPI   GL1 7333  11.980   8.761  10.133  0.0840 -0.2099  0.1140
  459loPI   GL2 7334  11.969   8.414  10.200 -0.4307  0.1350  0.0303
  459loPI   C1A 7335  11.897   8.709   9.610 -0.2884 -0.0988 -0.0184
  459loPI   C2A 7336  11.854   8.677   9.230 -0.0617  0.4799 -0.3027
  459loPI   C3A 7337  12.014   8.677   8.811 -0.0229 -0.2294  0.0864
  459loPI   C4A 7338  11.977   8.719   8.396  0.0001 -0.2878 -0.1631
  459loPI   C5A 7339  11.757   8.777   8.118  0.2540 -0.0701 -0.4215
  459loPI   C6A 7340  11.525   8.915   7.843  0.0110  0.0746 -0.1976
  459loPI   C1B 7341  11.926   8.140   9.889  0.0761  0.2875  0.0724
  459loPI   C2B 7342  11.995   8.063   9.535 -0.0473 -0.0554  0.3566
  459loPI   C3B 7343  12.080   8.192   9.044 -0.1107 -0.0533  0.1479
  459loPI   C4B 7344  12.127   8.139   8.646  0.1780  0.1133 -0.1759
  460loPI    C1 7345  13.595   7.212  10.651 -0.0136  0.3374  0.3241
  460loPI    C2 7346  13.329   7.041  10.406  0.0357  0.3825  0.2384
  460loPI    C3 7347  13.246   7.082  10.795  0.0149  0.1838  0.2560
  460loPI   PO4 7348  13.755   7.320  10.450 -0.1299  0.2466 -0.1150
  460loPI   GL1 7349  13.713   7.211   9.945  0.2311  0.0313 -0.1419
  460loPI   GL2 7350  14.015   7.084  10.113  0.1494  0.0799  0.1018
  460loPI   C1A 7351  13.750   7.206   9.509  0.2206  0.1764  0.1142
  460loPI   C2A 7352  13.719   7.251   8.968  0.4222  0.2114  0.0441
  460loPI   C3A 7353  13.874   7.225   8.612  0.0957 -0.1117 -0.5647
  460loPI   C4A 7354  13.823   7.053   8.284  0.3084  0.0673  0.3075
  460loPI   C5A 7355  13.814   7.081   7.810  0.2367  0.0186 -0.1450
  460loPI   C6A 7356  14.132   7.282   7.464  0.3138 -0.0332  0.0475
  460loPI   C1B 7357  14.259   7.049   9.721  0.0260  0.0461 -0.1797
  460loPI   C2B 7358  14.191   7.199   9.320  0.0505 -0.1921 -0.2042
  460loPI   C3B 7359  14.300   7.115   8.879 -0.0800  0.2865  0.1471
  460loPI   C4B 7360  14.383   7.048   8.495 -0.6050 -0.6105  0.0138
  461loPI    C1 7361  10.239   3.866  10.321  0.0122 -0.0465 -0.0369
  461loPI    C2 7362  10.034   4.201  10.400 -0.0910 -0.1411  0.1005
  461loPI    C3 7363  10.326   4.081  10.647  0.2956  0.1193 -0.2175
  461loPI   PO4 7364  10.390   3.920  10.139 -0.1219 -0.1041  0.0923
  461loPI   GL1 7365  10.477   3.823   9.696 -0.1365 -0.2027 -0.0821
  461loPI   GL2 7366  10.548   3.511   9.862 -0.0282  0.0383  0.1108
  461loPI   C1A 7367  10.400   3.811   9.309 -0.2776 -0.0992 -0.0463
  461loPI   C2A 7368  10.403   3.902   8.856  0.1081  0.3183 -0.0713
  461loPI   C3A 7369  10.513   3.871   8.402 -0.0278  0.0467 -0.2955
  461loPI   C4A 7370  10.369   3.882   8.033 -0.0094 -0.2427 -0.0235
  461loPI   C5A 7371  10.560   4.060   7.697 -0.0092  0.0223  0.1612
  461loPI   C6A 7372  10.829   3.984   7.481  0.0017  0.0316  0.1291
  461loPI   C1B 7373  10.611   3.333   9.383 -0.1018 -0.1907 -0.1329
  461loPI   C2B 7374  10.577   3.382   9.026  0.3426  0.2695 -0.0595
  461loPI   C3B 7375  10.528   3.374   8.604  0.0470 -0.1189 -0.0323
  461loPI   C4B 7376  10.573   3.247   8.142 -0.3015  0.1099 -0.4537
  462loPI    C1 7377   2.597  12.126  10.784 -0.0436 -0.0425 -0.0463
  462loPI    C2 7378   2.204  12.075  10.839 -0.0483  0.0310 -0.0108
  462loPI    C3 7379   2.449  12.099  11.155 -0.0211  0.0309 -0.0319
  462loPI   PO4 7380   2.619  12.069  10.547 -0.2576  0.0392 -0.1280
  462loPI   GL1 7381   2.524  12.169  10.138 -0.2059  0.1556 -0.0950
  462loPI   GL2 7382   2.401  12.005  10.022  0.0253  0.0847  0.2794
  462loPI   C1A 7383   2.631  12.175   9.625  0.2400 -0.0576  0.0043
  462loPI   C2A 7384   2.711  12.235   9.263  0.3221 -0.0189 -0.2398
  462loPI   C3A 7385   2.715  12.295   8.868  0.1911  0.1969 -0.1509
  462loPI   C4A 7386   2.704  12.246   8.478  0.1611  0.0425 -0.3258
  462loPI   C5A 7387   2.570  12.074   8.112  0.0450 -0.2430  0.1704
  462loPI   C6A 7388   2.459  12.140   7.672  0.0393  0.1039  0.2832
  462loPI   C1B 7389   2.262  11.897   9.718  0.1948 -0.0933 -0.0555
  462loPI   C2B 7390   2.285  11.877   9.385 -0.2176 -0.1281  0.1366
  462loPI   C3B 7391   2.337  11.950   8.968 -0.1163 -0.2785 -0.0978
  462loPI   C4B 7392   2.335  11.964   8.516  0.2805  0.1563  0.2141
  463loPI    C1 7393   7.647   0.660  10.366  0.0622 -0.2153 -0.1519
  463loPI    C2 7394   7.789   0.306  10.486  0.0302 -0.2098 -0.0974
  463loPI    C3 7395   7.616   0.552  10.750 -0.0868 -0.2194 -0.1643
  463loPI   PO4 7396   7.533   0.628  10.201  0.2050  0.0726 -0.3409
  463loPI   GL1 7397   7.591   0.576   9.813  0.1665 -0.0625  0.1434
  463loPI   GL2 7398   7.901   0.692   9.819 -0.3381  0.3596 -0.3198
  463loPI   C1A 7399   7.625   0.570   9.364  0.2736 -0.0110 -0.0210
  463loPI   C2A 7400   7.402   0.711   8.999 -0.0939 -0.2682 -0.0246
  463loPI   C3A 7401   7.452   0.733   8.575 -0.0905 -0.0625 -0.1062
  463loPI   C4A 7402   7.585   0.756   8.189  0.0321 -0.0708 -0.0154
  463loPI   C5A 7403   7.834   0.859   7.881  0.0752  0.0646  0.1504
  463loPI   C6A 7404   8.323   0.885   7.843  0.2620 -0.1535 -0.2627
  463loPI   C1B 7405   8.073   0.756   9.456  0.0734  0.1121 -0.1867
  463loPI   C2B 7406   8.035   0.651   9.053 -0.1609 -0.0607 -0.0373
  463loPI   C3B 7407   7.959   0.610   8.674 -0.0733  0.2366  0.0340
  463loPI   C4B 7408   8.024   0.512   8.179 -0.0639  0.2069 -0.0238
  464loPI    C1 7409   3.049  13.870  10.767 -0.0170  0.3122  0.0605
  464loPI    C2 7410   2.907  13.720  11.110  0.0131  0.2941  0.0650
  464loPI    C3 7411   3.301  13.761  11.057  0.0565 -0.3761 -0.2411
  464loPI   PO4 7412   2.824  13.885  10.610  0.0346  0.2763  0.2756
  464loPI   GL1 7413   2.663  13.926  10.182 -0.1706  0.0529 -0.0533
  464loPI   GL2 7414   2.827  13.723   9.924  0.2079 -0.1446 -0.0321
  464loPI   C1A 7415   2.580  14.156   9.770 -0.1437 -0.1287  0.3842
  464loPI   C2A 7416   2.575  14.259   9.301 -0.1875  0.2585 -0.0716
  464loPI   C3A 7417   2.592  14.247   8.870 -0.0264  0.2430 -0.0600
  464loPI   C4A 7418   2.615  14.289   8.491  0.1335 -0.1847 -0.2623
  464loPI   C5A 7419   2.667  14.184   8.000 -0.2534  0.2443 -0.1356
  464loPI   C6A 7420   2.736  13.808   7.737  0.2180 -0.1077 -0.0156
  464loPI   C1B 7421   2.761  13.809   9.472 -0.0151  0.0364  0.0572
  464loPI   C2B 7422   2.803  13.722   9.155 -0.1440  0.0101  0.2341
  464loPI   C3B 7423   2.787  13.708   8.834  0.2149  0.0377  0.1874
  464loPI   C4B 7424   2.781  13.694   8.448 -0.2743 -0.1278 -0.0133
  465loPI    C1 7425   0.291  16.822  10.310 -0.1537  0.0802 -0.1635
  465loPI    C2 7426   0.264  17.198  10.445 -0.1531  0.0052  0.0490
  465loPI    C3 7427   0.620  17.047  10.343 -0.1554  0.0665 -0.0516
  465loPI   PO4 7428   0.062  16.810  10.066  0.1235 -0.0491 -0.0278
  465loPI   GL1 7429   0.177  16.874   9.612  0.0226  0.1272 -0.1259
  465loPI   GL2 7430   0.248  16.553   9.655 -0.0703 -0.2289  0.0059
  465loPI   C1A 7431   0.103  16.786   9.142  0.2000  0.1324 -0.2813
  465loPI   C2A 7432  -0.012  16.747   8.644  0.2037 -0.1791  0.0507
  465loPI   C3A 7433   0.026  16.846   8.363 -0.1850 -0.0872  0.0434
  465loPI   C4A 7434  -0.071  16.773   7.962  0.1678 -0.3246 -0.1027
  465loPI   C5A 7435   0.053  16.753   7.572  0.1942  0.2433 -0.1671
  465loPI   C6A 7436  -0.011  16.819   7.076 -0.0279  0.2037 -0.1505
  465loPI   C1B 7437   0.246  16.271   9.311 -0.0631 -0.5015  0.1161
  465loPI   C2B 7438   0.339  16.438   8.871 -0.3052  0.2639 -0.0422
  465loPI   C3B 7439   0.567  16.464   8.511  0.1585  0.0899 -0.0868
  465loPI   C4B 7440   0.567  16.088   8.195  0.0553  0.1046  0.1313
  466loPI    C1 7441   5.797  13.176  10.791  0.0235 -0.0285  0.0326
  466loPI    C2 7442   5.751  13.542  10.946 -0.0108  0.1198 -0.3182
  466loPI    C3 7443   5.866  13.238  11.180 -0.1208  0.3224  0.0055
  466loPI   PO4 7444   5.982  13.153  10.683  0.1154 -0.0578  0.1738
  466loPI   GL1 7445   6.078  13.079  10.272  0.1603 -0.0217 -0.0773
  466loPI   GL2 7446   6.394  12.824  10.146  0.2727 -0.4033 -0.1406
  466loPI   C1A 7447   5.984  13.028   9.911  0.0115  0.0623  0.1430
  466loPI   C2A 7448   5.878  12.962   9.499  0.1447 -0.0295 -0.1487
  466loPI   C3A 7449   5.858  13.002   9.092  0.1677  0.2741 -0.0143
  466loPI   C4A 7450   5.984  13.024   8.660  0.0262  0.0603  0.1115
  466loPI   C5A 7451   5.931  13.053   8.216  0.0497 -0.0987 -0.3001
  466loPI   C6A 7452   5.922  13.107   7.844 -0.3927 -0.1477  0.2447
  466loPI   C1B 7453   6.411  12.795   9.711  0.2738 -0.0103  0.1023
  466loPI   C2B 7454   6.393  12.936   9.293 -0.0130  0.0375 -0.3423
  466loPI   C3B 7455   6.410  12.900   8.853 -0.0471  0.0118 -0.0938
  466loPI   C4B 7456   6.454  13.010   8.396  0.0505 -0.0954 -0.0868
  467loPI    C1 7457   9.693  13.268  10.568 -0.0605  0.0729 -0.2238
  467loPI    C2 7458   9.770  12.881  10.507  0.1604  0.0513  0.1648
  467loPI    C3 7459   9.833  13.043  10.867 -0.0033  0.4326  0.0260
  467loPI   PO4 7460   9.744  13.415  10.357  0.0933  0.1193 -0.2461
  467loPI   GL1 7461  10.056  13.675  10.271 -0.1065 -0.1884 -0.1970
  467loPI   GL2 7462  10.264  13.612  10.328 -0.2612  0.3199 -0.0319
  467loPI   C1A 7463  10.051  13.509   9.833  0.0989 -0.0685  0.2027
  467loPI   C2A 7464  10.125  13.446   9.309  0.1312 -0.0551 -0.0447
  467loPI   C3A 7465  10.070  13.383   8.877 -0.2101 -0.0072  0.0833
  467loPI   C4A 7466  10.201  13.367   8.409  0.0509 -0.2258  0.0641
  467loPI   C5A 7467   9.837  13.235   8.197 -0.0570 -0.1402 -0.1749
  467loPI   C6A 7468   9.459  13.223   8.103  0.1341 -0.2069 -0.1691
  467loPI   C1B 7469  10.438  13.834   9.950  0.0441  0.3113  0.4786
  467loPI   C2B 7470  10.475  13.997   9.643  0.2551  0.2127  0.0734
  467loPI   C3B 7471  10.470  13.893   9.278  0.6181  0.1229  0.1649
  467loPI   C4B 7472  10.416  13.815   8.862 -0.1113 -0.0233 -0.0960
  468loPI    C1 7473   4.602  10.319  10.628  0.1114  0.1297 -0.0679
  468loPI    C2 7474   4.336  10.114  10.845  0.0089  0.2354 -0.0933
  468loPI    C3 7475   4.642   9.923  10.672  0.2162  0.1794  0.3230
  468loPI   PO4 7476   4.557  10.506  10.497  0.0827 -0.1613  0.0414
  468loPI   GL1 7477   4.755  10.559  10.022  0.1969 -0.2233  0.0541
  468loPI   GL2 7478   4.904  10.278  10.117  0.3810  0.0268  0.1362
  468loPI   C1A 7479   4.851  10.480   9.656  0.0618  0.3231  0.2521
  468loPI   C2A 7480   4.744  10.526   9.231 -0.0203  0.2810 -0.2795
  468loPI   C3A 7481   4.650  10.451   8.728 -0.0373  0.2059  0.2986
  468loPI   C4A 7482   4.654  10.461   8.328  0.0158  0.1290  0.2461
  468loPI   C5A 7483   4.500  10.355   7.982 -0.1080 -0.1262  0.1697
  468loPI   C6A 7484   4.186  10.113   7.771  0.0677 -0.1889 -0.1794
  468loPI   C1B 7485   4.807   9.975   9.701 -0.0763 -0.1064  0.3262
  468loPI   C2B 7486   4.887   9.972   9.290 -0.0062 -0.1922 -0.4956
  468loPI   C3B 7487   4.859  10.032   8.885  0.2878  0.0344 -0.1705
  468loPI   C4B 7488   4.722   9.996   8.457 -0.0621  0.0919  0.1830
  469loPI    C1 7489  15.333   3.079  10.609  0.0121  0.1012  0.0303
  469loPI    C2 7490  15.690   2.913  10.537  0.0081  0.1113 -0.0135
  469loPI    C3 7491  15.411   2.709  10.740  0.0297  0.0937 -0.0013
  469loPI   PO4 7492  15.262   3.223  10.403 -0.0351 -0.1387  0.2115
  469loPI   GL1 7493  15.130   3.283  10.126 -0.0570  0.1177  0.1688
  469loPI   GL2 7494  15.229   3.524   9.925  0.0804 -0.1941 -0.2529
  469loPI   C1A 7495  15.129   3.091   9.747  0.0340 -0.2364 -0.1306
  469loPI   C2A 7496  14.967   3.137   9.287  0.4259  0.2668 -0.1172
  469loPI   C3A 7497  14.900   3.176   8.784 -0.0804 -0.0072  0.1612
  469loPI   C4A 7498  14.828   3.083   8.307  0.3664  0.1964  0.1049
  469loPI   C5A 7499  14.877   3.166   7.913 -0.2409 -0.0615  0.0842
  469loPI   C6A 7500  14.910   3.026   7.471 -0.1873 -0.2056 -0.1181
  469loPI   C1B 7501  15.290   3.462   9.506  0.0405  0.0604  0.0170
  469loPI   C2B 7502  15.236   3.564   9.160 -0.1271  0.2142 -0.2759
  469loPI   C3B 7503  15.235   3.598   8.742  0.3434 -0.3618  0.1806
  469loPI   C4B 7504  15.195   3.492   8.305  0.1657  0.2350  0.2237
  470loPI    C1 7505   7.352  17.524  10.726 -0.1164 -0.0044  0.0476
  470loPI    C2 7506   7.237  17.253  10.997 -0.2066  0.1594  0.1756
  470loPI    C3 7507   7.050  17.606  10.976 -0.0671  0.2262  0.0336
  470loPI   PO4 7508   7.403  17.393  10.483  0.0273  0.2639  0.1429
  470loPI   GL1 7509   7.427  17.454  10.048  0.1932 -0.0562  0.0595
  470loPI   GL2 7510   7.613  17.143  10.074  0.0262  0.1177  0.3408
  470loPI   C1A 7511   7.516  17.396   9.603 -0.0877 -0.4403  0.3214
  470loPI   C2A 7512   7.562  17.479   9.162 -0.0986 -0.0801 -0.0064
  470loPI   C3A 7513   7.546  17.416   8.775  0.3670  0.1455 -0.0150
  470loPI   C4A 7514   7.588  17.384   8.316  0.0163 -0.1746  0.2710
  470loPI   C5A 7515   7.809  17.447   7.929  0.0145  0.2370 -0.0872
  470loPI   C6A 7516   8.297  17.508   7.815  0.0503 -0.0375 -0.2792
  470loPI   C1B 7517   7.506  16.940   9.722 -0.5164  0.0199 -0.2700
  470loPI   C2B 7518   7.651  16.787   9.318 -0.2131 -0.3443 -0.1486
  470loPI   C3B 7519   7.614  16.674   8.839  0.1544 -0.1947  0.0668
  470loPI   C4B 7520   7.693  16.819   8.395 -0.0198 -0.1776 -0.0058
  471loPI    C1 7521  11.914  12.295  10.799 -0.1006 -0.0644 -0.0302
  471loPI    C2 7522  11.703  12.110  11.084 -0.1702  0.2153  0.1038
  471loPI    C3 7523  12.103  12.109  11.099 -0.1626 -0.1213 -0.0262
  471loPI   PO4 7524  11.882  12.154  10.565 -0.0709 -0.1820 -0.1425
  471loPI   GL1 7525  11.833  12.088  10.147 -0.0350 -0.5715 -0.2709
  471loPI   GL2 7526  12.093  11.888  10.057 -0.0156  0.0662 -0.0198
  471loPI   C1A 7527  11.862  12.111   9.662 -0.0026  0.0304 -0.0005
  471loPI   C2A 7528  11.915  12.036   9.164  0.2062  0.3173  0.0866
  471loPI   C3A 7529  11.881  11.965   8.718 -0.0533  0.1023  0.3286
  471loPI   C4A 7530  12.018  11.834   8.361  0.0416 -0.1038 -0.1984
  471loPI   C5A 7531  12.046  12.214   8.057  0.0032 -0.4330  0.1242
  471loPI   C6A 7532  11.932  12.615   7.764 -0.2468 -0.0307  0.0914
  471loPI   C1B 7533  12.328  12.001   9.701  0.0184 -0.4400  0.1684
  471loPI   C2B 7534  12.430  11.975   9.261  0.0744 -0.1930  0.2980
  471loPI   C3B 7535  12.420  11.796   8.836  0.2791  0.1119  0.1214
  471loPI   C4B 7536  12.602  11.667   8.394 -0.1257 -0.2460 -0.0353
  472loPI    C1 7537  17.293  12.543  10.530 -0.1146  0.0097 -0.2044
  472loPI    C2 7538  17.167  12.330  10.845 -0.0979  0.1147 -0.1263
  472loPI    C3 7539  17.535  12.488  10.845 -0.1582  0.2571 -0.1253
  472loPI   PO4 7540  17.255  12.406  10.252 -0.2145 -0.1394 -0.2426
  472loPI   GL1 7541  17.362  12.121  10.063 -0.2761 -0.0336 -0.1148
  472loPI   GL2 7542  17.110  11.872  10.069 -0.0334 -0.0087 -0.0241
  472loPI   C1A 7543  17.393  12.401   9.666  0.1757 -0.0142  0.1654
  472loPI   C2A 7544  17.384  12.374   9.285 -0.2213 -0.1528 -0.1146
  472loPI   C3A 7545  17.411  12.296   8.855 -0.2356 -0.2176 -0.0971
  472loPI   C4A 7546  17.546  12.157   8.532 -0.1309  0.1817 -0.0205
  472loPI   C5A 7547  17.496  12.211   8.110 -0.0424 -0.1853 -0.3795
  472loPI   C6A 7548  17.467  12.517   7.760  0.2076 -0.1269  0.0471
  472loPI   C1B 7549  17.274  11.525   9.831 -0.1236  0.1529  0.3591
  472loPI   C2B 7550  17.246  11.518   9.422 -0.0393  0.1665  0.1325
  472loPI   C3B 7551  17.217  11.391   8.974  0.1925 -0.1407 -0.1102
  472loPI   C4B 7552  17.238  11.396   8.553  0.2136 -0.0911 -0.0337
  473loPI    C1 7553  16.280  11.035  10.440  0.0526 -0.3301 -0.1804
  473loPI    C2 7554  16.464  11.127  10.782 -0.1458  0.0007 -0.1582
  473loPI    C3 7555  16.130  10.908  10.788 -0.1101 -0.0537 -0.1468
  473loPI   PO4 7556  16.443  11.034  10.256  0.1572 -0.0985 -0.0855
  473loPI   GL1 7557  16.511  11.319   9.974 -0.2217  0.0131  0.1718
  473loPI   GL2 7558  16.652  11.636   9.921 -0.0510  0.0283  0.1025
  473loPI   C1A 7559  16.444  11.249   9.491 -0.2103 -0.1939 -0.0588
  473loPI   C2A 7560  16.329  11.256   9.164  0.0381  0.0844 -0.2081
  473loPI   C3A 7561  16.361  11.120   8.820 -0.1379  0.0708 -0.0723
  473loPI   C4A 7562  16.314  11.205   8.337 -0.3023 -0.0246 -0.3801
  473loPI   C5A 7563  16.292  11.457   7.920 -0.0828 -0.0209 -0.1670
  473loPI   C6A 7564  16.657  11.766   7.742  0.1308  0.1393  0.1099
  473loPI   C1B 7565  16.734  11.678   9.446 -0.1323  0.0602  0.2413
  473loPI   C2B 7566  16.719  11.564   9.012 -0.2552 -0.1944 -0.0283
  473loPI   C3B 7567  16.740  11.493   8.672  0.1080 -0.1838 -0.1737
  473loPI   C4B 7568  16.745  11.520   8.203  0.0464  0.0855 -0.0032
  474loPI    C1 7569   4.387  17.076  10.259 -0.1151 -0.0049  0.1481
  474loPI    C2 7570   4.542  17.374  10.042 -0.0195 -0.1958 -0.0486
  474loPI    C3 7571   4.708  17.275  10.392 -0.0081 -0.0650 -0.0168
  474loPI   PO4 7572   4.502  16.807  10.102 -0.4448  0.0554  0.0803
  474loPI   GL1 7573   4.787  16.520   9.878 -0.1013  0.1094  0.3891
  474loPI   GL2 7574   5.091  16.361   9.997 -0.1094 -0.0124  0.1117
  474loPI   C1A 7575   4.919  16.432   9.483 -0.0277 -0.0588  0.1821
  474loPI   C2A 7576   4.890  16.584   9.153 -0.0917 -0.0807  0.0720
  474loPI   C3A 7577   4.927  16.638   8.810 -0.2109  0.1675 -0.0257
  474loPI   C4A 7578   4.912  16.630   8.313 -0.1662 -0.0644 -0.0142
  474loPI   C5A 7579   5.053  16.338   7.954 -0.2915  0.0840  0.1406
  474loPI   C6A 7580   4.790  16.109   7.716 -0.0458  0.4457  0.1977
  474loPI   C1B 7581   5.405  16.241   9.686  0.0045 -0.0732  0.1125
  474loPI   C2B 7582   5.436  16.384   9.293  0.0540  0.2597  0.0549
  474loPI   C3B 7583   5.364  16.395   8.815  0.1897 -0.2178  0.2564
  474loPI   C4B 7584   5.433  16.450   8.452  0.1930  0.0663  0.2456
  475loPI    C1 7585   8.220  14.107  10.727  0.0944  0.1295 -0.0200
  475loPI    C2 7586   7.992  13.964  11.023 -0.1152  0.2750 -0.1088
  475loPI    C3 7587   8.240  14.270  11.092 -0.0849  0.2392 -0.0579
  475loPI   PO4 7588   8.219  13.846  10.566  0.1757 -0.1705  0.0530
  475loPI   GL1 7589   8.104  13.745  10.137 -0.4073  0.3059 -0.1432
  475loPI   GL2 7590   8.308  13.511  10.227  0.0929  0.3034 -0.0390
  475loPI   C1A 7591   7.992  13.903   9.757  0.0133 -0.1889  0.0700
  475loPI   C2A 7592   7.966  13.903   9.240  0.0589  0.1600 -0.1404
  475loPI   C3A 7593   7.936  13.996   8.816  0.0659  0.0992 -0.3427
  475loPI   C4A 7594   7.813  13.910   8.357 -0.1200 -0.1063  0.3694
  475loPI   C5A 7595   7.422  14.021   8.265 -0.2444 -0.0338 -0.4888
  475loPI   C6A 7596   6.998  14.116   8.434 -0.1112  0.0898 -0.1995
  475loPI   C1B 7597   8.197  13.410   9.735  0.2939  0.2117  0.2330
  475loPI   C2B 7598   8.170  13.391   9.285  0.0158 -0.0056 -0.0806
  475loPI   C3B 7599   8.112  13.473   8.833  0.1349 -0.1094 -0.0908
  475loPI   C4B 7600   7.989  13.474   8.399  0.0227  0.0902  0.0299
  476loPI    C1 7601  17.155   4.210  10.384  0.0216  0.3549 -0.1012
  476loPI    C2 7602  17.526   4.262  10.523 -0.0039  0.1964  0.0294
  476loPI    C3 7603  17.263   4.045  10.732 -0.1230  0.1767 -0.1393
  476loPI   PO4 7604  17.229   4.249  10.106 -0.0141 -0.1276  0.2823
  476loPI   GL1 7605  17.027   4.555   9.752  0.0270 -0.0783 -0.3750
  476loPI   GL2 7606  17.095   4.859   9.810  0.0419  0.0428 -0.0241
  476loPI   C1A 7607  16.901   4.432   9.404  0.0700 -0.0450 -0.1511
  476loPI   C2A 7608  16.878   4.451   8.899  0.0211  0.1578 -0.0249
  476loPI   C3A 7609  16.915   4.288   8.434 -0.1152 -0.1695 -0.0588
  476loPI   C4A 7610  16.774   4.121   8.010  0.0979  0.0713 -0.0714
  476loPI   C5A 7611  16.953   3.957   7.738 -0.1087 -0.2625 -0.2628
  476loPI   C6A 7612  16.692   3.785   7.472  0.2086 -0.2263 -0.1340
  476loPI   C1B 7613  17.232   4.821   9.391  0.1709 -0.5372 -0.0096
  476loPI   C2B 7614  17.245   4.822   8.970  0.0306  0.0884 -0.1782
  476loPI   C3B 7615  17.233   4.859   8.561  0.0177 -0.1579 -0.2738
  476loPI   C4B 7616  17.304   4.739   8.228 -0.1386  0.0529  0.0379
  477loPI    C1 7617  11.361  15.948  10.801 -0.0311 -0.1992  0.1500
  477loPI    C2 7618  11.704  16.086  10.954  0.0118 -0.1676  0.0262
  477loPI    C3 7619  11.398  16.000  11.196  0.0650 -0.0789  0.1262
  477loPI   PO4 7620  11.392  15.757  10.643 -0.2651 -0.0137 -0.4023
  477loPI   GL1 7621  11.267  15.742  10.206 -0.2250 -0.0282 -0.0275
  477loPI   GL2 7622  11.328  16.053  10.272 -0.1900  0.0458  0.1803
  477loPI   C1A 7623  11.219  15.486   9.805  0.1008 -0.1504  0.2827
  477loPI   C2A 7624  11.330  15.539   9.404 -0.0136  0.0787 -0.3308
  477loPI   C3A 7625  11.412  15.462   9.015  0.0199 -0.2295  0.0311
  477loPI   C4A 7626  11.402  15.291   8.521 -0.1678  0.0521  0.1048
  477loPI   C5A 7627  11.499  14.944   8.108 -0.1035 -0.0533 -0.0448
  477loPI   C6A 7628  11.456  14.536   8.101  0.1428  0.0219  0.2225
  477loPI   C1B 7629  11.159  15.987   9.808  0.0626  0.2714 -0.0925
  477loPI   C2B 7630  11.153  15.994   9.397 -0.2891  0.3432  0.2675
  477loPI   C3B 7631  11.164  16.001   8.925 -0.0377 -0.1288  0.1213
  477loPI   C4B 7632  11.162  15.947   8.412 -0.2348  0.5422  0.2978
  478loPI    C1 7633   3.855   5.674  10.529  0.1524  0.3296 -0.0844
  478loPI    C2 7634   3.685   5.976  10.728  0.0527  0.1402  0.1211
  478loPI    C3 7635   4.059   5.866  10.814 -0.0164  0.0096  0.2603
  478loPI   PO4 7636   3.837   5.725  10.248  0.1407 -0.2061 -0.0929
  478loPI   GL1 7637   4.045   5.823   9.982 -0.4375  0.0033 -0.0944
  478loPI   GL2 7638   4.343   5.681   9.975 -0.3172 -0.0013 -0.2485
  478loPI   C1A 7639   4.156   5.896   9.557 -0.0293  0.0949  0.1422
  478loPI   C2A 7640   4.159   5.862   9.095 -0.1187 -0.0814  0.0057
  478loPI   C3A 7641   4.127   5.785   8.632 -0.2137  0.0027  0.1358
  478loPI   C4A 7642   4.210   5.767   8.264 -0.1819  0.0248 -0.0366
  478loPI   C5A 7643   4.118   5.875   7.901  0.1251 -0.0261  0.1066
  478loPI   C6A 7644   4.291   6.202   7.996  0.0211  0.1807  0.0122
  478loPI   C1B 7645   4.653   5.749   9.771  0.0246 -0.0895  0.1953
  478loPI   C2B 7646   4.614   5.711   9.320  0.2097 -0.0954  0.0705
  478loPI   C3B 7647   4.593   5.763   8.883  0.3769  0.0045  0.3269
  478loPI   C4B 7648   4.690   5.697   8.540 -0.3060  0.1965  0.1986
  479loPI    C1 7649  11.138   5.441  10.658 -0.1172 -0.0736 -0.2701
  479loPI    C2 7650  11.476   5.269  10.783 -0.0431  0.0507 -0.2972
  479loPI    C3 7651  11.133   5.197  10.975  0.0789  0.2885  0.0199
  479loPI   PO4 7652  11.236   5.466  10.420  0.2155  0.3816  0.0446
  479loPI   GL1 7653  11.528   5.678  10.117 -0.2950 -0.0834  0.0480
  479loPI   GL2 7654  11.790   5.724  10.006  0.0793 -0.2646 -0.0531
  479loPI   C1A 7655  11.322   5.935   9.808 -0.2183  0.0066 -0.1236
  479loPI   C2A 7656  11.282   5.968   9.303  0.1431 -0.0338 -0.0175
  479loPI   C3A 7657  11.305   5.898   8.916  0.1139 -0.2335 -0.2257
  479loPI   C4A 7658  11.255   5.930   8.589 -0.0692  0.0235  0.0458
  479loPI   C5A 7659  11.247   6.175   8.209  0.1513 -0.3386  0.0785
  479loPI   C6A 7660  11.427   6.171   7.815  0.3371  0.2070  0.0790
  479loPI   C1B 7661  11.784   5.758   9.530  0.1166  0.1391 -0.0954
  479loPI   C2B 7662  11.791   5.882   9.107  0.1461 -0.2787  0.0871
  479loPI   C3B 7663  11.824   5.843   8.702  0.1288 -0.1004 -0.1313
  479loPI   C4B 7664  11.692   5.952   8.294 -0.3451  0.2972  0.1791
  480loPI    C1 7665  15.135   8.294  10.778 -0.1747 -0.2256 -0.0377
  480loPI    C2 7666  14.984   8.265  11.147 -0.0072  0.0396  0.0550
  480loPI    C3 7667  15.364   8.161  11.078  0.1056  0.4341  0.0584
  480loPI   PO4 7668  14.982   8.224  10.518 -0.4746  0.0187  0.1294
  480loPI   GL1 7669  15.020   8.198  10.119  0.3119 -0.1252  0.2099
  480loPI   GL2 7670  15.330   8.055  10.137  0.0661 -0.2578 -0.0168
  480loPI   C1A 7671  14.819   8.256   9.791  0.0288 -0.1986 -0.2165
  480loPI   C2A 7672  14.809   8.314   9.332 -0.3900  0.4771  0.4039
  480loPI   C3A 7673  14.966   8.237   8.879  0.0516 -0.2405  0.2079
  480loPI   C4A 7674  14.821   8.312   8.404 -0.6567 -0.0631  0.1650
  480loPI   C5A 7675  14.931   8.127   8.148  0.1117  0.2635  0.2160
  480loPI   C6A 7676  14.705   7.769   7.947 -0.0591 -0.4512 -0.0984
  480loPI   C1B 7677  15.381   8.146   9.664  0.1231 -0.2187 -0.1307
  480loPI   C2B 7678  15.344   8.218   9.209 -0.0973 -0.0719  0.2105
  480loPI   C3B 7679  15.429   8.106   8.810  0.0353 -0.0745 -0.1843
  480loPI   C4B 7680  15.412   8.152   8.407  0.0885 -0.2222  0.1391
  481loPI    C1 7681  12.069   5.058  10.724  0.0062  0.2152  0.1102
  481loPI    C2 7682  12.256   5.040  11.077  0.0222  0.0129  0.0924
  481loPI    C3 7683  12.086   4.712  10.923  0.1959  0.0503 -0.1850
  481loPI   PO4 7684  12.163   5.175  10.550 -0.1992  0.6333 -0.1970
  481loPI   GL1 7685  12.135   5.259  10.088  0.0280  0.1421  0.2719
  481loPI   GL2 7686  12.451   5.120   9.945  0.0182  0.3205  0.0294
  481loPI   C1A 7687  11.919   5.300   9.637  0.0079  0.0576 -0.2808
  481loPI   C2A 7688  11.952   5.375   9.199  0.1004  0.0724 -0.3071
  481loPI   C3A 7689  11.968   5.280   8.728 -0.1907  0.0929  0.2084
  481loPI   C4A 7690  11.931   5.414   8.257 -0.1006 -0.0668  0.0569
  481loPI   C5A 7691  11.679   5.307   7.902  0.0575  0.0173  0.0066
  481loPI   C6A 7692  11.410   5.387   7.642 -0.0383 -0.1380  0.1961
  481loPI   C1B 7693  12.387   5.154   9.490 -0.0834 -0.0285  0.2804
  481loPI   C2B 7694  12.397   5.152   8.981  0.0112 -0.3243 -0.0047
  481loPI   C3B 7695  12.425   5.153   8.560 -0.2840  0.0724 -0.2336
  481loPI   C4B 7696  12.418   5.222   8.121  0.4213  0.1587 -0.2619
  482loPI    C1 7697  11.117  16.523  10.784  0.0476 -0.1215  0.0830
  482loPI    C2 7698  11.147  16.884  10.614  0.1559 -0.1443  0.0531
  482loPI    C3 7699  11.131  16.851  11.012 -0.2034 -0.0835  0.0466
  482loPI   PO4 7700  11.241  16.377  10.615 -0.1549  0.0844  0.0292
  482loPI   GL1 7701  11.540  16.530  10.308 -0.1370  0.3718  0.2239
  482loPI   GL2 7702  11.688  16.280  10.464  0.3245  0.1582  0.0955
  482loPI   C1A 7703  11.708  16.483   9.896  0.0857 -0.1592 -0.0952
  482loPI   C2A 7704  11.543  16.292   9.488 -0.2842 -0.3565  0.3391
  482loPI   C3A 7705  11.573  16.406   9.031 -0.1871  0.2173 -0.0858
  482loPI   C4A 7706  11.582  16.306   8.563 -0.1592  0.3542  0.1327
  482loPI   C5A 7707  11.215  16.440   8.216 -0.2749 -0.0315  0.0692
  482loPI   C6A 7708  11.148  16.628   7.806  0.1526  0.1940  0.0638
  482loPI   C1B 7709  11.849  16.063  10.158  0.2134 -0.1475  0.4051
  482loPI   C2B 7710  11.699  15.883   9.712 -0.0520 -0.0427  0.0278
  482loPI   C3B 7711  11.708  15.958   9.223  0.0172  0.1284 -0.1986
  482loPI   C4B 7712  11.689  15.858   8.742  0.2491 -0.1083  0.0472
  483loPI    C1 7713  12.223   1.004  10.683  0.1926  0.0812 -0.0758
  483loPI    C2 7714  12.106   1.276  10.415 -0.0131  0.2477  0.1786
  483loPI    C3 7715  12.248   1.393  10.770 -0.1921  0.0239  0.3270
  483loPI   PO4 7716  12.403   0.833  10.525 -0.0163  0.0944  0.1357
  483loPI   GL1 7717  12.582   0.775  10.148  0.1821  0.3680  0.0724
  483loPI   GL2 7718  12.549   0.510  10.215  0.2832 -0.0585 -0.0039
  483loPI   C1A 7719  12.674   0.985   9.766  0.1263 -0.4075 -0.2380
  483loPI   C2A 7720  12.738   0.926   9.298 -0.2594 -0.1037 -0.1096
  483loPI   C3A 7721  12.628   0.844   8.830 -0.1093 -0.0241  0.1468
  483loPI   C4A 7722  12.552   0.872   8.382  0.1092 -0.1383 -0.2001
  483loPI   C5A 7723  12.398   1.011   7.962  0.1427  0.2540 -0.0740
  483loPI   C6A 7724  12.041   1.264   7.919 -0.1566 -0.2089 -0.0502
  483loPI   C1B 7725  12.390   0.553   9.734  0.2045  0.3332 -0.1126
  483loPI   C2B 7726  12.342   0.577   9.327  0.1920 -0.1669 -0.0546
  483loPI   C3B 7727  12.269   0.492   8.967 -0.0004 -0.1901  0.0769
  483loPI   C4B 7728  12.290   0.477   8.503  0.0881  0.2906  0.1753
  484loPI    C1 7729  10.871   3.747  10.564 -0.3812 -0.1532 -0.2413
  484loPI    C2 7730  10.862   3.409  10.778  0.0339  0.0419  0.0998
  484loPI    C3 7731  10.560   3.669  10.804  0.0295  0.0126  0.3696
  484loPI   PO4 7732  10.974   3.644  10.262  0.1344  0.0103 -0.3058
  484loPI   GL1 7733  10.915   3.926   9.940  0.2085  0.0334  0.1287
  484loPI   GL2 7734  10.756   4.211   9.801 -0.1418 -0.2012  0.0128
  484loPI   C1A 7735  10.940   3.721   9.568 -0.0805 -0.2916  0.2173
  484loPI   C2A 7736  10.958   3.651   9.106  0.0081 -0.1996  0.0561
  484loPI   C3A 7737  10.951   3.724   8.650  0.1171 -0.0295  0.2418
  484loPI   C4A 7738  10.980   3.768   8.179 -0.0914  0.3966 -0.2646
  484loPI   C5A 7739  11.147   3.915   7.900 -0.1053 -0.1135  0.0226
  484loPI   C6A 7740  11.437   4.084   7.606 -0.1355 -0.1695 -0.0502
  484loPI   C1B 7741  10.699   4.259   9.392  0.0658  0.1075 -0.0262
  484loPI   C2B 7742  10.850   4.186   8.990  0.1702  0.1289  0.1341
  484loPI   C3B 7743  10.876   4.203   8.568 -0.0630  0.2074  0.0555
  484loPI   C4B 7744  10.840   4.261   8.164 -0.0099 -0.2238  0.2506
  485loPI    C1 7745  13.933   3.867  10.630  0.0358  0.0204  0.0906
  485loPI    C2 7746  13.974   3.633  10.951  0.0917  0.1490  0.1780
  485loPI    C3 7747  13.835   4.005  10.992 -0.5126 -0.0434 -0.0246
  485loPI   PO4 7748  13.797   3.741  10.453  0.0035  0.1857 -0.2422
  485loPI   GL1 7749  13.905   3.718   9.986  0.0449 -0.0095  0.1123
  485loPI   GL2 7750  14.294   3.770   9.889 -0.3857  0.1803 -0.2608
  485loPI   C1A 7751  13.794   3.840   9.584  0.2187  0.0228  0.0103
  485loPI   C2A 7752  13.766   3.822   9.160  0.1250 -0.2012 -0.0227
  485loPI   C3A 7753  13.737   3.854   8.690 -0.0429 -0.0810  0.1194
  485loPI   C4A 7754  13.707   3.811   8.205 -0.4377  0.0854  0.2259
  485loPI   C5A 7755  13.902   4.068   7.873 -0.1961  0.3378 -0.2386
  485loPI   C6A 7756  14.155   4.041   7.560 -0.0866 -0.2531 -0.1434
  485loPI   C1B 7757  14.266   3.776   9.481 -0.1172  0.2374  0.0853
  485loPI   C2B 7758  14.294   3.744   9.017  0.1037 -0.0370  0.1447
  485loPI   C3B 7759  14.301   3.764   8.600 -0.0460 -0.0053 -0.0755
  485loPI   C4B 7760  14.160   3.628   8.221 -0.1020  0.2689  0.2909
  486loPI    C1 7761   2.198   2.318  10.066 -0.1150 -0.0849 -0.0557
  486loPI    C2 7762   2.149   2.450   9.692 -0.1946  0.0495  0.0011
  486loPI    C3 7763   1.840   2.290   9.889 -0.0866 -0.2742 -0.0852
  486loPI   PO4 7764   2.414   2.208  10.030 -0.1672  0.0706  0.2460
  486loPI   GL1 7765   2.747   1.965   9.758 -0.1740  0.0850  0.2945
  486loPI   GL2 7766   2.790   1.674   9.753 -0.2592 -0.0867  0.1772
  486loPI   C1A 7767   2.880   2.332   9.410  0.2390  0.0619 -0.0468
  486loPI   C2A 7768   2.957   2.463   9.045 -0.2965  0.3379 -0.0336
  486loPI   C3A 7769   2.795   2.733   8.693 -0.0724 -0.2883  0.0519
  486loPI   C4A 7770   2.860   2.842   8.288  0.2174  0.0960 -0.1214
  486loPI   C5A 7771   3.048   2.631   7.881 -0.0379  0.0931 -0.2298
  486loPI   C6A 7772   3.449   2.681   7.732 -0.0051  0.2672  0.0113
  486loPI   C1B 7773   2.886   1.672   9.371  0.2330  0.0776 -0.1315
  486loPI   C2B 7774   3.013   1.939   9.036 -0.3249 -0.1756 -0.1086
  486loPI   C3B 7775   3.260   2.023   8.741 -0.2462  0.0438 -0.1004
  486loPI   C4B 7776   3.593   1.895   8.795  0.0422 -0.2396  0.0275
  487loPI    C1 7777  16.305   0.894   9.927  0.0808  0.0284  0.0215
  487loPI    C2 7778  16.439   1.227  10.106 -0.2280  0.1248  0.0790
  487loPI    C3 7779  16.220   0.963  10.312 -0.0565 -0.0742  0.0102
  487loPI   PO4 7780  16.261   1.011   9.687  0.0150 -0.0674  0.0388
  487loPI   GL1 7781  16.390   1.057   9.354 -0.0134  0.3621 -0.0583
  487loPI   GL2 7782  16.085   0.873   9.256  0.1753 -0.1406  0.2709
  487loPI   C1A 7783  16.531   1.204   8.981 -0.1701  0.1035  0.3187
  487loPI   C2A 7784  16.594   1.207   8.558 -0.0760 -0.1242  0.2057
  487loPI   C3A 7785  16.772   1.110   8.167  0.2116 -0.1777 -0.0155
  487loPI   C4A 7786  16.683   1.093   7.721  0.0245 -0.0639  0.3274
  487loPI   C5A 7787  16.628   0.782   7.417  0.0489  0.2690 -0.0417
  487loPI   C6A 7788  16.652   0.354   7.131 -0.2476  0.0841 -0.0438
  487loPI   C1B 7789  16.119   1.033   8.856  0.0613 -0.0397 -0.0960
  487loPI   C2B 7790  16.037   0.869   8.482  0.3660 -0.4392 -0.3223
  487loPI   C3B 7791  16.262   1.059   8.114 -0.1366 -0.1259  0.1005
  487loPI   C4B 7792  16.234   0.936   7.713  0.0152 -0.0077 -0.1926
  488loPI    C1 7793   4.636  12.880  10.605 -0.0760  0.2326  0.0207
  488loPI    C2 7794   4.812  12.521  10.613 -0.2343  0.1497 -0.1442
  488loPI    C3 7795   4.555  12.623  10.901  0.0535  0.2583  0.0793
  488loPI   PO4 7796   4.553  12.843  10.267  0.3003 -0.0936 -0.1030
  488loPI   GL1 7797   4.409  12.903   9.799 -0.1134  0.0080 -0.0316
  488loPI   GL2 7798   4.528  12.670   9.757  0.0822 -0.0627 -0.0529
  488loPI   C1A 7799   4.467  12.925   9.336 -0.0770  0.3678 -0.0483
  488loPI   C2A 7800   4.417  12.893   8.868 -0.0787  0.1116  0.2135
  488loPI   C3A 7801   4.438  12.927   8.431  0.0653  0.0160  0.2623
  488loPI   C4A 7802   4.483  12.812   7.945 -0.1356  0.2676 -0.1376
  488loPI   C5A 7803   4.703  12.605   7.584 -0.1259  0.0138 -0.0709
  488loPI   C6A 7804   4.987  12.410   7.613  0.1677  0.2443  0.3832
  488loPI   C1B 7805   4.619  12.444   9.369  0.1879 -0.0456 -0.0229
  488loPI   C2B 7806   4.639  12.364   8.921 -0.1801  0.0931 -0.2489
  488loPI   C3B 7807   4.693  12.346   8.559  0.1857  0.0166 -0.1261
  488loPI   C4B 7808   4.754  12.438   8.104  0.1128  0.0542  0.1390
  489loPI    C1 7809  16.550  13.806  10.764  0.3412 -0.0049  0.0305
  489loPI    C2 7810  16.695  14.128  10.576  0.1064  0.0915  0.0103
  489loPI    C3 7811  16.691  14.115  10.976  0.1128  0.1144  0.0111
  489loPI   PO4 7812  16.436  13.715  10.573  0.0516 -0.0884  0.2157
  489loPI   GL1 7813  16.428  13.820  10.188 -0.0132  0.1418 -0.0067
  489loPI   GL2 7814  16.532  13.493  10.061  0.0341  0.0630 -0.4809
  489loPI   C1A 7815  16.400  14.057   9.750  0.0170 -0.2886  0.1077
  489loPI   C2A 7816  16.430  14.068   9.274  0.2537 -0.1192 -0.0599
  489loPI   C3A 7817  16.534  13.947   8.920 -0.2631 -0.1472  0.4588
  489loPI   C4A 7818  16.487  13.971   8.425 -0.3274 -0.2348  0.2657
  489loPI   C5A 7819  16.283  13.984   8.041 -0.0580 -0.1254  0.0467
  489loPI   C6A 7820  16.306  14.224   7.627 -0.0574  0.1210 -0.0761
  489loPI   C1B 7821  16.535  13.565   9.645  0.0976 -0.2015 -0.0405
  489loPI   C2B 7822  16.611  13.603   9.268  0.2621  0.3457  0.2124
  489loPI   C3B 7823  16.584  13.444   8.748  0.0595 -0.1009  0.1412
  489loPI   C4B 7824  16.671  13.492   8.402 -0.0035  0.1142 -0.1533
  490loPI    C1 7825   1.379  12.480  10.602 -0.2928  0.0329 -0.0097
  490loPI    C2 7826   1.438  12.752  10.889  0.1273  0.0539 -0.1095
  490loPI    C3 7827   1.222  12.424  10.965  0.2623  0.0424  0.2420
  490loPI   PO4 7828   1.445  12.585  10.433  0.2365 -0.0093  0.1649
  490loPI   GL1 7829   1.321  12.582  10.044  0.0395 -0.0896  0.0226
  490loPI   GL2 7830   1.111  12.773  10.085 -0.2079 -0.0642  0.1508
  490loPI   C1A 7831   1.599  12.609   9.718 -0.0827  0.1216  0.2965
  490loPI   C2A 7832   1.767  12.543   9.261 -0.2340  0.4436  0.2327
  490loPI   C3A 7833   1.698  12.570   8.857 -0.1797 -0.0817 -0.1520
  490loPI   C4A 7834   1.769  12.591   8.455  0.1986 -0.0914  0.3176
  490loPI   C5A 7835   1.819  12.701   8.058  0.2304 -0.1680 -0.1130
  490loPI   C6A 7836   1.741  12.943   7.748  0.3435 -0.2454  0.3429
  490loPI   C1B 7837   1.124  12.644   9.591 -0.0705 -0.2715  0.0102
  490loPI   C2B 7838   1.217  12.685   9.101  0.1230  0.2257 -0.0168
  490loPI   C3B 7839   1.147  12.634   8.649  0.3519  0.2068  0.0471
  490loPI   C4B 7840   0.842  12.340   8.328  0.3164  0.1877  0.3080
  491loPI    C1 7841  14.605  10.618  10.682  0.2338  0.0478 -0.0949
  491loPI    C2 7842  14.972  10.527  10.810  0.0683 -0.5256 -0.0022
  491loPI    C3 7843  14.697  10.657  11.069  0.1611 -0.2306 -0.0479
  491loPI   PO4 7844  14.600  10.394  10.436 -0.1192 -0.0317 -0.0393
  491loPI   GL1 7845  14.697  10.406   9.978 -0.0010  0.3689 -0.1234
  491loPI   GL2 7846  14.860  10.162   9.915 -0.0943  0.2406  0.0436
  491loPI   C1A 7847  14.603  10.723   9.620 -0.5290 -0.0893 -0.2404
  491loPI   C2A 7848  14.606  10.787   9.169  0.1715  0.0153 -0.0498
  491loPI   C3A 7849  14.650  10.711   8.708  0.0129 -0.0816  0.0743
  491loPI   C4A 7850  14.769  10.675   8.253  0.0704  0.1201  0.0732
  491loPI   C5A 7851  15.029  10.698   7.895  0.1632 -0.1699  0.0605
  491loPI   C6A 7852  14.924  11.086   7.638  0.2484  0.2887 -0.2926
  491loPI   C1B 7853  14.770  10.219   9.445  0.0735  0.0553 -0.1199
  491loPI   C2B 7854  14.736  10.236   9.014 -0.0139  0.1817 -0.1168
  491loPI   C3B 7855  14.811  10.210   8.652 -0.1176  0.0050 -0.1184
  491loPI   C4B 7856  14.848  10.102   8.174 -0.1188 -0.3648  0.2950
  492loPI    C1 7857   1.826   1.780  10.539 -0.0383  0.2145  0.0213
  492loPI    C2 7858   2.061   2.003  10.773  0.0771  0.1245 -0.0081
  492loPI    C3 7859   1.700   1.891  10.902  0.1493  0.0552  0.1371
  492loPI   PO4 7860   1.783   1.957  10.303  0.1013 -0.3959  0.0921
  492loPI   GL1 7861   1.582   1.864   9.860  0.0653  0.1121 -0.1181
  492loPI   GL2 7862   1.358   1.792   9.640  0.2032 -0.1111  0.0835
  492loPI   C1A 7863   1.854   2.055   9.500 -0.0651 -0.3383  0.0411
  492loPI   C2A 7864   1.993   2.224   9.146 -0.1968 -0.0306 -0.0729
  492loPI   C3A 7865   1.890   2.260   8.721  0.0160  0.3963 -0.0928
  492loPI   C4A 7866   1.988   2.064   8.276  0.1439  0.0111 -0.0129
  492loPI   C5A 7867   2.212   1.890   7.864  0.4972 -0.1447  0.3387
  492loPI   C6A 7868   2.157   1.822   7.399  0.0378 -0.2973 -0.0410
  492loPI   C1B 7869   1.391   1.782   9.290  0.2993  0.0915  0.1330
  492loPI   C2B 7870   1.085   1.718   8.891  0.0229 -0.1276 -0.1275
  492loPI   C3B 7871   1.067   1.708   8.453  0.1964  0.3753  0.1657
  492loPI   C4B 7872   0.912   1.437   8.137 -0.4352  0.0138 -0.0899
  493loPI    C1 7873   8.817  14.776  10.777 -0.1991  0.1259 -0.2803
  493loPI    C2 7874   8.689  14.397  10.796  0.1055  0.0223 -0.2371
  493loPI    C3 7875   8.489  14.686  10.987 -0.0129 -0.1484 -0.0992
  493loPI   PO4 7876   8.856  14.850  10.576  0.0102  0.1237  0.0593
  493loPI   GL1 7877   9.052  14.948  10.216  0.1785  0.0138  0.0710
  493loPI   GL2 7878   9.142  14.707   9.980 -0.0700  0.0384 -0.0572
  493loPI   C1A 7879   8.985  15.149   9.780 -0.2804  0.1607  0.2227
  493loPI   C2A 7880   9.032  15.052   9.391  0.0773  0.0696 -0.2327
  493loPI   C3A 7881   9.101  15.084   8.926  0.2802 -0.1318  0.0154
  493loPI   C4A 7882   9.174  15.068   8.474 -0.2305 -0.1315 -0.0545
  493loPI   C5A 7883   8.870  14.888   8.114 -0.1044  0.0614  0.1000
  493loPI   C6A 7884   8.851  14.510   7.824 -0.5051 -0.0089  0.1054
  493loPI   C1B 7885   9.186  14.597   9.577  0.1945  0.1323 -0.2218
  493loPI   C2B 7886   9.108  14.619   9.173  0.0599  0.1283 -0.1447
  493loPI   C3B 7887   9.218  14.538   8.720 -0.0293 -0.1375 -0.0830
  493loPI   C4B 7888   9.176  14.350   8.270  0.1641 -0.0861 -0.3711
  494loPI    C1 7889   5.051  16.885  10.395 -0.0310  0.1992  0.0781
  494loPI    C2 7890   4.837  16.547  10.398 -0.0169  0.1906  0.1846
  494loPI    C3 7891   4.995  16.687  10.738  0.1707  0.1819  0.1024
  494loPI   PO4 7892   5.256  16.878  10.199  0.1806  0.2330 -0.1070
  494loPI   GL1 7893   5.518  16.734   9.870 -0.0487  0.2973 -0.4637
  494loPI   GL2 7894   5.184  16.793   9.703 -0.1244 -0.0287 -0.2176
  494loPI   C1A 7895   5.576  16.816   9.446  0.0726  0.1843 -0.1732
  494loPI   C2A 7896   5.569  16.844   9.024 -0.0834  0.1861  0.2594
  494loPI   C3A 7897   5.852  16.867   8.654 -0.0990  0.1675 -0.0566
  494loPI   C4A 7898   5.820  16.858   8.175 -0.0502 -0.0268 -0.1201
  494loPI   C5A 7899   6.029  16.572   7.920 -0.1979  0.1336  0.2115
  494loPI   C6A 7900   6.047  16.586   7.373  0.1030 -0.1438 -0.3230
  494loPI   C1B 7901   5.110  17.008   9.272 -0.2597 -0.0822  0.1018
  494loPI   C2B 7902   5.212  17.092   8.787  0.1987 -0.0494  0.0924
  494loPI   C3B 7903   5.305  16.989   8.451 -0.2023  0.1819 -0.0845
  494loPI   C4B 7904   5.302  16.865   7.955  0.2079 -0.2502  0.2512
  495loPI    C1 7905  14.352  14.930  10.260  0.3155 -0.1104  0.0585
  495loPI    C2 7906  14.457  15.196  10.540 -0.0399 -0.0474  0.1367
  495loPI    C3 7907  14.379  14.817  10.643  0.2208 -0.1231  0.0618
  495loPI   PO4 7908  14.554  15.053  10.037 -0.1669  0.2834 -0.0650
  495loPI   GL1 7909  14.446  15.273   9.702  0.0232  0.3664  0.1636
  495loPI   GL2 7910  14.148  15.418   9.653  0.2511 -0.2061 -0.0098
  495loPI   C1A 7911  14.396  15.215   9.291 -0.1241 -0.1162  0.0090
  495loPI   C2A 7912  14.345  15.162   8.846  0.0399  0.1616 -0.0621
  495loPI   C3A 7913  14.056  15.232   8.519  0.1336  0.1797 -0.3772
  495loPI   C4A 7914  13.839  15.427   8.192 -0.0155  0.0356 -0.1582
  495loPI   C5A 7915  13.393  15.560   8.109 -0.1210  0.0392  0.0308
  495loPI   C6A 7916  13.108  15.330   7.770 -0.1985 -0.2058 -0.1500
  495loPI   C1B 7917  13.890  15.333   9.359  0.1376 -0.1063 -0.1959
  495loPI   C2B 7918  13.901  15.430   8.970 -0.3448 -0.1681  0.0027
  495loPI   C3B 7919  13.636  15.507   8.694 -0.0386  0.0856  0.0758
  495loPI   C4B 7920  13.589  15.909   8.386 -0.1100 -0.1472 -0.0715
  496loPI    C1 7921   1.784  12.151  10.509  0.0638  0.1380  0.0960
  496loPI    C2 7922   1.866  12.470  10.737  0.0964  0.0909  0.1503
  496loPI    C3 7923   1.647  12.170  10.885 -0.0982  0.1749  0.0359
  496loPI   PO4 7924   1.796  12.237  10.305  0.2278  0.0392  0.0101
  496loPI   GL1 7925   2.065  12.387   9.993 -0.0278 -0.0997 -0.0468
  496loPI   GL2 7926   1.883  12.183   9.750  0.1054  0.2068  0.1954
  496loPI   C1A 7927   2.191  12.393   9.505  0.0217 -0.1750  0.1882
  496loPI   C2A 7928   2.160  12.382   9.038  0.5301 -0.0014  0.0032
  496loPI   C3A 7929   2.219  12.455   8.671  0.3586  0.1577 -0.0029
  496loPI   C4A 7930   2.333  12.566   8.272  0.4615 -0.2907  0.3943
  496loPI   C5A 7931   2.658  12.621   8.067 -0.0082  0.2467 -0.2223
  496loPI   C6A 7932   3.067  12.508   7.895 -0.2828 -0.0211  0.1871
  496loPI   C1B 7933   1.793  12.057   9.284 -0.1143 -0.2191  0.0242
  496loPI   C2B 7934   1.863  11.993   8.784  0.1334  0.1427 -0.2392
  496loPI   C3B 7935   1.863  12.109   8.367 -0.2353  0.0849  0.1611
  496loPI   C4B 7936   2.037  12.249   7.961 -0.3482  0.0035  0.2449
  497loPI    C1 7937   1.928  18.257   9.917 -0.1465 -0.0704  0.1670
  497loPI    C2 7938   1.626  18.124  10.144  0.0058  0.1129  0.4843
  497loPI    C3 7939   1.981  17.938  10.152 -0.0700 -0.0533  0.1732
  497loPI   PO4 7940   1.866  18.232   9.695  0.0168 -0.3215 -0.1714
  497loPI   GL1 7941   1.924  18.335   9.280  0.1012 -0.0070 -0.1570
  497loPI   GL2 7942   2.242  18.309   9.280  0.1538  0.1111  0.2079
  497loPI   C1A 7943   1.980  18.430   8.859 -0.0077  0.0226  0.0758
  497loPI   C2A 7944   1.948  18.434   8.409 -0.4260  0.0853  0.0905
  497loPI   C3A 7945   1.704  18.269   8.003 -0.0657 -0.0458  0.0670
  497loPI   C4A 7946   1.444  18.516   7.811 -0.0896  0.1899  0.1504
  497loPI   C5A 7947   1.508  18.749   7.467  0.1238 -0.3236  0.1260
  497loPI   C6A 7948   1.864  18.732   7.200 -0.2757  0.1067  0.1356
  497loPI   C1B 7949   2.528  18.312   8.944 -0.1231  0.1405  0.3142
  497loPI   C2B 7950   2.618  18.351   8.524  0.0008 -0.0110  0.0544
  497loPI   C3B 7951   2.461  18.413   8.223 -0.1847 -0.0481 -0.1295
  497loPI   C4B 7952   2.514  18.563   7.797 -0.0014 -0.0129 -0.0347
  498loPI    C1 7953   4.390   3.572  10.441 -0.2109 -0.0168  0.1583
  498loPI    C2 7954   4.059   3.349  10.418 -0.3323  0.1837 -0.0908
  498loPI    C3 7955   4.177   3.496  10.771 -0.4436  0.0163  0.0175
  498loPI   PO4 7956   4.608   3.438  10.218  0.1343 -0.0684  0.0012
  498loPI   GL1 7957   4.768   3.539   9.848 -0.1123  0.2827 -0.0773
  498loPI   GL2 7958   5.063   3.615   9.741 -0.0351  0.2316  0.2863
  498loPI   C1A 7959   4.568   3.626   9.495 -0.0324 -0.1117  0.2737
  498loPI   C2A 7960   4.442   3.623   8.936 -0.2134 -0.2025 -0.1052
  498loPI   C3A 7961   4.678   3.782   8.528  0.0535 -0.1105  0.3458
  498loPI   C4A 7962   4.812   3.773   8.084 -0.1598 -0.0827 -0.0455
  498loPI   C5A 7963   5.006   3.469   7.742 -0.1703  0.1736  0.0548
  498loPI   C6A 7964   4.814   3.174   7.400  0.2130  0.1093  0.2322
  498loPI   C1B 7965   5.085   3.745   9.414 -0.1132 -0.3115  0.5299
  498loPI   C2B 7966   5.060   3.804   9.012  0.0794  0.0709 -0.5502
  498loPI   C3B 7967   5.366   3.758   8.673  0.0436  0.0889 -0.1424
  498loPI   C4B 7968   5.271   3.566   8.183 -0.4898 -0.1534 -0.3162
  499loPI    C1 7969   2.644  16.293  10.171  0.1742  0.2485  0.1401
  499loPI    C2 7970   3.013  16.160  10.093  0.0815 -0.0466  0.1920
  499loPI    C3 7971   2.799  15.994  10.387  0.0235  0.3335  0.3698
  499loPI   PO4 7972   2.578  16.469   9.915 -0.0364 -0.2391 -0.0472
  499loPI   GL1 7973   2.585  16.593   9.559  0.0275  0.2435  0.3035
  499loPI   GL2 7974   2.473  16.728   9.300 -0.0748 -0.0445  0.3480
  499loPI   C1A 7975   2.891  16.578   9.176 -0.2371 -0.0905  0.3049
  499loPI   C2A 7976   2.959  16.643   8.791  0.1299 -0.1241  0.0386
  499loPI   C3A 7977   2.894  16.569   8.283  0.1065  0.0503  0.0467
  499loPI   C4A 7978   2.656  16.486   7.789 -0.0333 -0.2452 -0.0964
  499loPI   C5A 7979   2.191  16.496   7.555  0.1074  0.1523  0.1221
  499loPI   C6A 7980   2.037  16.597   7.066 -0.1325  0.2395  0.1549
  499loPI   C1B 7981   2.430  16.705   8.888 -0.2589  0.0012  0.0697
  499loPI   C2B 7982   2.434  16.949   8.506  0.1353  0.3001 -0.0784
  499loPI   C3B 7983   2.473  16.881   8.059  0.3386 -0.1134  0.0625
  499loPI   C4B 7984   2.674  16.977   7.688 -0.2475 -0.0688  0.3702
  500loPI    C1 7985  15.442   9.244  10.535  0.1763 -0.0271 -0.0594
  500loPI    C2 7986  15.438   9.193  10.931  0.0526  0.1243 -0.0400
  500loPI    C3 7987  15.602   9.522  10.774  0.3778 -0.0777 -0.1335
  500loPI   PO4 7988  15.173   9.139  10.394 -0.2504  0.2319 -0.1090
  500loPI   GL1 7989  15.037   9.064  10.020 -0.1011 -0.0117  0.0984
  500loPI   GL2 7990  15.231   8.766   9.906 -0.2088  0.1868 -0.0552
  500loPI   C1A 7991  15.139   9.194   9.680  0.1552  0.2420  0.4615
  500loPI   C2A 7992  15.170   9.147   9.238 -0.1760  0.1585 -0.0158
  500loPI   C3A 7993  15.074   9.176   8.801  0.3721  0.4250 -0.2249
  500loPI   C4A 7994  15.075   9.275   8.277 -0.2248 -0.2073 -0.2517
  500loPI   C5A 7995  15.271   9.089   7.978  0.0218  0.1275 -0.2114
  500loPI   C6A 7996  15.432   8.843   7.596  0.0357  0.3460  0.0409
  500loPI   C1B 7997  15.207   8.645   9.473  0.1271 -0.0830  0.3188
  500loPI   C2B 7998  15.259   8.666   9.023 -0.0677 -0.4161  0.1979
  500loPI   C3B 7999  15.196   8.598   8.610  0.2976  0.0302  0.4441
  500loPI   C4B 8000  15.276   8.554   8.114  0.1468 -0.4344 -0.1014
  501loPI    C1 8001   6.195  17.976  10.287 -0.0036 -0.0017 -0.0172
  501loPI    C2 8002   5.818  17.967  10.422  0.0337  0.1112  0.0973
  501loPI    C3 8003   6.123  17.911  10.675  0.0939 -0.0058  0.0004
  501loPI   PO4 8004   6.195  17.909   9.976  0.1628  0.0913 -0.4041
  501loPI   GL1 8005   6.324  18.039   9.674 -0.0846  0.3901  0.1306
  501loPI   GL2 8006   6.593  18.072   9.613 -0.2353 -0.2271  0.0738
  501loPI   C1A 8007   6.211  18.057   9.238  0.0857  0.1010  0.1245
  501loPI   C2A 8008   6.329  18.049   8.870  0.1618 -0.0420 -0.2579
  501loPI   C3A 8009   6.418  18.123   8.399  0.0414  0.0773 -0.0403
  501loPI   C4A 8010   6.508  18.101   7.970  0.2811  0.4228  0.3298
  501loPI   C5A 8011   6.493  18.204   7.604  0.0035 -0.0080 -0.1338
  501loPI   C6A 8012   6.271  18.348   7.230 -0.3164 -0.0183 -0.0589
  501loPI   C1B 8013   6.740  17.968   9.106  0.0397 -0.5263  0.0480
  501loPI   C2B 8014   6.923  18.053   8.667  0.2459 -0.3438  0.2662
  501loPI   C3B 8015   6.962  18.104   8.219  0.1558 -0.0346 -0.0405
  501loPI   C4B 8016   6.946  18.317   7.863  0.0112 -0.2193 -0.0216
  502loPI    C1 8017   0.252  11.839  11.093  0.1260  0.0368  0.1422
  502loPI    C2 8018   0.425  12.189  11.181 -0.1431  0.1896  0.0746
  502loPI    C3 8019   0.152  12.033  11.429 -0.1352  0.1028  0.0290
  502loPI   PO4 8020   0.085  11.856  10.723 -0.0453 -0.1492  0.0984
  502loPI   GL1 8021   0.137  11.979  10.254  0.1947 -0.1943 -0.2872
  502loPI   GL2 8022   0.095  11.499  10.235  0.2293 -0.1458 -0.1880
  502loPI   C1A 8023   0.354  12.037   9.845 -0.0904  0.2741  0.5192
  502loPI   C2A 8024   0.388  11.927   9.392  0.0427 -0.1838  0.0921
  502loPI   C3A 8025   0.499  11.951   8.990  0.1213  0.1941  0.0300
  502loPI   C4A 8026   0.487  11.973   8.587 -0.0186  0.0674  0.0677
  502loPI   C5A 8027   0.464  11.945   8.218 -0.0259 -0.4156 -0.0998
  502loPI   C6A 8028   0.635  11.900   7.897  0.1742  0.0406 -0.1725
  502loPI   C1B 8029   0.030  11.628   9.859 -0.0079  0.0432 -0.2449
  502loPI   C2B 8030   0.097  11.530   9.413 -0.1284 -0.2976  0.0531
  502loPI   C3B 8031   0.119  11.531   8.934  0.0557 -0.3310  0.1540
  502loPI   C4B 8032   0.179  11.528   8.503 -0.1505 -0.0708  0.2553
  503loPI    C1 8033  12.842   0.075  10.596 -0.0437  0.1828  0.1267
  503loPI    C2 8034  12.465   0.111  10.726 -0.0986  0.1902 -0.0316
  503loPI    C3 8035  12.705  -0.169  10.883 -0.1472  0.2321  0.1197
  503loPI   PO4 8036  12.741   0.103  10.352 -0.0035 -0.2859  0.1425
  503loPI   GL1 8037  12.625  -0.044   9.993  0.0864  0.0704  0.0452
  503loPI   GL2 8038  12.806  -0.383  10.003 -0.1106 -0.0650 -0.2176
  503loPI   C1A 8039  12.611   0.038   9.609  0.0873 -0.0153  0.1047
  503loPI   C2A 8040  12.469   0.045   9.172  0.1819  0.0293  0.3342
  503loPI   C3A 8041  12.397  -0.010   8.752 -0.0345 -0.1573 -0.4041
  503loPI   C4A 8042  12.285  -0.107   8.364 -0.0448 -0.2837  0.0120
  503loPI   C5A 8043  12.186  -0.195   7.983  0.4889  0.1623 -0.1292
  503loPI   C6A 8044  12.224   0.003   7.618  0.0285  0.1649  0.1244
  503loPI   C1B 8045  12.635  -0.530   9.599 -0.0781  0.0890 -0.2187
  503loPI   C2B 8046  12.641  -0.470   9.071  0.1346  0.1310 -0.0534
  503loPI   C3B 8047  12.526  -0.625   8.656 -0.1012  0.1744  0.2515
  503loPI   C4B 8048  12.439  -0.659   8.280  0.0274  0.3040 -0.2292
  504loPI    C1 8049  17.518   3.806  10.332  0.1129 -0.1209  0.0501
  504loPI    C2 8050  17.696   3.466  10.445  0.2667 -0.0377  0.0610
  504loPI    C3 8051  17.724   3.793  10.674  0.1144 -0.0187  0.0533
  504loPI   PO4 8052  17.607   3.897  10.162 -0.0910 -0.1226 -0.0460
  504loPI   GL1 8053  17.583   3.929   9.598 -0.1483 -0.1287  0.1745
  504loPI   GL2 8054  17.435   4.205   9.622 -0.1268  0.1424  0.0703
  504loPI   C1A 8055  17.567   3.970   9.134  0.0695  0.0187  0.1375
  504loPI   C2A 8056  17.684   3.839   8.710 -0.0585 -0.3817  0.0794
  504loPI   C3A 8057  17.554   3.620   8.377  0.1452 -0.0646 -0.1482
  504loPI   C4A 8058  17.640   3.505   7.917 -0.1439 -0.0629  0.0071
  504loPI   C5A 8059  17.696   3.336   7.595 -0.1703 -0.0197 -0.1439
  504loPI   C6A 8060  17.441   3.115   7.391  0.2331  0.3130 -0.0907
  504loPI   C1B 8061  17.437   4.428   9.237 -0.2034 -0.2150 -0.0850
  504loPI   C2B 8062  17.453   4.369   8.829 -0.1928 -0.0047 -0.0494
  504loPI   C3B 8063  17.450   4.146   8.385 -0.0926  0.0234  0.0507
  504loPI   C4B 8064  17.262   4.214   8.057 -0.1049 -0.1652  0.2271
  505loPI    C1 8065   0.960  18.477   9.929  0.1728  0.0995 -0.0561
  505loPI    C2 8066   1.089  18.688  10.243 -0.1387 -0.2156  0.2946
  505loPI    C3 8067   1.163  18.296  10.223  0.1161 -0.1504 -0.1685
  505loPI   PO4 8068   0.958  18.641   9.732 -0.1584 -0.1438 -0.0257
  505loPI   GL1 8069   0.907  18.845   9.474 -0.1003 -0.0940  0.2693
  505loPI   GL2 8070   1.201  18.823   9.225 -0.1737 -0.1904 -0.1264
  505loPI   C1A 8071   0.721  18.991   9.039  0.1036 -0.0693 -0.0906
  505loPI   C2A 8072   0.641  18.951   8.625 -0.0048 -0.0604 -0.2744
  505loPI   C3A 8073   0.713  18.904   8.178 -0.3376  0.1482 -0.0214
  505loPI   C4A 8074   0.738  19.086   7.706 -0.4761  0.2916 -0.2818
  505loPI   C5A 8075   0.563  19.326   7.401  0.2504  0.0563 -0.0842
  505loPI   C6A 8076   0.325  19.419   7.027 -0.1750  0.0048  0.0416
  505loPI   C1B 8077   1.181  18.879   8.779 -0.0402  0.1253  0.0685
  505loPI   C2B 8078   1.175  19.071   8.442  0.0350  0.2307  0.0988
  505loPI   C3B 8079   1.177  19.400   8.086  0.0666  0.1689  0.2875
  505loPI   C4B 8080   1.448  19.374   7.765  0.1607 -0.3266  0.1541
  506loPI    C1 8081   5.068  10.570  10.789  0.3095 -0.1564  0.1378
  506loPI    C2 8082   4.965  10.281  11.046 -0.0016 -0.1186  0.0590
  506loPI    C3 8083   4.771  10.631  11.049 -0.0633 -0.1465 -0.2795
  506loPI   PO4 8084   5.092  10.533  10.527  0.1642  0.0060 -0.0833
  506loPI   GL1 8085   5.276  10.568  10.176 -0.0888  0.1498 -0.1443
  506loPI   GL2 8086   5.289  10.835  10.179 -0.0238 -0.2004 -0.2698
  506loPI   C1A 8087   5.299  10.384   9.858 -0.0696 -0.0702 -0.2376
  506loPI   C2A 8088   5.240  10.323   9.427 -0.2062  0.0007  0.3343
  506loPI   C3A 8089   5.301  10.347   9.061  0.2078  0.0294  0.1450
  506loPI   C4A 8090   5.147  10.426   8.619  0.0813  0.0127  0.2228
  506loPI   C5A 8091   5.099  10.550   8.198  0.1414 -0.2322 -0.0874
  506loPI   C6A 8092   5.125  10.832   7.944 -0.3496 -0.0059  0.0059
  506loPI   C1B 8093   5.117  10.854   9.809  0.1772 -0.0622  0.0779
  506loPI   C2B 8094   5.131  10.849   9.386 -0.0381  0.0572 -0.1713
  506loPI   C3B 8095   5.065  10.847   8.945  0.0575  0.0798  0.0897
  506loPI   C4B 8096   4.973  10.929   8.459 -0.0761 -0.0358  0.0849
  507loPI    C1 8097  13.582  17.753  10.219  0.0901  0.0400  0.1014
  507loPI    C2 8098  13.769  17.522  10.487  0.0491 -0.0506  0.0523
  507loPI    C3 8099  13.774  17.423  10.099  0.1255  0.0908  0.0163
  507loPI   PO4 8100  13.265  17.722  10.330  0.3356 -0.0292  0.0241
  507loPI   GL1 8101  13.219  17.635   9.906 -0.0044  0.2596 -0.0154
  507loPI   GL2 8102  13.267  18.009   9.902  0.2874 -0.2915 -0.0050
  507loPI   C1A 8103  13.293  17.434   9.550 -0.0959  0.0161  0.1086
  507loPI   C2A 8104  13.207  17.431   9.127 -0.1847  0.2396 -0.4441
  507loPI   C3A 8105  13.125  17.334   8.635 -0.0388  0.1612 -0.1413
  507loPI   C4A 8106  13.069  17.299   8.154  0.2877  0.3924  0.0350
  507loPI   C5A 8107  12.789  17.330   7.768 -0.1499  0.4249  0.0538
  507loPI   C6A 8108  12.627  17.115   7.435 -0.3366  0.1883 -0.0305
  507loPI   C1B 8109  13.211  17.899   9.456 -0.0303 -0.1880  0.0085
  507loPI   C2B 8110  13.090  17.870   8.993  0.0882 -0.2241  0.0612
  507loPI   C3B 8111  13.094  17.841   8.587 -0.0213  0.0805 -0.1950
  507loPI   C4B 8112  12.906  17.798   8.105  0.0005  0.4519 -0.2069
  508loPI    C1 8113   7.875   3.886  11.108  0.0740 -0.0115  0.0238
  508loPI    C2 8114   7.673   3.731  11.416 -0.0307  0.1525  0.0386
  508loPI    C3 8115   8.072   3.751  11.429 -0.0014 -0.2804 -0.0402
  508loPI   PO4 8116   7.690   3.716  10.884 -0.1293  0.0091  0.1716
  508loPI   GL1 8117   7.703   3.792  10.382 -0.1720 -0.0025  0.2031
  508loPI   GL2 8118   7.501   3.543  10.409  0.2801 -0.5463  0.0649
  508loPI   C1A 8119   7.937   3.910  10.018  0.1197  0.1839 -0.1549
  508loPI   C2A 8120   8.006   3.972   9.604  0.0951 -0.1483  0.1729
  508loPI   C3A 8121   7.928   3.915   9.168  0.3185  0.0220 -0.1648
  508loPI   C4A 8122   8.011   3.991   8.673 -0.0773 -0.1272 -0.1596
  508loPI   C5A 8123   8.102   3.978   8.233  0.0028 -0.0994  0.1296
  508loPI   C6A 8124   7.973   4.063   7.767  0.2325 -0.3007  0.1504
  508loPI   C1B 8125   7.436   3.587   9.863  0.2842  0.1012  0.0245
  508loPI   C2B 8126   7.590   3.593   9.400 -0.0873 -0.0142 -0.0511
  508loPI   C3B 8127   7.576   3.584   8.947  0.1569  0.0087 -0.1059
  508loPI   C4B 8128   7.727   3.537   8.473  0.5321  0.4398 -0.3068
  509loPI    C1 8129  15.489  17.455  10.164  0.1892 -0.0596  0.0831
  509loPI    C2 8130  15.323  17.632  10.482 -0.0539  0.0486 -0.1015
  509loPI    C3 8131  15.571  17.323  10.533  0.0260  0.1589  0.2005
  509loPI   PO4 8132  15.365  17.584   9.926  0.1632  0.1357 -0.1016
  509loPI   GL1 8133  15.203  17.541   9.502  0.0845 -0.2710  0.1271
  509loPI   GL2 8134  15.137  17.836   9.595  0.2039  0.0536  0.1588
  509loPI   C1A 8135  15.254  17.321   9.087 -0.2449  0.0783  0.0638
  509loPI   C2A 8136  15.091  17.276   8.676  0.0286  0.3962  0.0133
  509loPI   C3A 8137  15.192  17.273   8.174 -0.1573  0.0935 -0.1877
  509loPI   C4A 8138  15.204  17.290   7.749  0.1794 -0.1788  0.1226
  509loPI   C5A 8139  15.057  17.343   7.316 -0.1316  0.1897  0.0553
  509loPI   C6A 8140  14.777  17.218   7.012  0.0470 -0.0554 -0.0820
  509loPI   C1B 8141  15.072  17.919   9.160  0.0092  0.0987  0.1070
  509loPI   C2B 8142  15.038  17.786   8.782 -0.1491 -0.2361  0.2825
  509loPI   C3B 8143  14.916  17.738   8.424 -0.0959  0.0217  0.1599
  509loPI   C4B 8144  14.801  17.711   7.993 -0.2343 -0.0008 -0.1272
  510loPI    C1 8145   6.542   2.460  10.819 -0.1682 -0.0058  0.1282
  510loPI    C2 8146   6.728   2.142  10.975 -0.0111 -0.1169 -0.2725
  510loPI    C3 8147   6.802   2.508  11.119  0.1154 -0.2173 -0.0774
  510loPI   PO4 8148   6.591   2.310  10.503 -0.0079  0.1309 -0.1559
  510loPI   GL1 8149   6.730   2.316  10.182 -0.0550 -0.2292 -0.0041
  510loPI   GL2 8150   6.728   2.634   9.984  0.0754  0.0986  0.0839
  510loPI   C1A 8151   6.729   2.230   9.722  0.2460 -0.1174 -0.1674
  510loPI   C2A 8152   6.954   2.228   9.230  0.5204  0.2881 -0.2779
  510loPI   C3A 8153   7.051   2.244   8.778 -0.0996 -0.1864 -0.1242
  510loPI   C4A 8154   7.058   2.266   8.289 -0.2614 -0.0708 -0.2788
  510loPI   C5A 8155   7.309   2.254   7.908  0.2937  0.1786 -0.1870
  510loPI   C6A 8156   7.568   2.472   7.661 -0.0086 -0.1513  0.0994
  510loPI   C1B 8157   6.878   2.673   9.558 -0.2137 -0.0851  0.1126
  510loPI   C2B 8158   6.906   2.730   9.082 -0.1034  0.2832 -0.2168
  510loPI   C3B 8159   6.896   2.742   8.618  0.0966  0.2342  0.0235
  510loPI   C4B 8160   6.958   2.765   8.162  0.2849 -0.2757  0.3216
  511loPI    C1 8161  18.456   1.760   9.984  0.2937 -0.0006 -0.0727
  511loPI    C2 8162  18.779   1.670  10.203  0.0988 -0.1318  0.1668
  511loPI    C3 8163  18.512   1.386  10.114  0.0339 -0.0185 -0.0061
  511loPI   PO4 8164  18.547   1.896   9.771  0.2249 -0.2165 -0.0254
  511loPI   GL1 8165  18.621   1.837   9.315 -0.1389  0.0137 -0.1176
  511loPI   GL2 8166  18.695   2.122   9.333  0.1669  0.3362 -0.0391
  511loPI   C1A 8167  18.739   1.679   8.885 -0.0871 -0.0804  0.1431
  511loPI   C2A 8168  18.524   1.655   8.502  0.0760 -0.0690 -0.3537
  511loPI   C3A 8169  18.240   1.699   8.154  0.1464  0.0372  0.2790
  511loPI   C4A 8170  18.228   1.963   7.756  0.2516 -0.2365 -0.0017
  511loPI   C5A 8171  18.092   2.335   7.486  0.0846 -0.2747  0.0236
  511loPI   C6A 8172  18.346   2.555   7.208  0.2794 -0.1044  0.2849
  511loPI   C1B 8173  18.604   2.159   8.875  0.0505  0.3123  0.0227
  511loPI   C2B 8174  18.701   2.161   8.482  0.1500 -0.1755  0.1360
  511loPI   C3B 8175  18.871   2.253   8.083  0.0651 -0.1983  0.0616
  511loPI   C4B 8176  19.085   2.545   7.739 -0.0665 -0.0134 -0.0245
  512loPI    C1 8177   1.329   6.284  10.529 -0.1432  0.0894 -0.1162
  512loPI    C2 8178   0.995   6.067  10.499 -0.1189  0.0408 -0.0397
  512loPI    C3 8179   1.073   6.269  10.836 -0.1000  0.1001 -0.0795
  512loPI   PO4 8180   1.400   6.357  10.315  0.0008  0.0229 -0.1762
  512loPI   GL1 8181   1.470   6.307   9.849  0.0772  0.0192 -0.0747
  512loPI   GL2 8182   1.247   6.491   9.883  0.0490 -0.1382  0.3045
  512loPI   C1A 8183   1.466   6.342   9.437  0.4128  0.3313  0.1505
  512loPI   C2A 8184   1.544   6.482   8.998  0.0457 -0.3557 -0.0666
  512loPI   C3A 8185   1.549   6.442   8.620 -0.0560  0.1248 -0.0634
  512loPI   C4A 8186   1.501   6.471   8.200  0.0917  0.1815 -0.1349
  512loPI   C5A 8187   1.546   6.489   7.735  0.1084  0.2587 -0.1365
  512loPI   C6A 8188   1.797   6.569   7.413 -0.3644 -0.2106  0.1104
  512loPI   C1B 8189   0.961   6.472   9.476  0.2715  0.2205 -0.3118
  512loPI   C2B 8190   1.030   6.575   9.019 -0.0853  0.1122  0.0651
  512loPI   C3B 8191   1.043   6.583   8.548  0.1977 -0.2301  0.1541
  512loPI   C4B 8192   0.861   6.746   8.131 -0.3169  0.0738 -0.0181
  513loPI    C1 8193   7.478   2.414  10.576  0.0063  0.0295 -0.2190
  513loPI    C2 8194   7.257   2.656  10.806  0.1685 -0.1586  0.1426
  513loPI    C3 8195   7.102   2.313  10.669  0.1416 -0.1505  0.1528
  513loPI   PO4 8196   7.594   2.525  10.331 -0.2790  0.2221 -0.1350
  513loPI   GL1 8197   7.601   2.567   9.983 -0.4215  0.1514 -0.3307
  513loPI   GL2 8198   7.801   2.571   9.769  0.0311 -0.4148 -0.1308
  513loPI   C1A 8199   7.452   2.714   9.547  0.1637  0.4644 -0.2790
  513loPI   C2A 8200   7.446   2.746   9.132 -0.2222  0.1656 -0.1679
  513loPI   C3A 8201   7.356   2.607   8.742 -0.0688 -0.0876 -0.1492
  513loPI   C4A 8202   7.406   2.703   8.335 -0.3226 -0.0928  0.0266
  513loPI   C5A 8203   7.432   2.807   7.961  0.1169 -0.3094 -0.3120
  513loPI   C6A 8204   7.534   3.087   7.650  0.0784 -0.2017 -0.1823
  513loPI   C1B 8205   7.896   2.672   9.383 -0.2011  0.0330 -0.1942
  513loPI   C2B 8206   7.941   2.658   8.917  0.1077 -0.1324  0.1305
  513loPI   C3B 8207   7.844   2.532   8.515 -0.2348 -0.0745  0.2479
  513loPI   C4B 8208   7.725   2.382   8.105 -0.4842 -0.1607 -0.2659
  514loPI    C1 8209   1.407  13.599  10.647 -0.1372  0.2305 -0.0300
  514loPI    C2 8210   1.196  13.701  10.971  0.0417  0.1806  0.1032
  514loPI    C3 8211   1.329  13.326  10.929 -0.0392  0.1697 -0.0616
  514loPI   PO4 8212   1.309  13.660  10.432  0.0913 -0.0055 -0.0205
  514loPI   GL1 8213   1.547  13.692  10.042  0.2376 -0.0638  0.1700
  514loPI   GL2 8214   1.304  14.013  10.011  0.1537 -0.2622 -0.0093
  514loPI   C1A 8215   1.405  13.554   9.619  0.0866 -0.1338  0.0691
  514loPI   C2A 8216   1.286  13.409   9.256  0.1069  0.0742 -0.1143
  514loPI   C3A 8217   1.340  13.510   8.850  0.2846 -0.1293 -0.0695
  514loPI   C4A 8218   1.490  13.568   8.467  0.0264 -0.0248  0.2140
  514loPI   C5A 8219   1.586  13.620   8.009  0.0250 -0.1527  0.2174
  514loPI   C6A 8220   1.696  13.920   7.738  0.0188 -0.1078 -0.2518
  514loPI   C1B 8221   1.189  13.999   9.547  0.0744  0.3530 -0.2443
  514loPI   C2B 8222   1.170  13.947   9.239  0.0473  0.0928 -0.0730
  514loPI   C3B 8223   1.192  14.115   8.875  0.1429  0.1759  0.3545
  514loPI   C4B 8224   1.353  14.035   8.503  0.0827 -0.0058 -0.3733
  515loPI    C1 8225  18.034   2.812   9.687 -0.1401  0.0240 -0.1907
  515loPI    C2 8226  17.918   2.585   9.995 -0.1178  0.0702 -0.1480
  515loPI    C3 8227  17.655   2.687   9.711 -0.1278 -0.0091 -0.1675
  515loPI   PO4 8228  18.143   3.045   9.760 -0.0089 -0.3517  0.1520
  515loPI   GL1 8229  18.347   3.366   9.479 -0.0812 -0.0377  0.0993
  515loPI   GL2 8230  18.781   3.284   9.489 -0.1927  0.3502 -0.0142
  515loPI   C1A 8231  18.341   3.218   9.126 -0.0100 -0.2633  0.1969
  515loPI   C2A 8232  18.547   3.331   8.765  0.2055  0.0395  0.2673
  515loPI   C3A 8233  18.605   3.210   8.328 -0.2770 -0.1102  0.1147
  515loPI   C4A 8234  18.623   3.346   7.984 -0.0272  0.0948 -0.1871
  515loPI   C5A 8235  18.407   3.056   7.791  0.3261  0.0286 -0.2759
  515loPI   C6A 8236  18.671   2.819   7.566  0.2874 -0.1789  0.0776
  515loPI   C1B 8237  18.951   3.258   9.073  0.0116 -0.1513  0.0629
  515loPI   C2B 8238  19.029   3.288   8.683  0.0204  0.1264  0.1342
  515loPI   C3B 8239  19.234   3.462   8.264  0.1535 -0.3060 -0.0426
  515loPI   C4B 8240  19.018   3.623   7.918  0.0968 -0.2480  0.0664
  516loPI    C1 8241  18.399  10.595  10.664 -0.3464  0.0188  0.1979
  516loPI    C2 8242  18.602  10.375  10.930 -0.1201 -0.2520 -0.1887
  516loPI    C3 8243  18.554  10.768  10.990  0.0583 -0.2813  0.1721
  516loPI   PO4 8244  18.486  10.533  10.416  0.2154 -0.1837  0.0375
  516loPI   GL1 8245  18.573  10.820  10.112 -0.0968 -0.1209  0.1739
  516loPI   GL2 8246  18.788  11.063  10.037  0.3728 -0.3802 -0.0416
  516loPI   C1A 8247  18.389  10.643   9.822  0.0265 -0.0987  0.0703
  516loPI   C2A 8248  18.374  10.800   9.408 -0.4004  0.1882 -0.0628
  516loPI   C3A 8249  18.378  10.640   9.035  0.3434  0.1648  0.0208
  516loPI   C4A 8250  18.399  10.610   8.562 -0.0086 -0.3540 -0.4882
  516loPI   C5A 8251  18.418  10.711   8.145  0.2852  0.1451  0.2312
  516loPI   C6A 8252  18.745  10.448   7.794 -0.0525 -0.3661 -0.0306
  516loPI   C1B 8253  18.776  11.074   9.592 -0.3793  0.1255  0.1652
  516loPI   C2B 8254  18.697  11.066   9.114 -0.1422 -0.1664  0.1196
  516loPI   C3B 8255  18.757  11.029   8.615 -0.2171 -0.2784 -0.0882
  516loPI   C4B 8256  18.887  10.859   8.108  0.4087 -0.1743  0.0556
  517loPI    C1 8257  16.662   1.967   9.725 -0.1304  0.1098 -0.0091
  517loPI    C2 8258  16.383   1.925  10.009  0.0495 -0.1881  0.1279
  517loPI    C3 8259  16.741   2.079  10.101 -0.0511  0.1542 -0.0389
  517loPI   PO4 8260  16.458   1.966   9.502  0.0915 -0.0195 -0.0430
  517loPI   GL1 8261  16.387   1.943   9.054 -0.2588 -0.1258 -0.1023
  517loPI   GL2 8262  16.282   1.591   9.136  0.0274 -0.0279 -0.0770
  517loPI   C1A 8263  16.746   1.769   8.926 -0.1418  0.2454  0.4196
  517loPI   C2A 8264  16.832   1.688   8.523 -0.0653  0.0350  0.0336
  517loPI   C3A 8265  16.740   1.709   8.032  0.0483  0.0614  0.0288
  517loPI   C4A 8266  16.621   1.712   7.592 -0.4673  0.1166 -0.0342
  517loPI   C5A 8267  16.641   1.600   7.194  0.1204  0.1542 -0.1175
  517loPI   C6A 8268  16.278   1.593   6.912 -0.0900  0.1058  0.2529
  517loPI   C1B 8269  16.269   1.573   8.640  0.1062  0.2933 -0.1252
  517loPI   C2B 8270  16.234   1.631   8.144  0.0571 -0.1941 -0.1117
  517loPI   C3B 8271  16.107   1.888   7.889 -0.1505  0.0929  0.2169
  517loPI   C4B 8272  16.157   1.877   7.365  0.0365  0.2307 -0.1711
  518loPI    C1 8273   8.603  13.175  10.477 -0.1150  0.1062 -0.1302
  518loPI    C2 8274   8.852  13.259  10.778 -0.2485  0.1194 -0.0221
  518loPI    C3 8275   8.715  13.553  10.543 -0.0446  0.0937 -0.1767
  518loPI   PO4 8276   8.656  13.056  10.266  0.3902 -0.2097  0.4506
  518loPI   GL1 8277   8.569  13.136   9.867 -0.3785  0.1333  0.2226
  518loPI   GL2 8278   8.649  13.456   9.675 -0.1664  0.3261 -0.0430
  518loPI   C1A 8279   8.350  12.986   9.489 -0.3604  0.1075  0.0698
  518loPI   C2A 8280   8.298  12.874   8.969  0.0337  0.0326  0.1362
  518loPI   C3A 8281   8.044  12.722   8.618  0.1598  0.1113 -0.2349
  518loPI   C4A 8282   7.888  12.542   8.307 -0.0802  0.1971 -0.0962
  518loPI   C5A 8283   7.913  12.194   7.880 -0.0597 -0.0238  0.1560
  518loPI   C6A 8284   8.092  11.860   7.778 -0.4703 -0.3353 -0.0448
  518loPI   C1B 8285   8.697  13.266   9.298 -0.1021 -0.0462  0.4935
  518loPI   C2B 8286   8.643  13.281   8.927 -0.1877 -0.0266  0.0313
  518loPI   C3B 8287   8.440  13.189   8.542  0.2295  0.2569 -0.0105
  518loPI   C4B 8288   8.310  12.860   8.237  0.0946 -0.1925  0.3084
  519loPI    C1 8289  12.002  15.303  10.837 -0.0065 -0.1283  0.1775
  519loPI    C2 8290  11.918  15.182  11.209  0.0334  0.1149  0.2679
  519loPI    C3 8291  12.272  15.348  11.128 -0.0124  0.1528  0.1427
  519loPI   PO4 8292  12.014  15.116  10.709  0.3248  0.0432  0.0373
  519loPI   GL1 8293  11.800  15.113  10.395 -0.0742  0.0404  0.3889
  519loPI   GL2 8294  11.652  15.466  10.317 -0.2801  0.2988 -0.0393
  519loPI   C1A 8295  11.986  15.062   9.994  0.0080 -0.0343 -0.0322
  519loPI   C2A 8296  12.000  14.918   9.512  0.4028  0.2645 -0.0148
  519loPI   C3A 8297  11.957  14.839   9.091  0.0337 -0.4096  0.2714
  519loPI   C4A 8298  12.083  14.808   8.677 -0.2171 -0.0628 -0.0738
  519loPI   C5A 8299  12.391  14.687   8.315  0.1414  0.1761 -0.2967
  519loPI   C6A 8300  12.521  14.467   8.099  0.1971  0.2829  0.0306
  519loPI   C1B 8301  11.976  15.571  10.003 -0.0006  0.0783  0.0245
  519loPI   C2B 8302  11.915  15.455   9.635  0.0679  0.0329  0.1219
  519loPI   C3B 8303  11.839  15.318   9.227 -0.4841 -0.1238 -0.0775
  519loPI   C4B 8304  11.806  15.215   8.774  0.3201 -0.0634 -0.0552
  520loPI    C1 8305   4.377   0.150  10.435  0.1257 -0.0797  0.1159
  520loPI    C2 8306   4.719   0.353  10.477  0.0420  0.0116  0.3780
  520loPI    C3 8307   4.584   0.125  10.777 -0.0373 -0.1650  0.2098
  520loPI   PO4 8308   4.250   0.128  10.117  0.1117 -0.0115 -0.0158
  520loPI   GL1 8309   4.351   0.028   9.775  0.3204 -0.1828  0.3699
  520loPI   GL2 8310   4.162  -0.063   9.549  0.0021 -0.1191  0.0226
  520loPI   C1A 8311   4.671   0.099   9.393  0.1642 -0.0352  0.1554
  520loPI   C2A 8312   4.683   0.207   8.945 -0.2370 -0.0018 -0.0348
  520loPI   C3A 8313   4.788   0.162   8.514  0.1642 -0.3104  0.0097
  520loPI   C4A 8314   4.793  -0.045   8.113 -0.1903 -0.2399  0.0348
  520loPI   C5A 8315   4.853   0.041   7.700  0.0338  0.2652 -0.0876
  520loPI   C6A 8316   4.655   0.425   7.505 -0.2911 -0.2588  0.0172
  520loPI   C1B 8317   4.478  -0.277   9.163 -0.0372  0.1690 -0.1515
  520loPI   C2B 8318   4.585  -0.236   8.728 -0.1614 -0.0693  0.0588
  520loPI   C3B 8319   4.505  -0.356   8.313  0.1819  0.0391  0.1750
  520loPI   C4B 8320   4.505  -0.320   7.776 -0.2189  0.0369 -0.2812
  521loPI    C1 8321   4.060   1.692  10.246 -0.0854 -0.2624  0.2569
  521loPI    C2 8322   3.755   1.727   9.990 -0.0033 -0.1228  0.1772
  521loPI    C3 8323   3.742   1.915  10.343  0.1151  0.1215  0.0541
  521loPI   PO4 8324   4.383   1.737  10.147  0.0097 -0.1407  0.2888
  521loPI   GL1 8325   4.683   1.846   9.629  0.1301  0.0522 -0.2069
  521loPI   GL2 8326   4.987   2.050   9.626 -0.1204 -0.1612 -0.1369
  521loPI   C1A 8327   4.655   2.000   9.208 -0.1365 -0.0005  0.1388
  521loPI   C2A 8328   4.726   2.178   8.789 -0.3322 -0.0558 -0.5454
  521loPI   C3A 8329   4.690   2.511   8.480 -0.2357 -0.1666 -0.0519
  521loPI   C4A 8330   4.753   2.629   8.119 -0.4815 -0.0399 -0.2428
  521loPI   C5A 8331   4.791   2.677   7.777  0.1859 -0.2570 -0.1713
  521loPI   C6A 8332   4.961   2.472   7.378  0.0396  0.1190  0.0783
  521loPI   C1B 8333   5.089   2.276   9.249  0.1461 -0.0603 -0.0225
  521loPI   C2B 8334   5.166   2.340   8.800 -0.0378  0.0508  0.1804
  521loPI   C3B 8335   5.084   2.265   8.335 -0.1658  0.1056  0.2448
  521loPI   C4B 8336   5.113   2.338   7.845 -0.1169 -0.1760 -0.1224
  522loPI    C1 8337  16.922   7.619  11.092  0.2846  0.1092 -0.0587
  522loPI    C2 8338  16.810   7.997  11.162 -0.0879  0.0221 -0.1652
  522loPI    C3 8339  16.675   7.701  11.396  0.1391 -0.0555 -0.1304
  522loPI   PO4 8340  16.901   7.549  10.881  0.2798 -0.0166 -0.1449
  522loPI   GL1 8341  16.777   7.479  10.363  0.0244  0.1596  0.0300
  522loPI   GL2 8342  16.463   7.279  10.363 -0.0349  0.0866 -0.0662
  522loPI   C1A 8343  16.798   7.610   9.850 -0.1180  0.3139 -0.0289
  522loPI   C2A 8344  16.895   7.714   9.442 -0.0341 -0.4623 -0.2364
  522loPI   C3A 8345  16.929   7.742   9.090 -0.1070 -0.1044  0.3007
  522loPI   C4A 8346  16.917   7.650   8.678  0.1454 -0.2396 -0.0056
  522loPI   C5A 8347  16.844   7.696   8.209  0.0460 -0.2361 -0.1907
  522loPI   C6A 8348  16.842   8.154   7.958 -0.3285  0.0319 -0.1655
  522loPI   C1B 8349  16.430   7.280   9.908 -0.0377 -0.3069  0.2927
  522loPI   C2B 8350  16.482   7.332   9.376 -0.1513  0.0041  0.0220
  522loPI   C3B 8351  16.512   7.382   8.870  0.1845  0.2804  0.0489
  522loPI   C4B 8352  16.529   7.357   8.434  0.0948 -0.5180  0.0601
  523loPI    C1 8353  17.073   6.973  10.685 -0.0263 -0.1926  0.2837
  523loPI    C2 8354  17.437   6.873  10.818  0.0637 -0.2165  0.0248
  523loPI    C3 8355  17.263   6.657  10.529 -0.1344 -0.1738  0.1105
  523loPI   PO4 8356  17.106   7.165  10.639  0.0737 -0.4127 -0.1986
  523loPI   GL1 8357  16.912   7.008  10.189 -0.2678  0.0311 -0.1767
  523loPI   GL2 8358  17.157   7.312  10.167 -0.2203 -0.1408 -0.1958
  523loPI   C1A 8359  17.064   6.727   9.917 -0.2389  0.1516  0.2818
  523loPI   C2A 8360  17.199   6.799   9.515  0.1858  0.4052  0.1791
  523loPI   C3A 8361  17.188   6.669   9.048 -0.2176  0.1370  0.1151
  523loPI   C4A 8362  17.188   6.728   8.635  0.0744 -0.0536 -0.0559
  523loPI   C5A 8363  17.165   6.710   8.228 -0.0421 -0.1064  0.0604
  523loPI   C6A 8364  17.557   6.685   7.871 -0.1399 -0.0895 -0.2545
  523loPI   C1B 8365  16.993   7.192   9.742 -0.1291  0.0427 -0.2408
  523loPI   C2B 8366  17.069   7.224   9.294 -0.5219 -0.0108 -0.0251
  523loPI   C3B 8367  17.033   7.116   8.878  0.3059 -0.4072  0.0089
  523loPI   C4B 8368  16.985   7.151   8.416 -0.2295  0.0448 -0.0769
  524loPI    C1 8369  12.887  12.252  10.913 -0.0347  0.0730 -0.1877
  524loPI    C2 8370  12.565  12.022  10.974 -0.0107  0.0522 -0.1400
  524loPI    C3 8371  12.790  12.140  11.284  0.0737  0.0001 -0.1810
  524loPI   PO4 8372  12.853  12.497  10.725  0.2050 -0.4107  0.0021
  524loPI   GL1 8373  12.849  12.625  10.402  0.0775  0.2612  0.2553
  524loPI   GL2 8374  12.848  12.322  10.243 -0.2063  0.2998  0.1674
  524loPI   C1A 8375  12.656  12.845   9.976 -0.1980 -0.0182 -0.3959
  524loPI   C2A 8376  12.567  12.728   9.620  0.1164  0.2899  0.2316
  524loPI   C3A 8377  12.665  12.657   9.138 -0.2573  0.1190 -0.0566
  524loPI   C4A 8378  12.651  12.646   8.685  0.0077  0.2977  0.0402
  524loPI   C5A 8379  12.902  12.695   8.234  0.4741 -0.0973  0.0170
  524loPI   C6A 8380  13.177  12.880   7.881  0.0518 -0.1756  0.0607
  524loPI   C1B 8381  12.775  12.245   9.860 -0.1532 -0.0832  0.0350
  524loPI   C2B 8382  12.805  12.237   9.414 -0.2657 -0.2066  0.0243
  524loPI   C3B 8383  12.784  12.229   8.956 -0.4287  0.3035  0.3305
  524loPI   C4B 8384  12.841  12.190   8.548  0.3234  0.1988  0.0130
  525loPI    C1 8385  16.127   7.096  10.743 -0.1751 -0.2291  0.1090
  525loPI    C2 8386  15.891   7.410  10.818  0.0013 -0.0621 -0.0249
  525loPI    C3 8387  15.947   7.130  11.098 -0.2544 -0.0389  0.0517
  525loPI   PO4 8388  16.018   7.057  10.451  0.1050  0.0385 -0.1294
  525loPI   GL1 8389  16.372   6.797  10.135  0.1048  0.2247 -0.2056
  525loPI   GL2 8390  16.106   6.955  10.005 -0.2898 -0.0991 -0.1512
  525loPI   C1A 8391  16.643   6.879   9.707  0.2961  0.0296 -0.0650
  525loPI   C2A 8392  16.644   6.881   9.169 -0.0398 -0.1753  0.2158
  525loPI   C3A 8393  16.602   6.893   8.677  0.2379  0.1161  0.1685
  525loPI   C4A 8394  16.583   6.874   8.222 -0.1040  0.1156  0.1785
  525loPI   C5A 8395  16.798   6.886   7.919  0.4088 -0.2615  0.1644
  525loPI   C6A 8396  17.125   6.550   7.663  0.3686  0.0004  0.3101
  525loPI   C1B 8397  16.164   6.962   9.640 -0.0834 -0.0019 -0.2100
  525loPI   C2B 8398  16.158   7.005   9.148 -0.2017 -0.2597  0.0628
  525loPI   C3B 8399  16.155   6.998   8.723  0.3379 -0.3367  0.1528
  525loPI   C4B 8400  16.089   7.065   8.296 -0.1465 -0.0333  0.0911
  526loPI    C1 8401   1.782  17.217   9.972 -0.0712 -0.1142  0.0699
  526loPI    C2 8402   2.105  17.439   9.895 -0.0883 -0.1324 -0.0567
  526loPI    C3 8403   1.982  17.388  10.272 -0.0564  0.0337 -0.0234
  526loPI   PO4 8404   1.630  17.279   9.798 -0.0882 -0.1456 -0.2709
  526loPI   GL1 8405   1.803  17.338   9.434  0.0273  0.0070 -0.1762
  526loPI   GL2 8406   2.007  17.446   9.394  0.1558  0.3785  0.1947
  526loPI   C1A 8407   1.815  17.367   8.907  0.0823 -0.1533  0.1450
  526loPI   C2A 8408   1.860  17.285   8.368  0.1702 -0.1335 -0.1124
  526loPI   C3A 8409   1.785  17.188   8.036  0.1503 -0.1505  0.2004
  526loPI   C4A 8410   1.697  16.842   7.800 -0.4072 -0.0482 -0.1622
  526loPI   C5A 8411   1.689  16.521   7.412  0.0733 -0.1225 -0.1315
  526loPI   C6A 8412   1.695  16.150   7.063  0.3150 -0.1960 -0.0611
  526loPI   C1B 8413   2.164  17.845   9.167 -0.1004 -0.4094  0.2620
  526loPI   C2B 8414   2.308  17.965   8.631  0.1929  0.3852 -0.0523
  526loPI   C3B 8415   2.198  17.969   8.247 -0.1572  0.0570  0.0646
  526loPI   C4B 8416   2.160  18.151   7.909 -0.2698 -0.0113 -0.2338
  527loPI    C1 8417   2.940  15.163  10.579  0.0675  0.0969  0.0858
  527loPI    C2 8418   2.760  14.838  10.433  0.0731 -0.0326  0.3604
  527loPI    C3 8419   2.541  15.140  10.576  0.0683  0.0764  0.1281
  527loPI   PO4 8420   3.111  15.309  10.407 -0.0147  0.1851  0.0107
  527loPI   GL1 8421   3.256  15.219  10.026  0.0838  0.1182 -0.2391
  527loPI   GL2 8422   3.607  15.087  10.077 -0.0481  0.0268 -0.1251
  527loPI   C1A 8423   3.224  14.924   9.694  0.1660  0.0940  0.0108
  527loPI   C2A 8424   3.285  14.926   9.203 -0.1116 -0.0719 -0.7203
  527loPI   C3A 8425   3.353  15.015   8.775  0.3531 -0.0739 -0.2825
  527loPI   C4A 8426   3.398  14.991   8.328 -0.0254 -0.1473 -0.2346
  527loPI   C5A 8427   3.424  14.984   7.880  0.2990  0.2210  0.0011
  527loPI   C6A 8428   3.163  15.181   7.639  0.1756 -0.0413  0.1302
  527loPI   C1B 8429   3.533  15.276   9.632  0.1835 -0.0468 -0.1848
  527loPI   C2B 8430   3.546  15.386   9.182  0.0166 -0.0387  0.0513
  527loPI   C3B 8431   3.774  15.479   8.785 -0.1905 -0.0333  0.0361
  527loPI   C4B 8432   3.816  15.624   8.343 -0.0430 -0.0529 -0.0085
  528loPI    C1 8433  11.194   1.164  10.725  0.0615 -0.0784  0.2086
  528loPI    C2 8434  10.814   1.078  10.814 -0.0382  0.1424  0.0096
  528loPI    C3 8435  11.112   0.906  11.019 -0.2410 -0.1379  0.0751
  528loPI   PO4 8436  11.156   1.128  10.432 -0.4008  0.0887 -0.1167
  528loPI   GL1 8437  11.485   1.090  10.251  0.0322 -0.0507  0.0023
  528loPI   GL2 8438  11.670   1.309  10.141  0.0239 -0.4545 -0.0070
  528loPI   C1A 8439  11.397   0.740   9.888 -0.1564  0.1226 -0.0391
  528loPI   C2A 8440  11.369   0.734   9.436  0.0572  0.1376 -0.2233
  528loPI   C3A 8441  11.266   0.735   9.004 -0.0529  0.0945 -0.2774
  528loPI   C4A 8442  11.191   0.687   8.601 -0.1111  0.0429  0.1655
  528loPI   C5A 8443  11.223   0.699   8.083  0.3205  0.3228 -0.0249
  528loPI   C6A 8444  11.190   0.963   7.692  0.2754  0.0770  0.1045
  528loPI   C1B 8445  11.752   1.135   9.695  0.0983  0.2100  0.0853
  528loPI   C2B 8446  11.674   1.150   9.282  0.1194 -0.1621  0.1706
  528loPI   C3B 8447  11.590   1.085   8.860  0.0455 -0.2642  0.0489
  528loPI   C4B 8448  11.606   1.076   8.381 -0.1261 -0.0716  0.1084
  529loPI    C1 8449  17.478  13.548  10.702 -0.1028  0.0441  0.2095
  529loPI    C2 8450  17.441  13.751  11.045 -0.1228  0.0050  0.2306
  529loPI    C3 8451  17.717  13.463  11.011 -0.1657 -0.0372  0.2365
  529loPI   PO4 8452  17.436  13.763  10.519  0.2675 -0.0873 -0.2176
  529loPI   GL1 8453  17.718  13.820  10.083 -0.1403  0.0551  0.1691
  529loPI   GL2 8454  17.832  14.066   9.884  0.0090  0.1748 -0.0330
  529loPI   C1A 8455  17.496  13.475   9.729 -0.0829 -0.0263  0.1330
  529loPI   C2A 8456  17.626  13.271   9.454  0.0603 -0.2660 -0.2004
  529loPI   C3A 8457  17.596  13.308   9.118 -0.1166 -0.1001  0.2472
  529loPI   C4A 8458  17.672  13.132   8.709 -0.2035 -0.0050  0.2006
  529loPI   C5A 8459  17.751  13.129   8.243 -0.0915  0.0271 -0.4105
  529loPI   C6A 8460  17.700  12.949   7.801 -0.0381 -0.2413  0.1997
  529loPI   C1B 8461  17.823  14.188   9.466 -0.0323 -0.3650  0.1320
  529loPI   C2B 8462  17.812  14.140   8.966 -0.2405 -0.4095 -0.0269
  529loPI   C3B 8463  17.897  14.102   8.578  0.1055 -0.1818 -0.0485
  529loPI   C4B 8464  17.979  13.903   8.222 -0.2182 -0.0519  0.1091
  530loPI    C1 8465  14.271  18.464  10.541 -0.0487 -0.0547  0.0033
  530loPI    C2 8466  14.364  18.848  10.606 -0.0773 -0.0826  0.2139
  530loPI    C3 8467  14.279  18.607  10.914 -0.1100 -0.2459  0.0790
  530loPI   PO4 8468  14.131  18.452  10.218  0.2121 -0.2455  0.0832
  530loPI   GL1 8469  14.231  18.465   9.749 -0.1482  0.0125 -0.0788
  530loPI   GL2 8470  13.978  18.750   9.751 -0.1553  0.1215 -0.3867
  530loPI   C1A 8471  14.473  18.404   9.461 -0.2232 -0.0091 -0.3824
  530loPI   C2A 8472  14.401  18.403   9.088  0.2842 -0.1403  0.0245
  530loPI   C3A 8473  14.313  18.473   8.685  0.0468 -0.0916 -0.1169
  530loPI   C4A 8474  14.341  18.490   8.342  0.1372  0.0028  0.0082
  530loPI   C5A 8475  14.489  18.441   7.945 -0.1320  0.3135 -0.0232
  530loPI   C6A 8476  14.691  18.284   7.527  0.2545 -0.2440 -0.3678
  530loPI   C1B 8477  13.998  18.660   9.385 -0.0486 -0.0433  0.0067
  530loPI   C2B 8478  13.945  18.659   8.983 -0.3266 -0.2340 -0.1368
  530loPI   C3B 8479  13.850  18.609   8.529 -0.2383  0.1390  0.0346
  530loPI   C4B 8480  13.799  18.720   8.112 -0.2451  0.0573 -0.2802
  531loPI    C1 8481   2.019   0.654  10.124  0.1528  0.0727  0.0431
  531loPI    C2 8482   1.976   0.459  10.470  0.0392 -0.0104 -0.0170
  531loPI    C3 8483   2.314   0.658  10.394  0.1225 -0.1130  0.0804
  531loPI   PO4 8484   1.942   0.547   9.931 -0.4731  0.1710 -0.0868
  531loPI   GL1 8485   1.796   0.648   9.575  0.1776  0.1040  0.1380
  531loPI   GL2 8486   1.552   0.677   9.388 -0.1587 -0.0218  0.3774
  531loPI   C1A 8487   1.955   0.753   8.977 -0.1101  0.1946 -0.2434
  531loPI   C2A 8488   2.103   0.787   8.617 -0.1492 -0.0497 -0.0638
  531loPI   C3A 8489   2.124   0.562   8.202  0.0842 -0.1530 -0.3302
  531loPI   C4A 8490   2.080   0.157   7.986 -0.0977 -0.0832 -0.4163
  531loPI   C5A 8491   1.911   0.059   7.655 -0.0707 -0.1462 -0.0420
  531loPI   C6A 8492   1.786  -0.341   7.442  0.0893  0.2608  0.1250
  531loPI   C1B 8493   1.425   0.839   8.951 -0.0317 -0.2111 -0.2390
  531loPI   C2B 8494   1.546   0.868   8.511  0.1258  0.1856  0.0388
  531loPI   C3B 8495   1.737   0.942   8.188  0.2246 -0.0313 -0.0762
  531loPI   C4B 8496   2.177   1.115   8.063  0.1552  0.3414  0.2510
  532loPI    C1 8497   8.129  18.474  10.545 -0.1329  0.0267  0.2367
  532loPI    C2 8498   8.174  18.407  10.936 -0.1168  0.1286  0.2526
  532loPI    C3 8499   8.184  18.781  10.795  0.0479  0.0801  0.1333
  532loPI   PO4 8500   7.846  18.320  10.430 -0.3373  0.0644 -0.1595
  532loPI   GL1 8501   7.664  18.376  10.073 -0.2505  0.3076  0.0241
  532loPI   GL2 8502   7.538  18.675  10.049  0.2187 -0.0090  0.5290
  532loPI   C1A 8503   7.701  18.213   9.639  0.0945 -0.1471  0.0822
  532loPI   C2A 8504   7.785  18.224   9.176  0.1373 -0.1377  0.0827
  532loPI   C3A 8505   7.709  18.315   8.743 -0.2585 -0.0384 -0.0669
  532loPI   C4A 8506   7.816  18.307   8.328  0.1859 -0.1820 -0.4157
  532loPI   C5A 8507   7.809  18.608   8.004  0.0262 -0.1039 -0.0323
  532loPI   C6A 8508   7.615  18.838   7.783 -0.1119  0.3230 -0.0899
  532loPI   C1B 8509   7.425  18.611   9.594  0.1405 -0.1139  0.1739
  532loPI   C2B 8510   7.391  18.661   9.296 -0.0233  0.2071  0.0587
  532loPI   C3B 8511   7.639  18.795   8.912 -0.1727  0.1466 -0.2921
  532loPI   C4B 8512   7.627  18.776   8.449  0.1236 -0.0351  0.0591
  533loPI    C1 8513   4.065   4.289  10.166  0.1122 -0.2298  0.0146
  533loPI    C2 8514   4.195   4.057  10.465  0.0314 -0.2345  0.0461
  533loPI    C3 8515   3.891   4.310  10.525  0.1499 -0.0858  0.0251
  533loPI   PO4 8516   4.215   4.333  10.055 -0.4090  0.0329 -0.1182
  533loPI   GL1 8517   4.307   4.607   9.778  0.2065 -0.2780  0.1993
  533loPI   GL2 8518   4.158   4.814   9.789  0.1206  0.2554 -0.1714
  533loPI   C1A 8519   4.523   4.664   9.436  0.3277  0.1458 -0.1345
  533loPI   C2A 8520   4.585   4.801   9.115 -0.0287  0.1140  0.3790
  533loPI   C3A 8521   4.509   4.892   8.723  0.0774 -0.3058 -0.5491
  533loPI   C4A 8522   4.399   4.814   8.269  0.2068  0.1557 -0.2794
  533loPI   C5A 8523   4.378   4.949   7.785  0.1274 -0.2257  0.1449
  533loPI   C6A 8524   4.526   5.046   7.364 -0.0018  0.2457  0.0526
  533loPI   C1B 8525   4.056   4.861   9.294 -0.0530 -0.1891 -0.0055
  533loPI   C2B 8526   4.039   4.963   8.840  0.4360 -0.0212 -0.0731
  533loPI   C3B 8527   3.904   4.971   8.428  0.3127  0.1835 -0.0439
  533loPI   C4B 8528   3.857   4.855   8.025  0.1112 -0.0457  0.1890
  534loPI    C1 8529  10.175   3.048  10.428  0.0602  0.0532  0.0297
  534loPI    C2 8530  10.243   2.775  10.712  0.1699  0.0653  0.0157
  534loPI    C3 8531  10.367   3.152  10.764  0.0429  0.1064  0.0232
  534loPI   PO4 8532  10.289   2.986  10.141 -0.0077  0.3942  0.0737
  534loPI   GL1 8533  10.165   2.734   9.793  0.0165 -0.1286 -0.0914
  534loPI   GL2 8534   9.889   2.524   9.538  0.0994 -0.0559  0.3540
  534loPI   C1A 8535  10.238   2.958   9.328 -0.5001  0.1556 -0.1113
  534loPI   C2A 8536  10.202   2.995   8.907  0.0294 -0.1576  0.1983
  534loPI   C3A 8537  10.218   2.948   8.437 -0.0786  0.1996 -0.1345
  534loPI   C4A 8538  10.265   2.812   7.985 -0.2871 -0.0807  0.0121
  534loPI   C5A 8539  10.379   3.200   7.682 -0.0067  0.2456  0.0656
  534loPI   C6A 8540  10.654   3.575   7.764 -0.1309 -0.1240  0.1661
  534loPI   C1B 8541   9.856   2.609   9.104 -0.1139  0.5965 -0.2646
  534loPI   C2B 8542   9.871   2.501   8.719 -0.0216 -0.0911 -0.1965
  534loPI   C3B 8543   9.885   2.581   8.274 -0.0204 -0.3636 -0.0657
  534loPI   C4B 8544   9.896   2.557   7.850 -0.2415  0.4052 -0.3495
  535loPI    C1 8545  12.540  17.762  10.759 -0.0183 -0.0882 -0.2337
  535loPI    C2 8546  12.777  17.787  10.438 -0.1301  0.0506 -0.3064
  535loPI    C3 8547  12.844  17.507  10.715  0.1363  0.1070 -0.3116
  535loPI   PO4 8548  12.325  17.772  10.695  0.0643 -0.0390 -0.1468
  535loPI   GL1 8549  12.274  17.617  10.297  0.2805 -0.2137  0.2903
  535loPI   GL2 8550  12.445  17.789  10.032 -0.0462 -0.1937  0.1242
  535loPI   C1A 8551  11.975  17.345  10.068 -0.2042 -0.2422 -0.0408
  535loPI   C2A 8552  11.745  17.294   9.649 -0.0907  0.2624 -0.1398
  535loPI   C3A 8553  11.761  17.259   9.227 -0.0542 -0.0345  0.0945
  535loPI   C4A 8554  11.834  17.260   8.847  0.1838 -0.0629 -0.1188
  535loPI   C5A 8555  11.652  17.197   8.459  0.1779  0.1567 -0.2316
  535loPI   C6A 8556  11.533  17.446   8.131 -0.1995  0.4134 -0.0707
  535loPI   C1B 8557  12.262  17.710   9.682 -0.0519 -0.0173  0.0338
  535loPI   C2B 8558  12.238  17.732   9.258 -0.1783 -0.0523  0.0170
  535loPI   C3B 8559  12.129  17.635   8.800 -0.0748  0.4201 -0.0684
  535loPI   C4B 8560  11.981  17.688   8.384 -0.3185 -0.1755  0.0655
  536loPI    C1 8561   8.286   3.194  10.633  0.1622  0.0941  0.0079
  536loPI    C2 8562   8.155   3.512  10.428 -0.0653 -0.2892 -0.4633
  536loPI    C3 8563   7.896   3.285  10.631  0.1735  0.1652  0.4003
  536loPI   PO4 8564   8.404   3.049  10.425 -0.1183  0.3180 -0.4045
  536loPI   GL1 8565   8.330   3.129  10.045  0.5574  0.0571 -0.1879
  536loPI   GL2 8566   8.123   2.969   9.753 -0.0325  0.0698 -0.2630
  536loPI   C1A 8567   8.525   3.259   9.631  0.3551  0.0134 -0.0162
  536loPI   C2A 8568   8.707   3.417   9.273  0.1480 -0.2222  0.2508
  536loPI   C3A 8569   8.744   3.296   8.950  0.0585  0.1358 -0.0647
  536loPI   C4A 8570   8.618   3.264   8.533  0.4464 -0.0419  0.1246
  536loPI   C5A 8571   8.654   3.391   8.073  0.0349 -0.2054  0.2381
  536loPI   C6A 8572   8.634   3.373   7.617  0.0659 -0.3005 -0.0152
  536loPI   C1B 8573   8.268   3.009   9.330  0.0804 -0.0561 -0.0815
  536loPI   C2B 8574   8.328   2.954   8.955  0.0324 -0.0630  0.0897
  536loPI   C3B 8575   8.291   2.862   8.563  0.2579  0.2238 -0.0454
  536loPI   C4B 8576   8.266   2.589   8.240  0.0653  0.3200  0.2439
  537loPI    C1 8577  10.967  14.178  11.126 -0.1250  0.0594  0.0445
  537loPI    C2 8578  10.868  13.891  11.386  0.0329  0.1036  0.1549
  537loPI    C3 8579  10.925  14.265  11.514 -0.1406  0.1786  0.0165
  537loPI   PO4 8580  11.172  14.021  10.791 -0.0097  0.1982 -0.1657
  537loPI   GL1 8581  11.041  14.100  10.370 -0.0529 -0.2049  0.2329
  537loPI   GL2 8582  11.375  14.127  10.229  0.2358  0.0349  0.3286
  537loPI   C1A 8583  10.898  13.814  10.022  0.1337 -0.0295  0.2238
  537loPI   C2A 8584  10.897  13.759   9.635  0.0825 -0.3226 -0.0286
  537loPI   C3A 8585  10.955  13.764   9.287  0.0319  0.1024  0.3212
  537loPI   C4A 8586  10.965  13.650   8.862  0.0645 -0.1549 -0.2619
  537loPI   C5A 8587  11.147  13.705   8.441  0.0783  0.0983  0.0084
  537loPI   C6A 8588  11.196  13.531   8.190  0.0311 -0.3608  0.1746
  537loPI   C1B 8589  11.274  14.186   9.947  0.2941 -0.1660 -0.1234
  537loPI   C2B 8590  11.211  14.094   9.537  0.0966  0.1167  0.1520
  537loPI   C3B 8591  11.245  14.151   9.187  0.3008 -0.0369 -0.0662
  537loPI   C4B 8592  11.305  14.079   8.743  0.1791 -0.1349  0.4362
  538loPI    C1 8593  17.210  16.347  10.468  0.2342  0.0768  0.0241
  538loPI    C2 8594  17.199  16.566  10.802  0.0556  0.0585  0.0312
  538loPI    C3 8595  17.545  16.412  10.675  0.1925  0.3830  0.0006
  538loPI   PO4 8596  17.095  16.461  10.288  0.0325 -0.0222  0.0236
  538loPI   GL1 8597  17.140  16.461   9.843  0.1213 -0.2785 -0.1150
  538loPI   GL2 8598  16.959  16.719   9.765 -0.1032  0.1794  0.1162
  538loPI   C1A 8599  17.341  16.173   9.502 -0.1350  0.0654 -0.2895
  538loPI   C2A 8600  17.428  16.074   9.072  0.1771  0.0162 -0.1881
  538loPI   C3A 8601  17.349  16.181   8.676 -0.1258 -0.3167 -0.1223
  538loPI   C4A 8602  17.231  16.100   8.297  0.1279  0.1541  0.5771
  538loPI   C5A 8603  17.101  16.237   7.841  0.0860 -0.1021 -0.3541
  538loPI   C6A 8604  17.050  16.637   7.739  0.2036 -0.0685 -0.0520
  538loPI   C1B 8605  17.197  16.758   9.333  0.0479 -0.0733 -0.1856
  538loPI   C2B 8606  17.229  16.621   9.029  0.1981  0.2106  0.0019
  538loPI   C3B 8607  17.199  16.686   8.614 -0.1175 -0.0693  0.6324
  538loPI   C4B 8608  17.122  16.611   8.248  0.1435  0.0938  0.0364
  539loPI    C1 8609  11.734  18.502  10.591  0.2227  0.1029  0.1571
  539loPI    C2 8610  11.679  18.806  10.337  0.1889 -0.0216  0.0143
  539loPI    C3 8611  11.562  18.841  10.718 -0.0637  0.0453 -0.0671
  539loPI   PO4 8612  12.027  18.449  10.540 -0.0795 -0.0451 -0.2738
  539loPI   GL1 8613  12.152  18.534  10.167 -0.3276 -0.2999  0.0285
  539loPI   GL2 8614  12.094  18.895  10.103 -0.0370 -0.0396  0.1405
  539loPI   C1A 8615  12.275  18.248   9.836  0.2214 -0.3161  0.1807
  539loPI   C2A 8616  12.127  18.161   9.492  0.0287  0.0534  0.0691
  539loPI   C3A 8617  12.111  18.178   9.063 -0.2523 -0.1135 -0.0629
  539loPI   C4A 8618  11.912  18.068   8.723 -0.0209 -0.0250 -0.1740
  539loPI   C5A 8619  11.752  18.113   8.257 -0.0725 -0.0983 -0.0190
  539loPI   C6A 8620  11.676  18.416   7.902 -0.1425  0.3097  0.1066
  539loPI   C1B 8621  12.064  18.688   9.692 -0.1555 -0.0579 -0.0469
  539loPI   C2B 8622  11.961  18.728   9.293  0.0730 -0.2836  0.3476
  539loPI   C3B 8623  11.890  18.662   8.823  0.1556 -0.2064 -0.0377
  539loPI   C4B 8624  11.788  18.578   8.446 -0.2802 -0.1354 -0.3310
  540loPI    C1 8625   7.510   5.466  10.600 -0.1320  0.2133 -0.0762
  540loPI    C2 8626   7.750   5.240  10.826 -0.0604  0.1223 -0.2418
  540loPI    C3 8627   7.438   5.428  10.991 -0.0639 -0.0192 -0.0851
  540loPI   PO4 8628   7.461   5.342  10.417 -0.3023  0.1968 -0.2963
  540loPI   GL1 8629   7.589   5.375  10.018  0.1928  0.2238 -0.0898
  540loPI   GL2 8630   7.540   4.993  10.031 -0.0528 -0.1496  0.0644
  540loPI   C1A 8631   7.589   5.443   9.647  0.2532 -0.4229  0.0618
  540loPI   C2A 8632   7.518   5.521   9.219 -0.2193 -0.2923  0.1936
  540loPI   C3A 8633   7.572   5.551   8.878  0.0049  0.0670 -0.1007
  540loPI   C4A 8634   7.662   5.509   8.555  0.2639  0.1338 -0.0576
  540loPI   C5A 8635   7.478   5.696   8.120  0.0355 -0.1278 -0.1715
  540loPI   C6A 8636   7.387   5.641   7.615 -0.2921 -0.0864 -0.2579
  540loPI   C1B 8637   7.757   5.025   9.622  0.2190 -0.0057  0.1749
  540loPI   C2B 8638   7.634   4.957   9.200  0.3213 -0.2157 -0.0311
  540loPI   C3B 8639   7.735   4.940   8.763  0.2272 -0.0848  0.0734
  540loPI   C4B 8640   7.768   5.054   8.409  0.0201 -0.0975 -0.0348
  541loPI    C1 8641   5.208   7.734  10.925 -0.1103 -0.1322  0.0964
  541loPI    C2 8642   5.143   7.485  11.231  0.0149 -0.2019  0.0670
  541loPI    C3 8643   5.356   7.819  11.287 -0.2619 -0.0332  0.1364
  541loPI   PO4 8644   5.296   7.584  10.716  0.5793  0.1705 -0.2068
  541loPI   GL1 8645   4.992   7.434  10.332 -0.4673 -0.0542 -0.0272
  541loPI   GL2 8646   4.982   7.622  10.208  0.1599 -0.2148  0.0202
  541loPI   C1A 8647   5.435   7.427  10.035  0.2226  0.2864 -0.0129
  541loPI   C2A 8648   5.499   7.424   9.630 -0.0435 -0.0277 -0.1555
  541loPI   C3A 8649   5.553   7.394   9.177  0.0773  0.2014  0.2614
  541loPI   C4A 8650   5.660   7.442   8.793 -0.0831 -0.0841 -0.1052
  541loPI   C5A 8651   5.675   7.279   8.368  0.0848  0.3086 -0.1058
  541loPI   C6A 8652   5.601   6.969   8.019  0.0715 -0.1041 -0.1640
  541loPI   C1B 8653   4.947   7.622   9.797  0.3114 -0.3158  0.2206
  541loPI   C2B 8654   5.033   7.513   9.327  0.1155  0.1334  0.2802
  541loPI   C3B 8655   5.162   7.527   8.835  0.1539  0.0285  0.2347
  541loPI   C4B 8656   5.215   7.451   8.464  0.2053 -0.1866 -0.2946
  542loPI    C1 8657   0.699   7.128  10.585  0.0396 -0.1111 -0.2523
  542loPI    C2 8658   0.865   6.784  10.704  0.0957  0.0429  0.1292
  542loPI    C3 8659   0.509   6.895  10.849  0.0335  0.1019 -0.0657
  542loPI   PO4 8660   0.767   7.074  10.295  0.0272 -0.0457 -0.0055
  542loPI   GL1 8661   0.806   6.914   9.835 -0.1659  0.0262  0.3956
  542loPI   GL2 8662   1.130   6.978   9.867  0.0011 -0.1538 -0.1821
  542loPI   C1A 8663   0.837   6.972   9.380 -0.0169 -0.0584  0.0014
  542loPI   C2A 8664   0.925   7.107   8.968 -0.2846 -0.0860 -0.2471
  542loPI   C3A 8665   0.947   7.112   8.637 -0.1865  0.0719 -0.0643
  542loPI   C4A 8666   0.813   7.238   8.241 -0.4392  0.1692 -0.1691
  542loPI   C5A 8667   0.627   7.117   7.771  0.1845  0.1441 -0.3903
  542loPI   C6A 8668   0.340   7.284   7.605 -0.0548  0.1206 -0.2790
  542loPI   C1B 8669   1.288   6.908   9.497 -0.0891 -0.0113 -0.1527
  542loPI   C2B 8670   1.357   6.929   8.996 -0.0977  0.1726 -0.0910
  542loPI   C3B 8671   1.414   6.896   8.608  0.2119 -0.1461  0.0204
  542loPI   C4B 8672   1.309   6.963   8.239 -0.2828  0.1079  0.0545
  543loPI    C1 8673   5.889   6.014  10.700 -0.1842  0.0719 -0.1622
  543loPI    C2 8674   5.655   5.943  10.384 -0.1521  0.0685 -0.1851
  543loPI    C3 8675   5.566   6.242  10.635 -0.1418  0.1118 -0.2328
  543loPI   PO4 8676   6.090   5.884  10.668  0.0299 -0.0391 -0.3340
  543loPI   GL1 8677   6.158   5.935  10.212 -0.1590  0.2924 -0.0807
  543loPI   GL2 8678   6.344   6.163  10.306  0.0046  0.1152 -0.1179
  543loPI   C1A 8679   6.022   5.885   9.874 -0.0828 -0.0059 -0.0655
  543loPI   C2A 8680   5.850   5.794   9.524 -0.1439  0.2162  0.0407
  543loPI   C3A 8681   5.948   5.766   9.088 -0.0750  0.1062  0.0180
  543loPI   C4A 8682   6.059   5.800   8.694  0.1956 -0.2162  0.0644
  543loPI   C5A 8683   6.170   5.820   8.218 -0.4388 -0.2023  0.0165
  543loPI   C6A 8684   6.213   6.019   7.864 -0.1311 -0.0601  0.3231
  543loPI   C1B 8685   6.455   6.234   9.898  0.0388  0.2159 -0.0881
  543loPI   C2B 8686   6.426   6.262   9.459  0.1554 -0.0978 -0.1870
  543loPI   C3B 8687   6.531   6.219   8.989 -0.1603 -0.3715  0.3097
  543loPI   C4B 8688   6.265   6.212   8.642  0.1014  0.1480  0.1261
  544loPI    C1 8689   8.584   3.696  10.692 -0.0585 -0.1592  0.1276
  544loPI    C2 8690   8.279   3.578  10.923 -0.0631 -0.0475  0.1792
  544loPI    C3 8691   8.247   3.912  10.705 -0.0264 -0.1063  0.0830
  544loPI   PO4 8692   8.655   3.515  10.555 -0.1207  0.2560  0.2991
  544loPI   GL1 8693   8.656   3.445  10.233 -0.1367 -0.2727 -0.3115
  544loPI   GL2 8694   8.855   3.136  10.080  0.1650  0.1728 -0.1231
  544loPI   C1A 8695   8.433   3.641   9.908 -0.1119 -0.2646 -0.1165
  544loPI   C2A 8696   8.496   3.824   9.493  0.3511  0.2803 -0.1907
  544loPI   C3A 8697   8.476   3.817   9.038  0.1031  0.1618 -0.1820
  544loPI   C4A 8698   8.439   3.810   8.630 -0.1398 -0.0175  0.1409
  544loPI   C5A 8699   8.734   3.941   8.287  0.0072 -0.2508 -0.3596
  544loPI   C6A 8700   9.115   3.973   8.069  0.1430  0.1801  0.3117
  544loPI   C1B 8701   8.942   3.437   9.838  0.0097  0.0690  0.0004
  544loPI   C2B 8702   9.080   3.619   9.522 -0.0259 -0.1784  0.0434
  544loPI   C3B 8703   9.039   3.746   9.128  0.2311 -0.1980  0.1311
  544loPI   C4B 8704   8.989   3.773   8.653  0.0514 -0.1051  0.0397
  545loPI    C1 8705  12.089   3.653  10.547 -0.0197  0.0343 -0.1444
  545loPI    C2 8706  12.287   3.623  10.894 -0.0532 -0.3169 -0.1521
  545loPI    C3 8707  11.887   3.640  10.893 -0.0377  0.2695 -0.1440
  545loPI   PO4 8708  12.229   3.862  10.439 -0.0395 -0.1533  0.1082
  545loPI   GL1 8709  12.089   4.010  10.126  0.3046 -0.0451 -0.0336
  545loPI   GL2 8710  11.839   4.033   9.997  0.1602  0.0087  0.0857
  545loPI   C1A 8711  12.211   4.189   9.741 -0.0586 -0.1612  0.1356
  545loPI   C2A 8712  12.137   4.300   9.293  0.1344 -0.0306 -0.2535
  545loPI   C3A 8713  12.211   4.314   8.824  0.1397 -0.0117  0.0407
  545loPI   C4A 8714  12.237   4.387   8.356  0.2317  0.0843 -0.2253
  545loPI   C5A 8715  12.277   4.543   7.919  0.1531 -0.0404  0.0028
  545loPI   C6A 8716  12.336   4.324   7.503  0.0816  0.0790  0.1148
  545loPI   C1B 8717  11.807   3.968   9.514  0.2029  0.1315  0.1494
  545loPI   C2B 8718  11.830   3.915   9.006  0.2689 -0.1112 -0.0950
  545loPI   C3B 8719  11.869   3.893   8.590 -0.0635 -0.1169 -0.1022
  545loPI   C4B 8720  12.038   3.939   8.247 -0.0217  0.0741  0.0440
  546loPI    C1 8721   6.194  10.817  10.581  0.1923  0.0317  0.0209
  546loPI    C2 8722   5.998  11.030  10.857  0.1031 -0.0518  0.0225
  546loPI    C3 8723   6.299  10.790  10.966  0.0414 -0.1158  0.0526
  546loPI   PO4 8724   5.992  10.613  10.461 -0.2684 -0.1921  0.1060
  546loPI   GL1 8725   5.771  10.548  10.095  0.0128 -0.0407 -0.2433
  546loPI   GL2 8726   5.842  10.204  10.067  0.2095 -0.1804 -0.1301
  546loPI   C1A 8727   5.615  10.735   9.825 -0.1244  0.0483  0.1522
  546loPI   C2A 8728   5.666  10.732   9.269 -0.1248  0.3041  0.0326
  546loPI   C3A 8729   5.556  10.717   8.902  0.0883  0.0221 -0.1694
  546loPI   C4A 8730   5.489  10.708   8.527 -0.1884 -0.0585 -0.1891
  546loPI   C5A 8731   5.601  10.633   8.075  0.1667 -0.1237  0.0376
  546loPI   C6A 8732   5.347  10.365   7.839 -0.2735  0.0336 -0.1168
  546loPI   C1B 8733   5.756  10.288   9.621  0.1851 -0.2214 -0.0068
  546loPI   C2B 8734   5.802  10.267   9.202 -0.0918 -0.0414  0.1107
  546loPI   C3B 8735   5.618  10.237   8.724 -0.0772  0.0860  0.0703
  546loPI   C4B 8736   5.691  10.154   8.238 -0.1000 -0.0685  0.0967
  547loPI    C1 8737  16.341   6.114  10.771 -0.0620 -0.1151  0.3752
  547loPI    C2 8738  16.731   6.177  10.833 -0.0109 -0.2074  0.1567
  547loPI    C3 8739  16.460   6.420  10.998  0.1478 -0.0011  0.1170
  547loPI   PO4 8740  16.384   5.970  10.520  0.1905 -0.2232  0.1612
  547loPI   GL1 8741  16.270   6.252  10.107  0.0329 -0.1780 -0.0155
  547loPI   GL2 8742  16.021   6.058  10.191  0.1540 -0.1069 -0.2768
  547loPI   C1A 8743  16.244   6.524   9.760 -0.2133  0.2536  0.1852
  547loPI   C2A 8744  16.312   6.609   9.345  0.1210  0.1248  0.1291
  547loPI   C3A 8745  16.252   6.473   8.918 -0.0666 -0.0238 -0.0950
  547loPI   C4A 8746  16.232   6.544   8.528 -0.1788  0.0339 -0.0763
  547loPI   C5A 8747  16.073   6.513   8.161  0.4056 -0.2161  0.2154
  547loPI   C6A 8748  16.297   6.743   7.829 -0.0516  0.2188 -0.0461
  547loPI   C1B 8749  15.914   6.127   9.728 -0.0986  0.1356 -0.0762
  547loPI   C2B 8750  15.942   6.245   9.418  0.4138  0.1186 -0.1734
  547loPI   C3B 8751  15.889   6.171   9.025  0.0048 -0.1978 -0.0622
  547loPI   C4B 8752  16.027   6.130   8.599 -0.2311 -0.0242 -0.1784
  548loPI    C1 8753  12.011  13.745  10.894  0.2524  0.1991 -0.0243
  548loPI    C2 8754  11.727  13.891  11.136  0.1268 -0.1696  0.0574
  548loPI    C3 8755  12.112  13.912  11.243  0.1033  0.0158  0.1088
  548loPI   PO4 8756  11.989  13.929  10.661  0.0268  0.2377 -0.0413
  548loPI   GL1 8757  11.901  14.043  10.240  0.1681 -0.2248  0.0461
  548loPI   GL2 8758  12.114  14.004   9.999 -0.0736  0.1152  0.2397
  548loPI   C1A 8759  11.716  14.108   9.796  0.0701 -0.5441 -0.0994
  548loPI   C2A 8760  11.746  14.116   9.369  0.0532  0.4903  0.2264
  548loPI   C3A 8761  11.741  13.998   8.972 -0.0695 -0.1191 -0.1608
  548loPI   C4A 8762  11.820  13.866   8.590  0.1343  0.2687  0.4890
  548loPI   C5A 8763  11.704  13.516   8.256  0.0652 -0.1639  0.0819
  548loPI   C6A 8764  11.977  13.144   8.195  0.0828 -0.0015 -0.1787
  548loPI   C1B 8765  12.193  13.927   9.518 -0.1636  0.0334  0.2576
  548loPI   C2B 8766  12.275  13.853   8.990  0.2034  0.0815 -0.0265
  548loPI   C3B 8767  12.284  13.689   8.564 -0.0991 -0.1224 -0.1130
  548loPI   C4B 8768  12.283  13.579   8.207 -0.0421  0.1264  0.0325
  549loPI    C1 8769  11.778  18.108  11.106 -0.1206  0.1732  0.2824
  549loPI    C2 8770  12.046  17.820  11.179 -0.1920  0.0536  0.0804
  549loPI    C3 8771  11.737  17.874  11.427 -0.3311 -0.2265 -0.0270
  549loPI   PO4 8772  11.822  17.998  10.766  0.2992  0.0594  0.0814
  549loPI   GL1 8773  12.026  18.033  10.285  0.0120  0.1224  0.0216
  549loPI   GL2 8774  11.620  18.035  10.318 -0.3371 -0.1669  0.5138
  549loPI   C1A 8775  11.888  17.893   9.921  0.1627 -0.3939 -0.1372
  549loPI   C2A 8776  11.719  17.733   9.585 -0.2213  0.0954 -0.0698
  549loPI   C3A 8777  11.649  17.711   9.042  0.3718 -0.0508  0.0684
  549loPI   C4A 8778  11.564  17.701   8.602  0.2648  0.2928 -0.2815
  549loPI   C5A 8779  11.367  17.836   8.276  0.0698  0.1003  0.1575
  549loPI   C6A 8780  11.242  18.178   8.024  0.1365 -0.0049 -0.0722
  549loPI   C1B 8781  11.347  18.042   9.989  0.0476 -0.0709 -0.2175
  549loPI   C2B 8782  11.237  17.828   9.682  0.0469  0.1612 -0.0296
  549loPI   C3B 8783  11.149  17.726   9.268 -0.2004 -0.0078  0.0550
  549loPI   C4B 8784  11.111  17.882   8.837 -0.1691 -0.1510  0.3135
  550loPI    C1 8785  14.850   5.842  10.517 -0.0096  0.0902  0.0664
  550loPI    C2 8786  15.134   5.581  10.624 -0.0103  0.0736  0.0280
  550loPI    C3 8787  14.767   5.554  10.782  0.0690  0.2276  0.2418
  550loPI   PO4 8788  14.824   5.817  10.257 -0.2865  0.0118 -0.1106
  550loPI   GL1 8789  15.057   5.846   9.933  0.0837 -0.3478  0.0811
  550loPI   GL2 8790  15.172   5.593  10.033 -0.0395  0.1096  0.2404
  550loPI   C1A 8791  14.979   5.934   9.461 -0.1339 -0.1892 -0.2640
  550loPI   C2A 8792  14.959   5.838   9.044 -0.2918  0.1918 -0.2473
  550loPI   C3A 8793  15.195   5.820   8.676  0.2377  0.1763  0.1700
  550loPI   C4A 8794  15.238   5.733   8.234 -0.0667  0.0477  0.0412
  550loPI   C5A 8795  15.385   5.940   7.887  0.2714 -0.1905  0.2996
  550loPI   C6A 8796  15.776   5.966   7.841  0.1431 -0.1316  0.2964
  550loPI   C1B 8797  15.161   5.386   9.654  0.0168 -0.1101  0.0678
  550loPI   C2B 8798  15.164   5.392   9.263  0.0693 -0.3062  0.2536
  550loPI   C3B 8799  15.203   5.317   8.873  0.2359  0.0931  0.0726
  550loPI   C4B 8800  15.233   5.332   8.520  0.2134 -0.1186  0.0358
  551loPI    C1 8801   7.082   9.483  10.577  0.0376  0.0664 -0.0817
  551loPI    C2 8802   6.724   9.502  10.755  0.0486 -0.1998 -0.0279
  551loPI    C3 8803   7.057   9.495  10.976  0.0835 -0.0548 -0.0749
  551loPI   PO4 8804   6.984   9.709  10.293 -0.1018  0.0723 -0.4949
  551loPI   GL1 8805   6.712   9.544  10.017  0.3722 -0.1939  0.0773
  551loPI   GL2 8806   6.737   9.907   9.910 -0.0011  0.0188  0.3113
  551loPI   C1A 8807   6.415   9.558   9.758  0.0904  0.0598  0.0176
  551loPI   C2A 8808   6.414   9.458   9.349  0.2175  0.0458 -0.2141
  551loPI   C3A 8809   6.359   9.485   8.910  0.0801  0.1882  0.1963
  551loPI   C4A 8810   6.364   9.400   8.480 -0.2361 -0.1113 -0.1555
  551loPI   C5A 8811   6.353   9.215   8.087  0.4003 -0.0715 -0.1810
  551loPI   C6A 8812   6.491   8.844   8.001  0.1039  0.2015  0.2340
  551loPI   C1B 8813   6.781   9.919   9.454  0.0811 -0.2806 -0.4052
  551loPI   C2B 8814   6.731   9.853   9.027 -0.3264 -0.0632 -0.2673
  551loPI   C3B 8815   6.623   9.868   8.634 -0.0483 -0.0652  0.1066
  551loPI   C4B 8816   6.906   9.854   8.243  0.3700  0.1412  0.0745
  552loPI    C1 8817   9.095  11.689  10.840 -0.1345 -0.1941  0.0345
  552loPI    C2 8818   9.421  11.514  10.993  0.0085  0.0340 -0.0040
  552loPI    C3 8819   9.094  11.560  11.219 -0.0210 -0.2525  0.0156
  552loPI   PO4 8820   9.067  11.607  10.594 -0.0327 -0.0732  0.2349
  552loPI   GL1 8821   9.166  11.703  10.160 -0.0916 -0.2613 -0.0463
  552loPI   GL2 8822   9.360  11.408  10.214 -0.0189  0.1563  0.1986
  552loPI   C1A 8823   9.181  11.805   9.756 -0.0237  0.1279  0.0830
  552loPI   C2A 8824   9.076  11.787   9.302  0.1209  0.2038  0.2514
  552loPI   C3A 8825   9.039  11.699   8.865 -0.2485 -0.0433  0.2810
  552loPI   C4A 8826   9.077  11.604   8.408  0.4086 -0.0206 -0.0275
  552loPI   C5A 8827   9.048  11.167   8.125  0.1811  0.3209  0.2228
  552loPI   C6A 8828   8.908  11.115   7.727  0.1240  0.0747  0.1441
  552loPI   C1B 8829   9.333  11.315   9.816 -0.1188 -0.3512 -0.0532
  552loPI   C2B 8830   9.280  11.267   9.431 -0.1904 -0.0299 -0.3699
  552loPI   C3B 8831   9.229  11.235   9.028 -0.2290 -0.0820  0.3753
  552loPI   C4B 8832   9.228  11.086   8.625  0.1608  0.2682 -0.1363
  553loPI    C1 8833   8.801  18.447  10.865 -0.0008  0.0919  0.0437
  553loPI    C2 8834   8.571  18.512  11.186 -0.0332 -0.3054  0.1062
  553loPI    C3 8835   8.928  18.690  11.157 -0.0909 -0.1556  0.2939
  553loPI   PO4 8836   8.656  18.484  10.670  0.2735  0.2127 -0.2033
  553loPI   GL1 8837   8.577  18.375  10.268  0.0791  0.1186  0.0702
  553loPI   GL2 8838   8.671  18.056  10.279 -0.1025 -0.0868  0.1189
  553loPI   C1A 8839   8.575  18.516   9.920 -0.0624  0.1032  0.2479
  553loPI   C2A 8840   8.568  18.580   9.540 -0.2032 -0.0810  0.2014
  553loPI   C3A 8841   8.601  18.459   9.218 -0.2465 -0.1833 -0.0494
  553loPI   C4A 8842   8.592  18.438   8.753  0.1207  0.1556 -0.1404
  553loPI   C5A 8843   8.734  18.388   8.244  0.1645 -0.0652  0.1271
  553loPI   C6A 8844   8.993  18.285   7.844  0.0460  0.0358 -0.1953
  553loPI   C1B 8845   8.688  17.949   9.902  0.2184 -0.2201 -0.2330
  553loPI   C2B 8846   8.694  18.032   9.448 -0.1155  0.2028  0.0471
  553loPI   C3B 8847   8.709  17.962   9.003  0.1137  0.1021  0.1138
  553loPI   C4B 8848   8.701  17.899   8.566 -0.1078 -0.1973  0.0600
  554loPI    C1 8849   1.856  15.698  10.265  0.1524 -0.0388 -0.0357
  554loPI    C2 8850   1.463  15.750  10.211  0.1839  0.1212 -0.1167
  554loPI    C3 8851   1.607  15.677  10.577  0.0896  0.1629 -0.0712
  554loPI   PO4 8852   1.937  15.850  10.034 -0.0850 -0.0027 -0.2589
  554loPI   GL1 8853   2.032  15.937   9.553 -0.1422 -0.0052  0.1134
  554loPI   GL2 8854   2.264  16.214   9.501 -0.1846 -0.2962  0.0286
  554loPI   C1A 8855   2.097  15.835   9.049 -0.3655 -0.2728 -0.2045
  554loPI   C2A 8856   2.178  15.814   8.664  0.0674  0.4138 -0.1844
  554loPI   C3A 8857   2.061  15.735   8.269 -0.2003  0.0513 -0.1138
  554loPI   C4A 8858   2.232  15.746   7.903  0.0128  0.2180  0.2316
  554loPI   C5A 8859   2.545  15.977   7.655 -0.2268 -0.0090  0.1634
  554loPI   C6A 8860   2.961  16.141   7.506  0.1027 -0.0541 -0.2412
  554loPI   C1B 8861   2.073  16.341   9.255  0.0671 -0.0212 -0.1468
  554loPI   C2B 8862   1.962  16.258   8.822 -0.2713  0.0045 -0.0746
  554loPI   C3B 8863   1.848  16.143   8.393  0.1496 -0.2571  0.2114
  554loPI   C4B 8864   2.004  16.150   7.954  0.1166 -0.1458 -0.0219
  555loPI    C1 8865  14.320   5.553  10.606  0.1520 -0.0726 -0.1540
  555loPI    C2 8866  14.014   5.809  10.641  0.1083 -0.1507  0.0493
  555loPI    C3 8867  14.276   5.768  10.940  0.4034  0.0219 -0.1803
  555loPI   PO4 8868  14.395   5.558  10.357 -0.0141  0.1104 -0.1900
  555loPI   GL1 8869  14.393   5.512  10.044  0.0491  0.0311 -0.3407
  555loPI   GL2 8870  14.668   5.466   9.931  0.2027  0.0832  0.1463
  555loPI   C1A 8871  14.074   5.717   9.681  0.1908 -0.2812  0.3391
  555loPI   C2A 8872  14.101   5.625   9.282  0.3418  0.0017 -0.1454
  555loPI   C3A 8873  14.216   5.626   8.848  0.0394 -0.1888 -0.0338
  555loPI   C4A 8874  14.126   5.520   8.444 -0.1419  0.0019  0.1419
  555loPI   C5A 8875  13.936   5.643   8.082 -0.0299  0.0987 -0.0628
  555loPI   C6A 8876  13.600   5.866   8.142 -0.2071  0.0265  0.0645
  555loPI   C1B 8877  14.629   5.553   9.435 -0.4359 -0.1015 -0.2370
  555loPI   C2B 8878  14.645   5.516   9.016  0.1122 -0.3206  0.3405
  555loPI   C3B 8879  14.660   5.480   8.532  0.1218  0.1310  0.2506
  555loPI   C4B 8880  14.901   5.365   8.132 -0.0117  0.0213  0.0764
  556loPI    C1 8881   3.482   6.479  10.381  0.0984  0.4278  0.2069
  556loPI    C2 8882   3.611   6.469  10.759  0.0451  0.0548  0.2190
  556loPI    C3 8883   3.219   6.461  10.681  0.0608 -0.0948  0.1518
  556loPI   PO4 8884   3.575   6.166  10.245 -0.1103 -0.0087  0.0744
  556loPI   GL1 8885   3.577   6.006   9.875  0.2080  0.0934  0.3379
  556loPI   GL2 8886   3.633   6.068   9.560 -0.0086 -0.1911  0.2195
  556loPI   C1A 8887   3.715   5.571   9.609  0.4484 -0.1981 -0.0837
  556loPI   C2A 8888   3.869   5.489   9.343 -0.0813  0.1811  0.2678
  556loPI   C3A 8889   3.828   5.488   8.884  0.1711  0.4951  0.0400
  556loPI   C4A 8890   3.792   5.511   8.452 -0.0774 -0.2743 -0.0376
  556loPI   C5A 8891   3.927   5.346   7.985 -0.2539 -0.1484  0.1695
  556loPI   C6A 8892   4.158   5.413   7.634  0.0438 -0.1318  0.1438
  556loPI   C1B 8893   3.680   5.997   9.064 -0.2874 -0.1289 -0.4217
  556loPI   C2B 8894   3.659   5.991   8.613  0.1211 -0.2022 -0.0723
  556loPI   C3B 8895   3.751   5.994   8.209  0.3359 -0.1982 -0.2818
  556loPI   C4B 8896   3.571   6.225   7.864 -0.0510  0.0591  0.1022
  557loPI    C1 8897  10.118  12.515  10.655 -0.1353 -0.2396  0.0455
  557loPI    C2 8898  10.030  12.621  11.031 -0.0546 -0.1283  0.0336
  557loPI    C3 8899  10.345  12.386  10.958  0.0416  0.0033  0.0201
  557loPI   PO4 8900  10.224  12.718  10.496 -0.3002  0.0856  0.2400
  557loPI   GL1 8901   9.998  12.757  10.080  0.4467 -0.2609 -0.2672
  557loPI   GL2 8902  10.083  13.032  10.031 -0.0666 -0.0442  0.0922
  557loPI   C1A 8903   9.893  12.602   9.726 -0.1284  0.1266  0.2288
  557loPI   C2A 8904   9.822  12.604   9.274 -0.0469 -0.3574  0.3381
  557loPI   C3A 8905   9.790  12.530   8.896 -0.1070  0.1965  0.4399
  557loPI   C4A 8906   9.968  12.430   8.452  0.4829  0.1391  0.0003
  557loPI   C5A 8907  10.022  12.290   8.077 -0.1171  0.4789 -0.0730
  557loPI   C6A 8908   9.994  12.245   7.600 -0.1704 -0.0212 -0.0608
  557loPI   C1B 8909  10.243  12.991   9.584  0.1046 -0.3485 -0.1376
  557loPI   C2B 8910  10.170  12.966   9.156 -0.0641  0.2608  0.0625
  557loPI   C3B 8911  10.143  12.840   8.722  0.0905  0.0950  0.3119
  557loPI   C4B 8912  10.223  12.831   8.362  0.1559  0.2480  0.2603
  558loPI    C1 8913   3.233  12.027  10.486  0.1815 -0.0995 -0.1039
  558loPI    C2 8914   3.042  11.849  10.789  0.1303  0.0257 -0.0620
  558loPI    C3 8915   3.330  11.654  10.592  0.0734 -0.1039 -0.0182
  558loPI   PO4 8916   3.068  12.198  10.350 -0.1324  0.1927 -0.3163
  558loPI   GL1 8917   2.891  12.475   9.987  0.2910  0.4282  0.0400
  558loPI   GL2 8918   2.907  12.818  10.065  0.0246  0.0664 -0.0287
  558loPI   C1A 8919   3.116  12.212   9.616 -0.1401 -0.1585  0.0587
  558loPI   C2A 8920   3.217  12.195   9.213 -0.3566  0.0900  0.1736
  558loPI   C3A 8921   3.181  12.228   8.764  0.5994 -0.0486  0.1862
  558loPI   C4A 8922   3.254  12.218   8.292 -0.0117 -0.1755 -0.0814
  558loPI   C5A 8923   3.134  11.989   7.924  0.1231  0.2133  0.2017
  558loPI   C6A 8924   3.424  11.682   7.723 -0.5606 -0.2845 -0.0356
  558loPI   C1B 8925   3.047  12.804   9.579 -0.0302  0.0454  0.0970
  558loPI   C2B 8926   2.972  12.691   9.177 -0.1160 -0.2315  0.1393
  558loPI   C3B 8927   3.048  12.726   8.838  0.0381  0.0871 -0.1229
  558loPI   C4B 8928   3.046  12.650   8.441 -0.1196  0.2410 -0.0678
  559loPI    C1 8929   4.773   6.067  10.747  0.3951  0.0088  0.1423
  559loPI    C2 8930   4.630   6.318  11.025  0.1975 -0.0794  0.1219
  559loPI    C3 8931   4.494   5.942  11.005  0.2075 -0.0731 -0.0964
  559loPI   PO4 8932   4.708   6.129  10.514 -0.0427 -0.3052  0.0799
  559loPI   GL1 8933   4.661   6.363  10.249 -0.1097 -0.2697 -0.0865
  559loPI   GL2 8934   4.776   6.615  10.069 -0.2695  0.4946  0.1341
  559loPI   C1A 8935   4.496   6.213   9.800  0.0874  0.0548  0.1466
  559loPI   C2A 8936   4.549   6.200   9.361  0.1446  0.3068  0.0522
  559loPI   C3A 8937   4.617   6.319   8.930 -0.0890 -0.1598  0.0554
  559loPI   C4A 8938   4.598   6.222   8.429  0.4714 -0.0589  0.2026
  559loPI   C5A 8939   4.713   5.881   8.061 -0.2717 -0.0366 -0.0051
  559loPI   C6A 8940   4.645   5.933   7.733 -0.3255  0.2855 -0.0976
  559loPI   C1B 8941   4.863   6.557   9.658 -0.0294  0.2539  0.0553
  559loPI   C2B 8942   4.822   6.679   9.264  0.3135 -0.4399 -0.1087
  559loPI   C3B 8943   4.909   6.710   8.882  0.0425 -0.0024  0.0416
  559loPI   C4B 8944   5.026   6.480   8.545 -0.0006 -0.2953  0.4028
  560loPI    C1 8945  17.244   2.453   9.867  0.2100 -0.1805 -0.1234
  560loPI    C2 8946  17.204   2.307  10.237 -0.2719  0.2315 -0.0012
  560loPI    C3 8947  17.429   2.631  10.173 -0.2601  0.2126 -0.0561
  560loPI   PO4 8948  17.001   2.459   9.738  0.0888  0.0589  0.0507
  560loPI   GL1 8949  16.926   2.450   9.397 -0.2190  0.3212 -0.0154
  560loPI   GL2 8950  16.575   2.553   9.267  0.0607  0.0926  0.1772
  560loPI   C1A 8951  16.817   2.241   8.940  0.0810  0.0611  0.0782
  560loPI   C2A 8952  16.832   2.168   8.453  0.0782 -0.0298 -0.3770
  560loPI   C3A 8953  16.893   2.422   8.164 -0.1726  0.2655 -0.0087
  560loPI   C4A 8954  16.974   2.519   7.743 -0.0425 -0.1418  0.0025
  560loPI   C5A 8955  16.877   2.941   7.505 -0.3219  0.0319 -0.0383
  560loPI   C6A 8956  16.833   3.158   7.101  0.0046  0.1360 -0.1505
  560loPI   C1B 8957  16.465   2.887   9.117 -0.2731  0.1202  0.3052
  560loPI   C2B 8958  16.314   3.148   8.860  0.0201 -0.3899 -0.0281
  560loPI   C3B 8959  16.119   3.040   8.447  0.0763  0.4589 -0.1574
  560loPI   C4B 8960  15.849   2.904   8.109  0.3072  0.2833 -0.2258
  561loPI    C1 8961   8.839   4.118  10.869 -0.1855 -0.1498  0.0830
  561loPI    C2 8962   8.610   4.353  11.098  0.0107  0.2268 -0.0994
  561loPI    C3 8963   9.008   4.400  11.097  0.0365  0.0197 -0.2823
  561loPI   PO4 8964   8.775   4.151  10.582  0.1417 -0.1595  0.3542
  561loPI   GL1 8965   8.754   4.391  10.266  0.2583  0.2492  0.0517
  561loPI   GL2 8966   8.889   4.243  10.093 -0.3988  0.0031 -0.1275
  561loPI   C1A 8967   8.666   4.695   9.981 -0.0744  0.0469  0.0818
  561loPI   C2A 8968   8.772   4.698   9.487  0.0113 -0.3257  0.2123
  561loPI   C3A 8969   8.689   4.698   8.978  0.0267 -0.2351  0.0317
  561loPI   C4A 8970   8.764   4.734   8.503 -0.2036 -0.1866 -0.0951
  561loPI   C5A 8971   8.912   4.504   8.132  0.1886 -0.0096 -0.0835
  561loPI   C6A 8972   8.895   4.430   7.659 -0.1143  0.1406  0.0685
  561loPI   C1B 8973   8.879   4.041   9.778 -0.0036 -0.0082 -0.2436
  561loPI   C2B 8974   8.946   4.140   9.510 -0.2650 -0.0458  0.3356
  561loPI   C3B 8975   8.971   4.229   9.040 -0.0146 -0.1732 -0.3305
  561loPI   C4B 8976   8.966   4.272   8.623  0.0909  0.0861  0.0050
  562loPI    C1 8977   0.051  12.496  10.551  0.0411 -0.2143 -0.0000
  562loPI    C2 8978   0.326  12.411  10.274  0.1051 -0.0512  0.0127
  562loPI    C3 8979   0.372  12.279  10.648  0.0747 -0.1768 -0.0274
  562loPI   PO4 8980  -0.211  12.490  10.375  0.0979  0.3923  0.3842
  562loPI   GL1 8981  -0.299  12.252  10.010  0.1172  0.0978  0.0615
  562loPI   GL2 8982  -0.610  12.301   9.844  0.0143  0.1688  0.0067
  562loPI   C1A 8983  -0.150  12.074   9.632 -0.1753  0.1252  0.2632
  562loPI   C2A 8984  -0.098  12.096   9.200  0.2010  0.0935  0.0326
  562loPI   C3A 8985  -0.028  12.003   8.779  0.1307 -0.0598 -0.2209
  562loPI   C4A 8986  -0.042  11.919   8.229 -0.0356 -0.0153 -0.2908
  562loPI   C5A 8987  -0.038  12.019   7.851  0.0736 -0.3028 -0.2858
  562loPI   C6A 8988  -0.300  11.903   7.493 -0.2976 -0.2212  0.3495
  562loPI   C1B 8989  -0.568  12.307   9.381  0.0985 -0.1477 -0.0802
  562loPI   C2B 8990  -0.591  12.160   8.956 -0.1258  0.0796 -0.4218
  562loPI   C3B 8991  -0.446  12.131   8.493 -0.2167 -0.0819 -0.1618
  562loPI   C4B 8992  -0.489  12.089   8.108  0.1280 -0.1031 -0.0943
  563loPI    C1 8993  12.172  11.724  10.836  0.1410 -0.0488  0.0473
  563loPI    C2 8994  11.958  11.672  10.503  0.0713 -0.0953  0.0988
  563loPI    C3 8995  11.778  11.656  10.860  0.1113  0.1465  0.1317
  563loPI   PO4 8996  12.393  11.593  10.743 -0.0205  0.0734  0.1106
  563loPI   GL1 8997  12.468  11.580  10.253  0.1159  0.1256 -0.2700
  563loPI   GL2 8998  12.691  11.844  10.028 -0.5811  0.2087  0.0059
  563loPI   C1A 8999  12.541  11.383   9.759  0.1461 -0.3285 -0.1071
  563loPI   C2A 9000  12.579  11.447   9.347 -0.2088  0.1838 -0.2109
  563loPI   C3A 9001  12.655  11.315   9.018 -0.0847  0.2228 -0.0346
  563loPI   C4A 9002  12.620  11.171   8.526  0.0005  0.1053  0.0421
  563loPI   C5A 9003  12.605  11.229   8.082  0.1097 -0.2580  0.1065
  563loPI   C6A 9004  12.894  11.340   7.703  0.0538  0.0867 -0.2027
  563loPI   C1B 9005  12.893  11.777   9.606  0.0931 -0.3027  0.0327
  563loPI   C2B 9006  12.968  11.687   9.092  0.0593 -0.1879 -0.0085
  563loPI   C3B 9007  13.054  11.605   8.610 -0.0062  0.2684 -0.0472
  563loPI   C4B 9008  13.231  11.698   8.155  0.0133  0.2192  0.1903
  564loPI    C1 9009  13.100   9.097  11.104 -0.2432  0.1097  0.0621
  564loPI    C2 9010  13.397   9.362  11.061 -0.0010 -0.1743 -0.0487
  564loPI    C3 9011  13.400   9.106  11.369  0.0141 -0.3587 -0.1999
  564loPI   PO4 9012  13.003   9.029  10.762  0.1403  0.0212  0.0976
  564loPI   GL1 9013  12.805   9.024  10.311  0.1545 -0.0755 -0.0360
  564loPI   GL2 9014  13.078   9.303  10.108  0.0888  0.1518 -0.1125
  564loPI   C1A 9015  12.823   8.929   9.861  0.1362 -0.0335  0.0793
  564loPI   C2A 9016  12.845   8.958   9.392  0.1585  0.0448 -0.1102
  564loPI   C3A 9017  12.905   8.880   8.914 -0.1922  0.1423 -0.0772
  564loPI   C4A 9018  12.856   8.843   8.530 -0.1865 -0.4327 -0.0130
  564loPI   C5A 9019  12.839   8.795   8.068  0.0430  0.0624  0.0426
  564loPI   C6A 9020  12.979   8.751   7.686  0.0639  0.0356  0.2674
  564loPI   C1B 9021  13.128   9.263   9.673 -0.0545 -0.0913 -0.2303
  564loPI   C2B 9022  13.168   9.256   9.256 -0.3181 -0.1116 -0.2918
  564loPI   C3B 9023  13.272   9.164   8.784  0.1338  0.0898  0.0551
  564loPI   C4B 9024  13.255   9.150   8.335 -0.4433 -0.0910 -0.1452
  565loPI    C1 9025  13.581   9.863  10.470  0.0372  0.1276  0.0429
  565loPI    C2 9026  13.453   9.824  10.847 -0.0451 -0.1060 -0.0075
  565loPI    C3 9027  13.845   9.836  10.769 -0.0282 -0.0166  0.0886
  565loPI   PO4 9028  13.370  10.134  10.355 -0.0455  0.2193  0.0688
  565loPI   GL1 9029  13.494  10.170   9.895  0.0920 -0.0416  0.0204
  565loPI   GL2 9030  13.430  10.473   9.963 -0.3111 -0.0057  0.1348
  565loPI   C1A 9031  13.412  10.230   9.422 -0.2760  0.2189  0.1295
  565loPI   C2A 9032  13.339  10.137   8.955 -0.1911  0.1277 -0.1343
  565loPI   C3A 9033  13.362  10.001   8.517  0.1724 -0.3030 -0.2067
  565loPI   C4A 9034  13.524  10.109   8.168  0.2348 -0.3685 -0.0927
  565loPI   C5A 9035  13.887   9.892   7.963  0.0901 -0.2560  0.1311
  565loPI   C6A 9036  13.889   9.748   7.501  0.2411 -0.1988  0.1348
  565loPI   C1B 9037  13.726  10.523   9.647  0.1397  0.0963  0.0289
  565loPI   C2B 9038  13.803  10.543   9.219 -0.1890  0.0892 -0.2061
  565loPI   C3B 9039  13.779  10.562   8.883  0.1416 -0.1682  0.0470
  565loPI   C4B 9040  13.811  10.417   8.414  0.0521 -0.0142  0.1076
  566loPI    C1 9041   5.205   2.005  10.214 -0.1287  0.1671 -0.0948
  566loPI    C2 9042   5.137   1.616  10.152 -0.1209  0.1749 -0.1529
  566loPI    C3 9043   4.830   1.873  10.172 -0.1531  0.1094  0.2764
  566loPI   PO4 9044   5.458   1.982  10.031 -0.0714  0.1392  0.0498
  566loPI   GL1 9045   5.368   2.336   9.717 -0.2719  0.3361  0.2139
  566loPI   GL2 9046   5.290   2.585   9.608 -0.0017  0.0016 -0.0037
  566loPI   C1A 9047   5.570   2.250   9.352  0.0403 -0.0931 -0.0996
  566loPI   C2A 9048   5.567   2.244   9.050 -0.0729 -0.1909  0.2961
  566loPI   C3A 9049   5.596   2.121   8.709 -0.2256  0.0581  0.1077
  566loPI   C4A 9050   5.626   2.131   8.261  0.3152 -0.0335 -0.4024
  566loPI   C5A 9051   5.571   2.065   7.838  0.1407  0.0520 -0.2762
  566loPI   C6A 9052   5.145   1.909   7.592 -0.0604  0.2060 -0.1995
  566loPI   C1B 9053   5.382   2.684   9.153 -0.4308  0.1174 -0.0277
  566loPI   C2B 9054   5.505   2.815   8.794 -0.1174  0.1323 -0.2281
  566loPI   C3B 9055   5.478   2.675   8.446  0.3313  0.0511 -0.2428
  566loPI   C4B 9056   5.483   2.569   8.062 -0.1415  0.0347  0.1918
  567loPI    C1 9057   7.520  15.514  10.583 -0.1030  0.2412  0.1901
  567loPI    C2 9058   7.268  15.690  10.839 -0.0551  0.1703  0.2867
  567loPI    C3 9059   7.642  15.828  10.800 -0.0824  0.2222  0.2061
  567loPI   PO4 9060   7.381  15.274  10.534 -0.0886 -0.0578  0.1161
  567loPI   GL1 9061   7.139  15.220  10.084 -0.2361 -0.0184 -0.0515
  567loPI   GL2 9062   7.379  15.488  10.037 -0.2414  0.1023  0.0183
  567loPI   C1A 9063   7.112  15.101   9.623 -0.0846  0.0604  0.6201
  567loPI   C2A 9064   7.120  15.014   9.228  0.1457 -0.0688 -0.1903
  567loPI   C3A 9065   7.200  15.014   8.864  0.3301 -0.0471  0.0771
  567loPI   C4A 9066   7.141  15.006   8.382 -0.2392  0.0805  0.0524
  567loPI   C5A 9067   7.229  15.190   8.010 -0.4050  0.2240  0.0969
  567loPI   C6A 9068   7.600  15.444   7.817  0.0215  0.0134 -0.1128
  567loPI   C1B 9069   7.444  15.475   9.569  0.3413 -0.0109  0.0172
  567loPI   C2B 9070   7.608  15.391   9.177  0.0835 -0.0400  0.1614
  567loPI   C3B 9071   7.521  15.366   8.742 -0.2880 -0.0748 -0.2223
  567loPI   C4B 9072   7.609  15.403   8.312 -0.2284  0.3326 -0.1374
  568loPI    C1 9073  15.143   0.499  10.317 -0.1783  0.0373 -0.1159
  568loPI    C2 9074  14.959   0.448  10.668 -0.2477  0.0028 -0.1569
  568loPI    C3 9075  15.356   0.496  10.655 -0.2257 -0.1529 -0.0868
  568loPI   PO4 9076  14.898   0.553  10.142  0.1853 -0.2147  0.3832
  568loPI   GL1 9077  14.852   0.614   9.552  0.1747 -0.0140  0.0129
  568loPI   GL2 9078  14.770   0.375   9.333 -0.0025 -0.3536  0.2934
  568loPI   C1A 9079  14.626   0.894   9.351  0.1227  0.0480 -0.5857
  568loPI   C2A 9080  14.571   0.933   8.835 -0.1332  0.1835 -0.1057
  568loPI   C3A 9081  14.531   0.858   8.367  0.3092  0.1606  0.3932
  568loPI   C4A 9082  14.303   0.924   7.977  0.1734  0.2148 -0.0490
  568loPI   C5A 9083  13.917   0.620   7.889 -0.1242 -0.0429 -0.3148
  568loPI   C6A 9084  13.843   0.396   7.572 -0.1853  0.1625 -0.3475
  568loPI   C1B 9085  14.691   0.281   8.857 -0.0765 -0.1893 -0.3929
  568loPI   C2B 9086  14.644   0.387   8.461  0.1416  0.0550  0.2441
  568loPI   C3B 9087  14.446   0.418   8.048 -0.2040  0.3375  0.1557
  568loPI   C4B 9088  14.458   0.594   7.654 -0.1706 -0.2734  0.0475
  569loPI    C1 9089   2.776   4.456  10.073  0.0850  0.0119  0.2086
  569loPI    C2 9090   3.028   4.523  10.376  0.2536  0.0285  0.0656
  569loPI    C3 9091   3.021   4.165  10.196  0.0488 -0.0289  0.1847
  569loPI   PO4 9092   2.549   4.521  10.149 -0.1276 -0.3264  0.3123
  569loPI   GL1 9093   2.472   5.071   9.951 -0.1080 -0.2873 -0.0279
  569loPI   GL2 9094   2.509   4.741   9.706 -0.0034 -0.0192  0.2799
  569loPI   C1A 9095   2.341   5.194   9.552 -0.2703 -0.0062  0.3418
  569loPI   C2A 9096   2.243   5.382   9.131  0.2481 -0.0885  0.1301
  569loPI   C3A 9097   2.249   5.337   8.676 -0.0005 -0.0326 -0.1406
  569loPI   C4A 9098   2.472   5.366   8.362  0.1509 -0.0360 -0.1931
  569loPI   C5A 9099   2.532   5.640   8.014 -0.0449  0.2368  0.1098
  569loPI   C6A 9100   2.861   5.745   7.727  0.0794  0.1322  0.1401
  569loPI   C1B 9101   2.610   4.603   9.317  0.1989  0.0881  0.2002
  569loPI   C2B 9102   2.782   4.372   8.959 -0.3107 -0.1209  0.0124
  569loPI   C3B 9103   3.105   4.235   8.729  0.1777  0.0530  0.0108
  569loPI   C4B 9104   3.183   3.984   8.416 -0.0315  0.3808 -0.2256
  570loPI    C1 9105  13.318  12.310  10.644  0.0795  0.2419  0.1244
  570loPI    C2 9106  13.628  12.132  10.824 -0.0234  0.0444  0.1088
  570loPI    C3 9107  13.333  12.291  11.043 -0.1848 -0.2600  0.1179
  570loPI   PO4 9108  13.326  12.175  10.424 -0.0354  0.2323 -0.3896
  570loPI   GL1 9109  13.296  12.084  10.122 -0.4657 -0.1509  0.1022
  570loPI   GL2 9110  13.312  11.832  10.018  0.0673 -0.1661  0.0830
  570loPI   C1A 9111  13.305  12.170   9.741 -0.2056 -0.0193  0.3222
  570loPI   C2A 9112  13.330  12.118   9.258 -0.0445  0.0328  0.2324
  570loPI   C3A 9113  13.373  11.981   8.886 -0.2022 -0.0087 -0.1913
  570loPI   C4A 9114  13.585  11.883   8.555 -0.1152 -0.1762 -0.0345
  570loPI   C5A 9115  13.922  11.783   8.240  0.2911  0.0034  0.0453
  570loPI   C6A 9116  14.295  11.635   7.999  0.0723 -0.2932  0.0560
  570loPI   C1B 9117  13.382  11.508   9.758 -0.2561 -0.0991 -0.0745
  570loPI   C2B 9118  13.446  11.550   9.322 -0.0564  0.2072  0.1781
  570loPI   C3B 9119  13.501  11.484   8.832  0.2381 -0.0050  0.1902
  570loPI   C4B 9120  13.603  11.368   8.342 -0.2459  0.2393 -0.0654
  571loPI    C1 9121  12.927   0.961  10.584  0.2528  0.0520 -0.0716
  571loPI    C2 9122  13.146   0.710  10.805  0.1842 -0.0769 -0.1487
  571loPI    C3 9123  12.791   0.593  10.664  0.0022  0.1772  0.0889
  571loPI   PO4 9124  13.090   1.076  10.385  0.3566  0.0687  0.0998
  571loPI   GL1 9125  13.213   1.284  10.071  0.3765  0.1808 -0.0234
  571loPI   GL2 9126  12.934   1.440  10.038 -0.1740  0.2397 -0.1942
  571loPI   C1A 9127  13.020   1.310   9.573 -0.2303 -0.0261  0.0209
  571loPI   C2A 9128  13.118   1.331   9.143 -0.0178  0.1347 -0.2702
  571loPI   C3A 9129  13.059   1.282   8.695  0.1492  0.1679  0.2783
  571loPI   C4A 9130  12.898   1.254   8.318  0.1815  0.2236 -0.0498
  571loPI   C5A 9131  12.949   1.011   7.966  0.1732  0.1055  0.0919
  571loPI   C6A 9132  12.930   0.752   7.570  0.1980  0.0845 -0.0295
  571loPI   C1B 9133  12.900   1.781   9.703 -0.4561  0.0258 -0.0791
  571loPI   C2B 9134  12.907   1.776   9.267 -0.3197  0.1161  0.2205
  571loPI   C3B 9135  12.933   1.713   8.848  0.0627 -0.0207 -0.1600
  571loPI   C4B 9136  12.953   1.693   8.450  0.0598  0.0534  0.3528
  572loPI    C1 9137   1.203  10.466  10.577 -0.1505  0.1646  0.0145
  572loPI    C2 9138   0.807  10.408  10.572 -0.1231 -0.0244 -0.0123
  572loPI    C3 9139   0.959  10.757  10.451 -0.2774  0.0237 -0.0689
  572loPI   PO4 9140   1.383  10.359  10.391 -0.1091  0.0205 -0.0835
  572loPI   GL1 9141   1.387  10.512  10.052  0.0211  0.0236  0.2266
  572loPI   GL2 9142   1.250  10.821  10.036  0.1511 -0.2061  0.1496
  572loPI   C1A 9143   1.498  10.334   9.692  0.1169  0.0314  0.2144
  572loPI   C2A 9144   1.435  10.200   9.281  0.0550 -0.1654 -0.1396
  572loPI   C3A 9145   1.357  10.194   8.848 -0.0482  0.1403  0.1919
  572loPI   C4A 9146   1.294  10.292   8.446  0.0293 -0.3541  0.0873
  572loPI   C5A 9147   1.377  10.252   7.915 -0.2710 -0.0658  0.1873
  572loPI   C6A 9148   1.330   9.987   7.593  0.3851  0.3077 -0.0777
  572loPI   C1B 9149   1.287  10.826   9.671 -0.0759 -0.1816  0.4755
  572loPI   C2B 9150   1.299  10.677   9.342 -0.0021 -0.0487  0.2368
  572loPI   C3B 9151   1.213  10.715   8.815 -0.0325  0.0056  0.0213
  572loPI   C4B 9152   1.262  10.831   8.498 -0.1507 -0.1405  0.1152
  573loPI    C1 9153   3.307  11.169  11.011 -0.0784 -0.0787 -0.1098
  573loPI    C2 9154   3.122  10.833  11.125 -0.0357 -0.0669 -0.0055
  573loPI    C3 9155   3.190  11.125  11.391 -0.0624  0.0197 -0.0933
  573loPI   PO4 9156   3.432  11.081  10.783 -0.0287 -0.3471  0.0815
  573loPI   GL1 9157   3.353  11.265  10.343 -0.4053  0.0207 -0.0410
  573loPI   GL2 9158   3.532  11.004  10.080 -0.1213  0.2499 -0.1829
  573loPI   C1A 9159   3.079  11.259  10.010 -0.2413  0.0361 -0.5142
  573loPI   C2A 9160   3.044  11.393   9.616  0.3528 -0.1714  0.0709
  573loPI   C3A 9161   2.994  11.366   9.188 -0.0113  0.0418  0.2329
  573loPI   C4A 9162   2.853  11.242   8.772 -0.0126  0.0166 -0.1074
  573loPI   C5A 9163   2.966  11.278   8.342  0.0689  0.0315 -0.0208
  573loPI   C6A 9164   3.003  11.056   8.015 -0.1013 -0.2537 -0.1981
  573loPI   C1B 9165   3.351  10.977   9.654  0.1025 -0.2906 -0.1045
  573loPI   C2B 9166   3.196  10.891   9.399 -0.2614  0.3395 -0.1770
  573loPI   C3B 9167   3.105  10.810   8.972 -0.0770 -0.1556 -0.0113
  573loPI   C4B 9168   3.113  10.805   8.497 -0.0022  0.1011 -0.1152
  574loPI    C1 9169   6.168   3.995  10.667  0.0605 -0.1905  0.3221
  574loPI    C2 9170   6.489   3.813  10.511  0.0249  0.0282 -0.0175
  574loPI    C3 9171   6.514   3.990  10.869  0.2162 -0.1539  0.0615
  574loPI   PO4 9172   6.090   4.112  10.432 -0.2872 -0.0204  0.0518
  574loPI   GL1 9173   6.306   4.005  10.062  0.2463  0.1285  0.0609
  574loPI   GL2 9174   6.479   4.270   9.980  0.0734 -0.2539 -0.0865
  574loPI   C1A 9175   6.493   3.794   9.789 -0.3423  0.0338 -0.0626
  574loPI   C2A 9176   6.668   3.832   9.344  0.2737 -0.2398  0.2450
  574loPI   C3A 9177   6.589   3.977   8.967 -0.0990  0.1113 -0.0304
  574loPI   C4A 9178   6.704   4.012   8.622  0.3024 -0.1433  0.0334
  574loPI   C5A 9179   6.936   4.009   8.124  0.0857  0.1638 -0.1456
  574loPI   C6A 9180   6.983   4.106   7.735  0.1571 -0.4988 -0.0567
  574loPI   C1B 9181   6.290   4.317   9.538 -0.3467  0.2678  0.0732
  574loPI   C2B 9182   6.443   4.436   9.191 -0.3808  0.0002  0.0148
  574loPI   C3B 9183   6.523   4.492   8.781 -0.1411 -0.3087  0.0106
  574loPI   C4B 9184   6.512   4.381   8.297 -0.0661 -0.2895 -0.1693
  575loPI    C1 9185  18.517   6.207  10.872  0.3263 -0.0943 -0.0173
  575loPI    C2 9186  18.721   6.491  11.066  0.1675  0.0324 -0.0337
  575loPI    C3 9187  18.414   6.308  11.245  0.0680  0.0965 -0.1373
  575loPI   PO4 9188  18.545   6.283  10.561 -0.1085  0.2836 -0.0799
  575loPI   GL1 9189  18.637   6.323  10.093  0.4192  0.0747 -0.0677
  575loPI   GL2 9190  18.715   6.117   9.964  0.2141 -0.0994  0.2843
  575loPI   C1A 9191  18.206   6.299   9.811  0.1598  0.1632  0.0413
  575loPI   C2A 9192  18.146   6.390   9.404 -0.1028  0.1589  0.0351
  575loPI   C3A 9193  18.171   6.431   8.921  0.1074 -0.0142 -0.1128
  575loPI   C4A 9194  18.180   6.544   8.520 -0.2264  0.0779  0.2224
  575loPI   C5A 9195  18.257   6.481   8.114  0.3224 -0.1771  0.0521
  575loPI   C6A 9196  18.085   6.750   7.776 -0.2614 -0.1412 -0.0233
  575loPI   C1B 9197  18.616   6.257   9.590  0.0715  0.1494  0.2404
  575loPI   C2B 9198  18.590   6.287   9.092  0.0563  0.0858  0.5464
  575loPI   C3B 9199  18.694   6.356   8.653  0.0884 -0.0610  0.0767
  575loPI   C4B 9200  18.706   6.453   8.257 -0.0146  0.0716 -0.2589
  576loPI    C1 9201   9.133   2.584  10.583 -0.0842  0.0066 -0.0357
  576loPI    C2 9202   9.077   2.679  10.968 -0.1279 -0.2516  0.0233
  576loPI    C3 9203   9.394   2.460  10.859  0.1244  0.1863 -0.1491
  576loPI   PO4 9204   9.246   2.808  10.384 -0.2348 -0.3182  0.2028
  576loPI   GL1 9205   9.130   2.749   9.902  0.0036 -0.1068  0.2002
  576loPI   GL2 9206   9.316   3.117   9.912  0.1283 -0.0342 -0.1196
  576loPI   C1A 9207   9.355   2.734   9.625 -0.0583 -0.0658 -0.0703
  576loPI   C2A 9208   9.374   2.733   9.215  0.0281 -0.1061  0.0555
  576loPI   C3A 9209   9.312   2.725   8.765 -0.1308 -0.0657 -0.4308
  576loPI   C4A 9210   9.501   2.728   8.481 -0.0131  0.4741 -0.0201
  576loPI   C5A 9211   9.494   2.783   8.063 -0.2648  0.0189 -0.1617
  576loPI   C6A 9212   9.511   3.086   7.913  0.0030 -0.0429 -0.4462
  576loPI   C1B 9213   9.071   3.127   9.518 -0.0741 -0.1545  0.2475
  576loPI   C2B 9214   9.165   3.202   9.194 -0.0564  0.0540  0.0741
  576loPI   C3B 9215   9.174   3.255   8.728 -0.3078 -0.1517 -0.1423
  576loPI   C4B 9216   9.127   3.055   8.482  0.1011  0.1568  0.1071
  577loPI    C1 9217  10.195   0.000  10.630  0.0726 -0.2885  0.0866
  577loPI    C2 9218  10.578  -0.014  10.514  0.0459 -0.1531 -0.0207
  577loPI    C3 9219  10.487   0.087  10.890  0.1105 -0.0579 -0.0304
  577loPI   PO4 9220  10.099  -0.262  10.587  0.1043 -0.0734 -0.0404
  577loPI   GL1 9221  10.381  -0.494  10.421  0.2965 -0.0716 -0.4007
  577loPI   GL2 9222  10.359  -0.229  10.134 -0.0719 -0.3081  0.1885
  577loPI   C1A 9223  10.394  -0.778  10.074 -0.0489  0.2478 -0.0256
  577loPI   C2A 9224  10.407  -0.851   9.590  0.0334  0.2640  0.4166
  577loPI   C3A 9225  10.283  -0.950   9.173  0.0963 -0.1657  0.2779
  577loPI   C4A 9226  10.220  -0.977   8.762  0.0167 -0.0347  0.1693
  577loPI   C5A 9227  10.128  -1.160   8.286  0.0295 -0.2198 -0.2388
  577loPI   C6A 9228   9.914  -1.468   8.062 -0.1722  0.1468  0.0111
  577loPI   C1B 9229  10.226  -0.411   9.767 -0.2671 -0.0322 -0.0660
  577loPI   C2B 9230  10.202  -0.443   9.300  0.2832  0.1318  0.1592
  577loPI   C3B 9231  10.093  -0.431   8.812  0.0040 -0.1693 -0.3673
  577loPI   C4B 9232  10.083  -0.324   8.331  0.2873  0.2493  0.0079
  578loPI    C1 9233  12.899   4.595  10.778  0.2554 -0.0530 -0.0700
  578loPI    C2 9234  12.584   4.709  10.995  0.0108 -0.1566 -0.3633
  578loPI    C3 9235  12.821   4.415  11.126 -0.0773 -0.1529 -0.1924
  578loPI   PO4 9236  12.806   4.481  10.540  0.1641 -0.0027  0.1048
  578loPI   GL1 9237  12.993   4.205  10.184 -0.1070  0.0132 -0.1203
  578loPI   GL2 9238  12.678   4.024  10.153 -0.0078 -0.0294 -0.2761
  578loPI   C1A 9239  13.214   4.127   9.855  0.1325 -0.1346  0.0784
  578loPI   C2A 9240  13.345   4.024   9.352  0.0976  0.2413  0.0581
  578loPI   C3A 9241  13.221   3.996   8.979 -0.1296 -0.2243  0.0403
  578loPI   C4A 9242  13.178   3.944   8.596 -0.0544  0.3047  0.1563
  578loPI   C5A 9243  13.206   3.972   8.169 -0.0784  0.0214  0.4513
  578loPI   C6A 9244  13.321   4.175   7.795 -0.1400  0.2058 -0.0377
  578loPI   C1B 9245  12.734   4.216   9.777  0.2063 -0.0025 -0.0943
  578loPI   C2B 9246  12.820   4.162   9.339  0.2642  0.2925 -0.1458
  578loPI   C3B 9247  12.746   4.175   8.892 -0.0114  0.0450 -0.1971
  578loPI   C4B 9248  12.686   4.173   8.470  0.1725 -0.0780 -0.0387
  579loPI    C1 9249   7.013   4.123  10.957  0.0265  0.1071  0.1464
  579loPI    C2 9250   7.352   3.992  11.123 -0.0201  0.0159  0.1703
  579loPI    C3 9251   7.304   4.382  11.047  0.1878 -0.0002 -0.0577
  579loPI   PO4 9252   6.999   3.915  10.685  0.1395 -0.0575 -0.0430
  579loPI   GL1 9253   7.134   3.830  10.286  0.1755 -0.0062  0.2573
  579loPI   GL2 9254   6.857   3.910  10.159 -0.0696 -0.0308 -0.1818
  579loPI   C1A 9255   7.441   4.033   9.959  0.2256 -0.0262  0.0608
  579loPI   C2A 9256   7.381   4.107   9.572 -0.2001 -0.0031  0.0243
  579loPI   C3A 9257   7.515   4.108   9.089 -0.1485  0.1492  0.1468
  579loPI   C4A 9258   7.420   4.256   8.667  0.0643  0.4878 -0.1351
  579loPI   C5A 9259   7.489   4.241   8.212 -0.1839 -0.0364  0.1306
  579loPI   C6A 9260   7.546   4.264   7.718  0.0732  0.1856  0.1805
  579loPI   C1B 9261   6.931   4.159   9.790 -0.0127 -0.0054  0.1069
  579loPI   C2B 9262   6.919   4.240   9.422 -0.3861 -0.0413  0.2486
  579loPI   C3B 9263   7.004   4.264   8.933 -0.3378 -0.1401 -0.2772
  579loPI   C4B 9264   6.974   4.424   8.534 -0.0613  0.0913  0.0654
  580loPI    C1 9265  17.124   5.049  10.507  0.1546  0.0568 -0.0795
  580loPI    C2 9266  16.931   5.365  10.660 -0.1936 -0.2410  0.1112
  580loPI    C3 9267  17.225   5.191  10.867  0.1100  0.0520 -0.0650
  580loPI   PO4 9268  17.139   5.091  10.308  0.1134  0.1506  0.0701
  580loPI   GL1 9269  17.312   5.354   9.935 -0.0154  0.1103 -0.0430
  580loPI   GL2 9270  17.462   5.695  10.040 -0.1418 -0.3584 -0.0462
  580loPI   C1A 9271  17.386   5.294   9.401  0.1091  0.0144  0.1491
  580loPI   C2A 9272  17.574   5.259   8.945 -0.1622  0.1022  0.1438
  580loPI   C3A 9273  17.557   5.229   8.478  0.1973 -0.0211  0.0233
  580loPI   C4A 9274  17.487   5.196   8.021 -0.0637 -0.0619 -0.0017
  580loPI   C5A 9275  17.284   5.349   7.733  0.1074  0.0744 -0.0934
  580loPI   C6A 9276  17.080   5.802   7.961 -0.2327  0.0848 -0.0919
  580loPI   C1B 9277  17.361   5.817   9.518 -0.0805  0.2251 -0.2550
  580loPI   C2B 9278  17.341   5.741   9.060  0.4484 -0.2281 -0.1139
  580loPI   C3B 9279  17.384   5.744   8.677  0.3163 -0.2763  0.0642
  580loPI   C4B 9280  17.482   5.732   8.292 -0.0561 -0.1569 -0.0021
  581loPI    C1 9281   7.791  10.052  10.791 -0.2407 -0.0138  0.1163
  581loPI    C2 9282   7.527  10.318  10.931 -0.1083  0.0134  0.3172
  581loPI    C3 9283   7.847  10.218  11.150 -0.0342 -0.1374  0.1429
  581loPI   PO4 9284   7.882  10.063  10.499 -0.0710 -0.2400 -0.1765
  581loPI   GL1 9285   7.874   9.940  10.051  0.0051 -0.0330 -0.1393
  581loPI   GL2 9286   7.905   9.615   9.906 -0.0858 -0.1526  0.1280
  581loPI   C1A 9287   8.146  10.022   9.733  0.0805  0.1264 -0.1189
  581loPI   C2A 9288   8.246  10.006   9.263  0.0652 -0.1863  0.0030
  581loPI   C3A 9289   8.161   9.929   8.826 -0.1932  0.1669  0.0785
  581loPI   C4A 9290   8.062   9.941   8.369  0.0068  0.0197 -0.2227
  581loPI   C5A 9291   7.986  10.122   7.979  0.0037 -0.3276 -0.0750
  581loPI   C6A 9292   7.988  10.488   7.986 -0.1694 -0.1500 -0.0229
  581loPI   C1B 9293   7.880   9.672   9.453  0.2128  0.1101 -0.0250
  581loPI   C2B 9294   7.811   9.676   8.993  0.3403 -0.0446  0.3748
  581loPI   C3B 9295   7.776   9.496   8.496 -0.2493 -0.3591 -0.3545
  581loPI   C4B 9296   7.641   9.325   8.101 -0.1417 -0.1448  0.1942
  582loPI    C1 9297   4.579   2.411  10.322  0.1292  0.0862 -0.0193
  582loPI    C2 9298   4.345   2.114  10.452  0.1739  0.0840  0.0566
  582loPI    C3 9299   4.722   2.142  10.581  0.1232  0.2631  0.1703
  582loPI   PO4 9300   4.487   2.373  10.025 -0.2864 -0.1391 -0.0318
  582loPI   GL1 9301   4.253   2.501   9.694  0.1967  0.0400 -0.0853
  582loPI   GL2 9302   4.294   2.244   9.551 -0.0692  0.1637 -0.0825
  582loPI   C1A 9303   4.248   2.793   9.376 -0.2920  0.1666 -0.1721
  582loPI   C2A 9304   4.166   3.064   9.036 -0.4018  0.0575 -0.0727
  582loPI   C3A 9305   4.229   3.240   8.673  0.0288 -0.0836  0.1647
  582loPI   C4A 9306   4.293   3.474   8.192 -0.3048  0.0769  0.1770
  582loPI   C5A 9307   4.045   3.761   8.047  0.3804  0.0995  0.1248
  582loPI   C6A 9308   3.622   3.877   8.093 -0.1249 -0.0432  0.0748
  582loPI   C1B 9309   4.371   2.386   9.101  0.3307  0.0875  0.4787
  582loPI   C2B 9310   4.323   2.675   8.797 -0.1016  0.1391  0.1272
  582loPI   C3B 9311   4.479   2.935   8.398  0.0393 -0.0788 -0.0921
  582loPI   C4B 9312   4.626   3.109   7.918 -0.0297  0.1040 -0.0879
  583loPI    C1 9313   5.191   1.074  10.250 -0.0514 -0.1190  0.0593
  583loPI    C2 9314   5.136   1.329  10.554 -0.1261  0.1687 -0.1901
  583loPI    C3 9315   5.475   1.118  10.528 -0.0123  0.3313 -0.0438
  583loPI   PO4 9316   5.184   1.147  10.087  0.1395 -0.1696 -0.0514
  583loPI   GL1 9317   5.146   1.069   9.705  0.0669 -0.0703 -0.2219
  583loPI   GL2 9318   5.008   0.848   9.583 -0.2596 -0.1450  0.1498
  583loPI   C1A 9319   5.325   1.160   9.333 -0.5493  0.2386  0.3570
  583loPI   C2A 9320   5.263   1.152   8.858 -0.0159  0.2374 -0.0748
  583loPI   C3A 9321   5.366   1.274   8.499 -0.1252 -0.0974  0.2046
  583loPI   C4A 9322   5.270   1.083   8.156 -0.2483 -0.0435 -0.0571
  583loPI   C5A 9323   5.141   0.791   7.857  0.0531  0.1700  0.4823
  583loPI   C6A 9324   5.054   0.861   7.460  0.1379  0.1081  0.2283
  583loPI   C1B 9325   4.649   0.682   9.223 -0.2568 -0.2085  0.1811
  583loPI   C2B 9326   4.521   0.664   8.769 -0.0317 -0.0718  0.0799
  583loPI   C3B 9327   4.513   0.759   8.426  0.0634  0.0481  0.1080
  583loPI   C4B 9328   4.724   1.020   8.101  0.1261 -0.3935  0.0295
  584loPI    C1 9329   8.288   0.758  10.662  0.0961  0.1024 -0.0729
  584loPI    C2 9330   8.039   0.748  10.974  0.0154 -0.0710 -0.1411
  584loPI    C3 9331   8.368   0.975  10.988 -0.1006  0.0924 -0.0166
  584loPI   PO4 9332   8.126   0.669  10.456 -0.1804 -0.3932 -0.1245
  584loPI   GL1 9333   8.297   0.776  10.093  0.2040 -0.1501  0.0694
  584loPI   GL2 9334   8.335   1.118  10.079  0.0434  0.4092 -0.1713
  584loPI   C1A 9335   8.435   0.521   9.759  0.0565  0.0576  0.0170
  584loPI   C2A 9336   8.455   0.456   9.262 -0.3316  0.0534  0.1356
  584loPI   C3A 9337   8.472   0.463   8.791 -0.1321 -0.0818  0.1716
  584loPI   C4A 9338   8.570   0.458   8.325 -0.4442  0.1734 -0.0292
  584loPI   C5A 9339   8.610   0.487   7.854  0.0558 -0.0043  0.0238
  584loPI   C6A 9340   8.770   0.500   7.452  0.3120  0.2504 -0.3714
  584loPI   C1B 9341   8.406   1.145   9.592 -0.0265  0.1586  0.2731
  584loPI   C2B 9342   8.415   1.082   9.166  0.0308 -0.1615 -0.2406
  584loPI   C3B 9343   8.354   0.988   8.813 -0.1006 -0.0779  0.3374
  584loPI   C4B 9344   8.338   0.896   8.395 -0.1276  0.0179  0.0563
  585loPI    C1 9345  14.565   3.976  10.513 -0.0856 -0.0384  0.1603
  585loPI    C2 9346  14.419   3.803  10.843  0.4225 -0.1457  0.3371
  585loPI    C3 9347  14.562   4.176  10.860  0.0700  0.0030  0.1385
  585loPI   PO4 9348  14.351   4.026  10.344 -0.0337  0.1935 -0.0347
  585loPI   GL1 9349  14.224   4.276   9.961 -0.1344 -0.0846  0.0703
  585loPI   GL2 9350  13.968   4.300  10.186  0.1785  0.0392  0.0925
  585loPI   C1A 9351  14.100   4.261   9.582  0.0035 -0.1032  0.3135
  585loPI   C2A 9352  14.171   4.236   9.202 -0.1277  0.2823  0.1248
  585loPI   C3A 9353  14.060   4.165   8.834  0.0911 -0.2779 -0.2324
  585loPI   C4A 9354  14.085   4.166   8.378  0.1340  0.2884 -0.0068
  585loPI   C5A 9355  14.432   4.102   8.090  0.2603 -0.1361 -0.1706
  585loPI   C6A 9356  14.857   4.095   8.024 -0.0977  0.0102 -0.0941
  585loPI   C1B 9357  13.685   4.314   9.874  0.2261  0.2696  0.2590
  585loPI   C2B 9358  13.636   4.425   9.429  0.1640  0.0908 -0.0250
  585loPI   C3B 9359  13.629   4.292   8.997  0.0961  0.4611  0.0045
  585loPI   C4B 9360  13.508   4.352   8.581 -0.4340 -0.2569 -0.4524
  586loPI    C1 9361   8.804  12.655  10.451 -0.4406 -0.0790 -0.1915
  586loPI    C2 9362   8.718  12.435  10.774 -0.0701  0.2051  0.1111
  586loPI    C3 9363   8.601  12.817  10.756 -0.1573  0.1687 -0.1290
  586loPI   PO4 9364   8.746  12.510  10.277  0.2895  0.1860 -0.1043
  586loPI   GL1 9365   8.636  12.370   9.874  0.1323 -0.4798 -0.2189
  586loPI   GL2 9366   8.348  12.651   9.979 -0.3807 -0.0300 -0.0528
  586loPI   C1A 9367   8.965  12.211   9.513  0.2730  0.3051 -0.2927
  586loPI   C2A 9368   8.983  12.252   9.110 -0.0437 -0.2572  0.2299
  586loPI   C3A 9369   8.877  12.235   8.739  0.0912 -0.0554  0.1588
  586loPI   C4A 9370   8.887  12.441   8.317 -0.0279 -0.1845 -0.2622
  586loPI   C5A 9371   8.746  12.663   7.970  0.0702  0.3981 -0.2877
  586loPI   C6A 9372   8.479  12.887   7.756  0.3235  0.0021  0.0166
  586loPI   C1B 9373   8.024  12.482   9.673  0.1343  0.0261 -0.1206
  586loPI   C2B 9374   7.950  12.486   9.297 -0.0051 -0.1812  0.1749
  586loPI   C3B 9375   8.090  12.059   9.074  0.0683  0.0956  0.0314
  586loPI   C4B 9376   8.115  11.750   8.760  0.1556 -0.2583  0.0695
  587loPI    C1 9377   8.741   0.793  10.748 -0.6746  0.0601  0.1404
  587loPI    C2 9378   8.966   0.462  10.743 -0.3438  0.2818 -0.0799
  587loPI    C3 9379   8.603   0.455  10.913 -0.3304 -0.1828 -0.0571
  587loPI   PO4 9380   8.729   0.892  10.495  0.1370  0.4271 -0.4777
  587loPI   GL1 9381   8.870   0.735  10.188 -0.1050 -0.1662 -0.0736
  587loPI   GL2 9382   8.855   0.977   9.925  0.1426  0.2167  0.1224
  587loPI   C1A 9383   9.032   0.507   9.801 -0.0711  0.0219 -0.0814
  587loPI   C2A 9384   8.932   0.400   9.449 -0.0210  0.1948  0.2942
  587loPI   C3A 9385   8.971   0.240   9.034 -0.2413 -0.3166 -0.0678
  587loPI   C4A 9386   8.990   0.344   8.527 -0.0191 -0.0872  0.0717
  587loPI   C5A 9387   9.066   0.234   8.211  0.1660  0.0077  0.0013
  587loPI   C6A 9388   9.274   0.516   7.934  0.0189 -0.2825  0.3489
  587loPI   C1B 9389   8.775   0.855   9.500  0.2271 -0.0549  0.2210
  587loPI   C2B 9390   8.796   0.777   9.012  0.1434  0.0041 -0.0300
  587loPI   C3B 9391   8.792   0.857   8.633 -0.1593  0.2028  0.0354
  587loPI   C4B 9392   8.911   0.855   8.216  0.2514  0.1867 -0.1379
  588loPI    C1 9393   3.034  17.239  10.307  0.1924 -0.0072 -0.0322
  588loPI    C2 9394   3.099  17.609  10.446  0.1355  0.0294 -0.1023
  588loPI    C3 9395   3.285  17.296  10.613  0.1307  0.0820  0.0021
  588loPI   PO4 9396   3.099  17.228  10.017 -0.0014  0.0549  0.0645
  588loPI   GL1 9397   3.082  17.444   9.624  0.3892 -0.1270  0.1011
  588loPI   GL2 9398   3.189  17.683   9.538  0.1919 -0.1248 -0.4191
  588loPI   C1A 9399   2.939  17.114   9.274 -0.0668 -0.1705  0.0464
  588loPI   C2A 9400   2.755  17.124   8.836  0.0241 -0.1689 -0.1314
  588loPI   C3A 9401   2.822  17.237   8.395 -0.1117  0.3557  0.0716
  588loPI   C4A 9402   2.698  17.317   8.028  0.3432  0.0195 -0.4252
  588loPI   C5A 9403   2.655  17.529   7.573 -0.1084  0.2216 -0.4806
  588loPI   C6A 9404   2.807  17.202   7.179  0.1178 -0.1096 -0.2354
  588loPI   C1B 9405   3.175  17.592   9.116  0.0871 -0.1689 -0.1498
  588loPI   C2B 9406   3.192  17.478   8.654  0.2798 -0.1427 -0.1422
  588loPI   C3B 9407   3.156  17.603   8.267 -0.1239  0.0660 -0.1065
  588loPI   C4B 9408   3.032  17.679   7.894  0.2204  0.0897  0.0276
  589loPI    C1 9409   9.207  12.495  10.586 -0.1223  0.0269 -0.0026
  589loPI    C2 9410   9.496  12.632  10.827 -0.1778  0.0889  0.0290
  589loPI    C3 9411   9.113  12.723  10.901 -0.2066 -0.0024 -0.0062
  589loPI   PO4 9412   9.284  12.511  10.403  0.2466  0.1230 -0.1213
  589loPI   GL1 9413   9.511  12.685  10.060  0.1236 -0.3184  0.1847
  589loPI   GL2 9414   9.508  13.037  10.065  0.1464  0.2478  0.5998
  589loPI   C1A 9415   9.472  12.752   9.572 -0.0749 -0.1125 -0.1658
  589loPI   C2A 9416   9.374  12.770   9.106  0.0703 -0.0783  0.0816
  589loPI   C3A 9417   9.254  12.563   8.740  0.0940  0.1558 -0.4366
  589loPI   C4A 9418   9.371  12.520   8.331 -0.0995  0.1716 -0.0920
  589loPI   C5A 9419   9.615  12.703   7.964 -0.2241  0.2566 -0.3939
  589loPI   C6A 9420   9.560  12.987   7.680 -0.0510 -0.0035 -0.2245
  589loPI   C1B 9421   9.719  13.147   9.672 -0.3234 -0.0341  0.1084
  589loPI   C2B 9422   9.727  13.127   9.317 -0.0199  0.2653 -0.0475
  589loPI   C3B 9423   9.686  13.065   8.927  0.2867 -0.1172  0.2832
  589loPI   C4B 9424   9.677  12.898   8.507  0.1340  0.0645 -0.1131
  590loPI    C1 9425  12.556   9.262  10.732 -0.0582  0.2031 -0.0638
  590loPI    C2 9426  12.564   9.314  11.129  0.1064  0.0554 -0.0462
  590loPI    C3 9427  12.220   9.224  10.946  0.0521  0.0075  0.0784
  590loPI   PO4 9428  12.657   9.483  10.568 -0.0699 -0.1619  0.0895
  590loPI   GL1 9429  12.594   9.553  10.144  0.1338 -0.1592 -0.1131
  590loPI   GL2 9430  12.545   9.876  10.209 -0.0977 -0.3032 -0.2836
  590loPI   C1A 9431  12.668   9.450   9.707 -0.3248  0.0918  0.1695
  590loPI   C2A 9432  12.634   9.410   9.275 -0.0547  0.1229  0.0431
  590loPI   C3A 9433  12.728   9.360   8.914 -0.1142 -0.0235  0.0611
  590loPI   C4A 9434  12.687   9.325   8.433 -0.1600  0.1475  0.1128
  590loPI   C5A 9435  12.541   9.191   8.131 -0.1616  0.2105  0.2448
  590loPI   C6A 9436  12.474   9.461   7.806 -0.2566 -0.0990  0.2897
  590loPI   C1B 9437  12.488   9.981   9.773 -0.2230  0.0418 -0.3595
  590loPI   C2B 9438  12.496   9.970   9.394 -0.1129  0.0416 -0.1124
  590loPI   C3B 9439  12.570   9.941   8.992  0.0130  0.3266 -0.2297
  590loPI   C4B 9440  12.668   9.864   8.545 -0.1480 -0.3061 -0.1412
  591POPI    C1 9441  15.157  11.168  10.352 -0.1000 -0.0207 -0.0749
  591POPI    C2 9442  14.938  10.833  10.359 -0.2999  0.1106  0.1381
  591POPI    C3 9443  15.070  10.993  10.701 -0.3362  0.3328  0.0500
  591POPI   PO4 9444  15.423  11.108  10.263 -0.1813 -0.1481 -0.1587
  591POPI   GL1 9445  15.508  11.030   9.847 -0.2498 -0.2472 -0.2826
  591POPI   GL2 9446  15.255  11.375   9.826 -0.3130  0.0152  0.1172
  591POPI   C1A 9447  15.427  11.218   9.378 -0.1849  0.1749 -0.2476
  591POPI   D2A 9448  15.458  11.133   8.992 -0.2349 -0.0944  0.0192
  591POPI   C3A 9449  15.447  10.979   8.665  0.1421 -0.2388 -0.0925
  591POPI   C4A 9450  15.348  10.926   8.228 -0.1882  0.0614 -0.0727
  591POPI   C1B 9451  14.945  11.162   9.515  0.5233 -0.0328 -0.0264
  591POPI   C2B 9452  14.922  11.173   8.954  0.0159 -0.0706 -0.0486
  591POPI   C3B 9453  14.950  11.068   8.543 -0.1158  0.1720  0.1001
  591POPI   C4B 9454  14.938  11.147   8.124 -0.4445  0.1830  0.0642
  592POPI    C1 9455   9.632  10.161  10.722  0.1285  0.0599  0.0060
  592POPI    C2 9456   9.361  10.183  11.016 -0.0524  0.0774 -0.1600
  592POPI    C3 9457   9.602  10.494  10.941 -0.1394  0.1459 -0.1570
  592POPI   PO4 9458   9.569  10.093  10.536 -0.1105  0.2869 -0.0951
  592POPI   GL1 9459   9.442  10.233  10.208 -0.3478  0.0089 -0.0361
  592POPI   GL2 9460   9.150  10.286  10.213  0.3256 -0.1363 -0.0601
  592POPI   C1A 9461   9.755  10.515   9.982 -0.2713  0.1090 -0.0317
  592POPI   D2A 9462   9.893  10.668   9.507  0.0640 -0.1262  0.0410
  592POPI   C3A 9463   9.935  10.676   9.078 -0.1882  0.2460 -0.0040
  592POPI   C4A 9464   9.876  10.490   8.802 -0.1418 -0.1905  0.0416
  592POPI   C1B 9465   9.132  10.469   9.818 -0.1418 -0.3054 -0.0801
  592POPI   C2B 9466   9.046  10.408   9.431 -0.0826  0.0101 -0.1200
  592POPI   C3B 9467   9.114  10.322   9.044  0.1119  0.3918 -0.1935
  592POPI   C4B 9468   8.949  10.298   8.657 -0.3338  0.3365  0.3572
  593POPI    C1 9469   1.241   3.588  10.285 -0.1191  0.0816  0.1583
  593POPI    C2 9470   1.290   3.904  10.045 -0.1880  0.1391  0.2191
  593POPI    C3 9471   1.541   3.843  10.350 -0.0076 -0.0188  0.0427
  593POPI   PO4 9472   1.108   3.458  10.122 -0.2191  0.0391  0.3017
  593POPI   GL1 9473   1.248   3.248   9.747  0.2595 -0.0650  0.0517
  593POPI   GL2 9474   1.266   2.967   9.551 -0.0207 -0.2457 -0.2982
  593POPI   C1A 9475   1.587   3.200   9.265  0.2034  0.1036 -0.0623
  593POPI   D2A 9476   1.597   3.444   8.877 -0.2159 -0.0926  0.1176
  593POPI   C3A 9477   1.736   3.545   8.461 -0.0942  0.0624 -0.0461
  593POPI   C4A 9478   1.869   3.555   8.035 -0.0992 -0.0775  0.0880
  593POPI   C1B 9479   1.308   2.688   9.205  0.1686 -0.1141 -0.4521
  593POPI   C2B 9480   1.477   2.232   9.145 -0.1120  0.1172  0.0839
  593POPI   C3B 9481   1.473   2.019   8.834 -0.0117 -0.1725 -0.3474
  593POPI   C4B 9482   1.588   1.738   8.432  0.1928 -0.2311  0.0403
  594POPI    C1 9483   9.152  17.520  11.152  0.0593  0.0287 -0.0619
  594POPI    C2 9484   8.847  17.756  11.258 -0.0379 -0.0183 -0.2317
  594POPI    C3 9485   9.047  17.551  11.537 -0.0403  0.1575 -0.0986
  594POPI   PO4 9486   9.261  17.596  10.926 -0.0476  0.2644 -0.0866
  594POPI   GL1 9487   9.247  17.727  10.543  0.1030  0.1110  0.0935
  594POPI   GL2 9488   9.469  17.461  10.355 -0.3401  0.2704  0.3434
  594POPI   C1A 9489   9.327  17.901  10.187  0.1303  0.1215 -0.1058
  594POPI   D2A 9490   9.353  17.881   9.797 -0.1135 -0.2140 -0.1252
  594POPI   C3A 9491   9.192  17.894   9.313 -0.2516 -0.1305  0.1290
  594POPI   C4A 9492   9.238  17.802   8.894  0.1072  0.1104 -0.0665
  594POPI   C1B 9493   9.457  17.412   9.970 -0.3358 -0.1126 -0.3119
  594POPI   C2B 9494   9.433  17.287   9.525  0.2627  0.0435  0.0494
  594POPI   C3B 9495   9.428  17.280   9.042 -0.1600 -0.2545  0.0281
  594POPI   C4B 9496   9.308  17.315   8.628 -0.0476 -0.0733  0.1662
  595POPI    C1 9497  16.719   0.363  10.238 -0.0224 -0.0416  0.0819
  595POPI    C2 9498  16.684   0.762  10.245  0.1968 -0.0212  0.0997
  595POPI    C3 9499  16.419   0.534  10.439  0.0195  0.1116  0.0160
  595POPI   PO4 9500  16.798   0.359   9.949  0.4304  0.3498 -0.0921
  595POPI   GL1 9501  16.732   0.140   9.525 -0.1035 -0.4188  0.0425
  595POPI   GL2 9502  16.883   0.240   9.222 -0.0060  0.0094  0.0746
  595POPI   C1A 9503  16.514  -0.040   9.136 -0.2106  0.1546  0.0042
  595POPI   D2A 9504  16.376  -0.160   8.859  0.0240 -0.2667  0.1091
  595POPI   C3A 9505  16.332  -0.005   8.439  0.3860  0.0862  0.0703
  595POPI   C4A 9506  16.447   0.043   7.972  0.1481  0.1522 -0.1305
  595POPI   C1B 9507  16.773   0.248   8.726 -0.2335  0.1343 -0.1684
  595POPI   C2B 9508  16.780   0.196   8.277  0.2556  0.0472  0.0068
  595POPI   C3B 9509  16.842   0.239   7.772  0.3074 -0.1415 -0.2775
  595POPI   C4B 9510  16.878  -0.024   7.421 -0.1309 -0.3162 -0.1544
  596POPI    C1 9511   4.260   3.481   9.870 -0.1215  0.0593 -0.3070
  596POPI    C2 9512   4.136   3.787  10.095  0.0915 -0.0240 -0.0713
  596POPI    C3 9513   3.946   3.699   9.754 -0.0352  0.3043 -0.0888
  596POPI   PO4 9514   4.190   3.240   9.962  0.1474 -0.0781 -0.3076
  596POPI   GL1 9515   3.984   3.079   9.655  0.2561  0.0781 -0.1837
  596POPI   GL2 9516   3.721   3.272   9.609 -0.0191 -0.2626 -0.4658
  596POPI   C1A 9517   4.158   3.468   9.365 -0.2791  0.0717 -0.2095
  596POPI   D2A 9518   4.177   3.907   9.257  0.2596  0.0107  0.0218
  596POPI   C3A 9519   4.117   4.003   8.875 -0.3451 -0.1975 -0.1012
  596POPI   C4A 9520   4.235   3.954   8.446 -0.1058 -0.3440  0.0494
  596POPI   C1B 9521   3.728   2.994   9.222  0.2116  0.1721 -0.1795
  596POPI   C2B 9522   3.733   2.868   8.876 -0.0815 -0.0675 -0.3913
  596POPI   C3B 9523   3.831   3.025   8.497  0.0559  0.2817  0.2590
  596POPI   C4B 9524   3.783   2.791   8.081  0.1699  0.1966 -0.0739
  597POPI    C1 9525   4.553  17.758  10.505  0.1466  0.0117  0.0586
  597POPI    C2 9526   4.771  17.608  10.805  0.0408 -0.1905  0.0357
  597POPI    C3 9527   4.473  17.863  10.883  0.2467  0.0427  0.0715
  597POPI   PO4 9528   4.670  17.749  10.299  0.1233 -0.1631  0.0166
  597POPI   GL1 9529   4.642  17.788   9.776 -0.3302 -0.0168 -0.2098
  597POPI   GL2 9530   4.717  18.153   9.664 -0.1760  0.0210 -0.4321
  597POPI   C1A 9531   4.543  17.654   9.281  0.1242  0.1262  0.0305
  597POPI   D2A 9532   4.450  17.727   8.835 -0.1761 -0.1768  0.0334
  597POPI   C3A 9533   4.719  17.671   8.418  0.1471 -0.0178  0.1610
  597POPI   C4A 9534   4.902  17.957   8.074  0.2299 -0.1741 -0.1680
  597POPI   C1B 9535   4.972  17.954   9.315 -0.0813 -0.1681 -0.1068
  597POPI   C2B 9536   4.920  17.956   8.828  0.1821 -0.2204  0.0564
  597POPI   C3B 9537   5.119  18.044   8.523  0.2166 -0.6272  0.0345
  597POPI   C4B 9538   5.315  18.265   8.301  0.0397 -0.1409 -0.1611
  598POPI    C1 9539   7.032   4.480  10.679  0.0736 -0.1847 -0.2708
  598POPI    C2 9540   6.764   4.776  10.653  0.3052  0.0684  0.1238
  598POPI    C3 9541   6.709   4.479  10.914  0.0669 -0.2525 -0.2804
  598POPI   PO4 9542   7.103   4.393  10.395  0.0500 -0.1041  0.0868
  598POPI   GL1 9543   6.888   4.507  10.127 -0.1725  0.1861 -0.2082
  598POPI   GL2 9544   7.252   4.488   9.934  0.2609 -0.0307  0.0067
  598POPI   C1A 9545   6.791   4.651   9.685 -0.1924 -0.0767 -0.1261
  598POPI   D2A 9546   6.931   4.735   9.275 -0.1091  0.1085 -0.0066
  598POPI   C3A 9547   6.868   4.824   8.827 -0.0922  0.1106 -0.0418
  598POPI   C4A 9548   6.857   4.921   8.435  0.0065 -0.0366 -0.0881
  598POPI   C1B 9549   7.352   4.698   9.654 -0.2135 -0.0207  0.0627
  598POPI   C2B 9550   7.370   4.557   9.298 -0.1987  0.2130 -0.0768
  598POPI   C3B 9551   7.348   4.661   8.880  0.0678 -0.0876  0.0149
  598POPI   C4B 9552   7.330   4.709   8.402 -0.0241 -0.0126  0.1897
  599POPI    C1 9553  16.056  12.891  10.633 -0.2196 -0.1034 -0.0676
  599POPI    C2 9554  16.113  12.595  10.896  0.0811 -0.0053 -0.0188
  599POPI    C3 9555  16.403  12.862  10.829 -0.0805  0.1097 -0.2772
  599POPI   PO4 9556  15.874  12.824  10.442 -0.4153  0.0789  0.1050
  599POPI   GL1 9557  15.859  12.774   9.997 -0.0030  0.1533  0.1306
  599POPI   GL2 9558  16.070  12.994   9.963  0.2002 -0.0719  0.0837
  599POPI   C1A 9559  15.915  12.770   9.549  0.1845 -0.1228 -0.2287
  599POPI   D2A 9560  15.937  12.723   9.079 -0.2595  0.2268 -0.1939
  599POPI   C3A 9561  15.907  12.790   8.567  0.1188 -0.0138  0.1884
  599POPI   C4A 9562  16.128  12.531   8.135 -0.2260 -0.2516 -0.0708
  599POPI   C1B 9563  16.247  13.161   9.672  0.2206  0.3618  0.3211
  599POPI   C2B 9564  16.259  13.229   9.198  0.1906 -0.2486  0.4551
  599POPI   C3B 9565  16.258  13.121   8.731  0.0512  0.1913 -0.1728
  599POPI   C4B 9566  16.408  13.112   8.281  0.5404 -0.0962 -0.1028
  600POPI    C1 9567   4.905  13.728  10.695  0.3490  0.2010 -0.0088
  600POPI    C2 9568   5.064  14.085  10.781  0.2581  0.1133  0.5684
  600POPI    C3 9569   5.105  13.781  11.037  0.0971 -0.2182  0.2119
  600POPI   PO4 9570   4.966  13.747  10.466  0.0849 -0.0840 -0.0880
  600POPI   GL1 9571   5.172  13.667  10.158  0.2236  0.0104 -0.0879
  600POPI   GL2 9572   5.108  13.541   9.997 -0.0816 -0.0949 -0.1872
  600POPI   C1A 9573   5.469  13.988   9.889 -0.1503 -0.0310 -0.1809
  600POPI   D2A 9574   5.654  13.887   9.464  0.0448  0.1717  0.0578
  600POPI   C3A 9575   5.475  13.923   9.145  0.0217  0.1835 -0.1569
  600POPI   C4A 9576   5.555  14.076   8.696  0.2170 -0.0735  0.1660
  600POPI   C1B 9577   5.184  13.577   9.538  0.1608 -0.1277  0.0688
  600POPI   C2B 9578   5.182  13.544   9.135 -0.0860  0.4032 -0.0239
  600POPI   C3B 9579   5.216  13.621   8.765  0.0338  0.0884  0.0219
  600POPI   C4B 9580   5.301  13.866   8.270  0.0870  0.0345 -0.1998
  601POPI    C1 9581  16.688  14.619  10.402 -0.2447 -0.5481 -0.3757
  601POPI    C2 9582  16.317  14.736  10.312 -0.1223 -0.0616 -0.2773
  601POPI    C3 9583  16.382  14.502  10.630 -0.3403 -0.1270 -0.2792
  601POPI   PO4 9584  16.838  14.620  10.236  0.2934  0.1662  0.1407
  601POPI   GL1 9585  16.890  14.372   9.938  0.1363 -0.1409  0.0766
  601POPI   GL2 9586  16.812  14.137   9.972 -0.1908  0.6070 -0.1334
  601POPI   C1A 9587  16.777  14.539   9.517  0.1471 -0.0077  0.0107
  601POPI   D2A 9588  16.713  14.442   9.118  0.1313 -0.2213  0.0635
  601POPI   C3A 9589  16.869  14.410   8.747 -0.3432 -0.0314  0.1482
  601POPI   C4A 9590  16.937  14.342   8.312 -0.0763 -0.0788  0.0422
  601POPI   C1B 9591  16.916  14.066   9.496  0.1778  0.0203 -0.0292
  601POPI   C2B 9592  17.022  14.001   9.065 -0.1012  0.1042  0.1753
  601POPI   C3B 9593  16.979  13.935   8.680  0.0277 -0.1011  0.2177
  601POPI   C4B 9594  17.145  13.803   8.303  0.0547 -0.3652  0.2216
  602POPI    C1 9595  12.346  17.306  10.754  0.2325  0.1894  0.0197
  602POPI    C2 9596  12.127  16.989  10.862  0.2029  0.1299 -0.2108
  602POPI    C3 9597  12.078  17.339  11.049  0.1951  0.0140  0.0062
  602POPI   PO4 9598  12.507  17.080  10.502 -0.2625 -0.0962  0.1505
  602POPI   GL1 9599  12.535  17.207  10.026  0.1745  0.2557 -0.3065
  602POPI   GL2 9600  12.780  17.338  10.199 -0.1499  0.0178 -0.2280
  602POPI   C1A 9601  12.329  17.221   9.697 -0.0757 -0.0701  0.2373
  602POPI   D2A 9602  12.322  17.212   9.268 -0.1958  0.1698 -0.1113
  602POPI   C3A 9603  12.285  17.120   8.754  0.2264  0.0500  0.1995
  602POPI   C4A 9604  12.191  17.269   8.409 -0.3843  0.4636  0.0340
  602POPI   C1B 9605  12.800  17.534   9.736 -0.0163 -0.3896  0.1982
  602POPI   C2B 9606  12.731  17.586   9.306 -0.1294  0.0383  0.0859
  602POPI   C3B 9607  12.621  17.520   8.935 -0.0808  0.0573  0.0338
  602POPI   C4B 9608  12.642  17.411   8.470  0.1156 -0.2122 -0.0306
  603POPI    C1 9609   2.319  15.566  10.398 -0.1700 -0.1287 -0.1323
  603POPI    C2 9610   2.305  15.966  10.392 -0.0379 -0.1220 -0.0429
  603POPI    C3 9611   2.089  15.762  10.660  0.0421 -0.1021  0.0375
  603POPI   PO4 9612   2.336  15.462  10.105 -0.2274 -0.0541 -0.0908
  603POPI   GL1 9613   2.457  15.496   9.688 -0.1057 -0.1186 -0.0125
  603POPI   GL2 9614   2.442  15.660   9.448 -0.2121 -0.1503 -0.3768
  603POPI   C1A 9615   2.422  15.131   9.460  0.1281 -0.2361 -0.3662
  603POPI   D2A 9616   2.448  14.818   9.090  0.0850  0.1041  0.3060
  603POPI   C3A 9617   2.441  14.758   8.657 -0.0876  0.2989  0.2123
  603POPI   C4A 9618   2.515  14.873   8.167  0.3231 -0.2881 -0.1557
  603POPI   C1B 9619   2.514  15.449   9.056 -0.2267 -0.1895 -0.1341
  603POPI   C2B 9620   2.771  15.582   8.626 -0.0737 -0.2332  0.0766
  603POPI   C3B 9621   2.676  15.801   8.258 -0.1429  0.0338 -0.0279
  603POPI   C4B 9622   2.784  15.668   7.915  0.0314 -0.0917 -0.2381
  604POPI    C1 9623   7.577   4.690  10.721  0.0269  0.0221  0.0997
  604POPI    C2 9624   7.299   4.865  10.948 -0.0055  0.0046  0.0734
  604POPI    C3 9625   7.661   4.787  11.100 -0.0156  0.0252  0.1083
  604POPI   PO4 9626   7.632   4.851  10.501 -0.1538  0.0924  0.1619
  604POPI   GL1 9627   7.946   5.150  10.314  0.1172 -0.1708  0.1432
  604POPI   GL2 9628   7.962   5.412  10.365 -0.0252  0.0475  0.0273
  604POPI   C1A 9629   8.168   4.901   9.944  0.2731 -0.3581 -0.0626
  604POPI   D2A 9630   8.282   4.713   9.592  0.0029 -0.0901  0.2599
  604POPI   C3A 9631   8.187   4.817   9.238 -0.1022  0.2233 -0.0934
  604POPI   C4A 9632   8.207   4.760   8.795  0.0059 -0.0260 -0.2896
  604POPI   C1B 9633   8.160   5.346   9.809 -0.0830  0.1066 -0.1044
  604POPI   C2B 9634   8.096   5.349   9.344 -0.1942  0.0117  0.2409
  604POPI   C3B 9635   8.000   5.329   8.963 -0.2631  0.2193 -0.3774
  604POPI   C4B 9636   8.152   5.378   8.589 -0.1078  0.1571  0.2532
  605POPI    C1 9637  17.188   1.478   9.906  0.1347 -0.2416  0.1542
  605POPI    C2 9638  17.203   1.771  10.178  0.2068 -0.1618  0.0645
  605POPI    C3 9639  17.525   1.688   9.955  0.0782 -0.0717 -0.1584
  605POPI   PO4 9640  16.953   1.548   9.708 -0.0737 -0.2250  0.0165
  605POPI   GL1 9641  16.875   1.347   9.279  0.2924 -0.0846 -0.0533
  605POPI   GL2 9642  17.151   1.126   9.370 -0.0763 -0.0452 -0.0358
  605POPI   C1A 9643  16.998   1.300   8.915  0.1102 -0.2768 -0.0390
  605POPI   D2A 9644  17.183   1.321   8.520  0.1823  0.0445  0.0213
  605POPI   C3A 9645  17.223   1.114   8.030  0.3749 -0.2024 -0.4929
  605POPI   C4A 9646  17.298   1.024   7.597 -0.0352  0.1196 -0.1809
  605POPI   C1B 9647  17.462   1.343   8.990  0.0591 -0.2252  0.2613
  605POPI   C2B 9648  17.654   1.113   8.702  0.4517 -0.1822 -0.1069
  605POPI   C3B 9649  17.624   0.978   8.340  0.0171  0.1542  0.1751
  605POPI   C4B 9650  17.696   0.860   7.911 -0.0417  0.0258  0.2444
  606POPI    C1 9651   7.634  16.948  10.722 -0.0787  0.0859  0.1544
  606POPI    C2 9652   7.422  16.703  10.957 -0.1905 -0.0127 -0.0470
  606POPI    C3 9653   7.756  16.873  11.096 -0.1416 -0.2346  0.1140
  606POPI   PO4 9654   7.699  16.784  10.512 -0.2313 -0.2320  0.1586
  606POPI   GL1 9655   7.549  16.598  10.181 -0.1513 -0.2578 -0.1352
  606POPI   GL2 9656   7.431  16.279  10.017 -0.0678 -0.4066  0.0735
  606POPI   C1A 9657   7.927  16.746   9.920 -0.0277  0.2340  0.4670
  606POPI   D2A 9658   8.179  16.775   9.647  0.0785  0.3246 -0.3267
  606POPI   C3A 9659   8.192  16.722   9.202  0.2029  0.0220  0.0470
  606POPI   C4A 9660   8.079  16.784   8.786  0.1076  0.0654 -0.1788
  606POPI   C1B 9661   7.313  16.431   9.650 -0.1532  0.0342  0.1078
  606POPI   C2B 9662   7.219  16.435   9.277  0.2532  0.0673 -0.0648
  606POPI   C3B 9663   7.260  16.358   8.885 -0.1248 -0.1091 -0.3593
  606POPI   C4B 9664   7.344  16.422   8.440 -0.1216 -0.0464  0.0449
  607DPPI    C1 9665   7.256   1.076  10.307  0.0983 -0.2879 -0.1642
  607DPPI    C2 9666   6.900   1.022  10.480  0.0780  0.0644 -0.0873
  607DPPI    C3 9667   7.217   0.813  10.606 -0.0308 -0.0083  0.0708
  607DPPI   PO4 9668   7.180   1.434  10.260 -0.3428 -0.0338  0.0369
  607DPPI   GL1 9669   7.120   1.690   9.997  0.1168 -0.0448 -0.0955
  607DPPI   GL2 9670   6.747   1.715   9.944 -0.2453  0.4249 -0.0038
  607DPPI   C1A 9671   7.106   1.913   9.566 -0.1105  0.0981 -0.3992
  607DPPI   C2A 9672   7.227   1.818   9.015 -0.0361  0.1059  0.0401
  607DPPI   C3A 9673   7.209   1.703   8.594 -0.0894  0.2435 -0.0299
  607DPPI   C4A 9674   7.223   1.760   8.097 -0.0484  0.3359  0.0971
  607DPPI   C1B 9675   6.670   1.863   9.421  0.2048 -0.3510 -0.0337
  607DPPI   C2B 9676   6.709   1.879   8.989 -0.0419 -0.0503 -0.1133
  607DPPI   C3B 9677   6.710   1.876   8.516  0.0973 -0.1272  0.0061
  607DPPI   C4B 9678   6.727   1.927   8.130 -0.2887 -0.2324  0.0100
  608DPPI    C1 9679   7.555  10.991  10.742  0.0907  0.0090  0.0403
  608DPPI    C2 9680   7.566  10.775  11.078 -0.0357 -0.2224 -0.1017
  608DPPI    C3 9681   7.509  11.170  11.097 -0.0428 -0.2335  0.1480
  608DPPI   PO4 9682   7.382  10.849  10.555 -0.3514  0.0761  0.4628
  608DPPI   GL1 9683   7.533  10.649  10.230  0.1423  0.0586 -0.0200
  608DPPI   GL2 9684   7.751  10.468  10.085 -0.1642  0.0044  0.1197
  608DPPI   C1A 9685   7.293  10.660   9.853 -0.1633 -0.0273 -0.3256
  608DPPI   C2A 9686   7.044  10.743   9.405  0.0201 -0.1307 -0.1475
  608DPPI   C3A 9687   6.996  10.872   8.980 -0.1158 -0.1437 -0.3055
  608DPPI   C4A 9688   6.816  10.725   8.596  0.0625  0.2706  0.2820
  608DPPI   C1B 9689   7.652  10.208   9.687 -0.2381  0.0407  0.0070
  608DPPI   C2B 9690   7.697  10.086   9.286  0.2139  0.2067 -0.2430
  608DPPI   C3B 9691   7.632  10.186   8.831  0.2959  0.0513  0.0975
  608DPPI   C4B 9692   7.635  10.170   8.315  0.1070  0.0279  0.1349
  609DPPI    C1 9693   9.347   4.112  10.895  0.0968 -0.1538 -0.0838
  609DPPI    C2 9694   9.550   3.880  11.150  0.1569 -0.0380 -0.0253
  609DPPI    C3 9695   9.506   4.270  11.226  0.2380  0.0120 -0.2284
  609DPPI   PO4 9696   9.425   3.986  10.636 -0.1328  0.0361  0.1339
  609DPPI   GL1 9697   9.360   4.131  10.241 -0.1137  0.0607 -0.1040
  609DPPI   GL2 9698   9.614   4.368  10.110  0.1595 -0.0356 -0.2811
  609DPPI   C1A 9699   9.381   4.039   9.758 -0.3208 -0.1355 -0.1213
  609DPPI   C2A 9700   9.416   4.070   9.354 -0.3539 -0.2840 -0.1118
  609DPPI   C3A 9701   9.403   4.035   8.891 -0.1499 -0.1372 -0.1780
  609DPPI   C4A 9702   9.384   4.010   8.456 -0.0341 -0.2481  0.0692
  609DPPI   C1B 9703   9.646   4.461   9.665 -0.0554  0.0340  0.2243
  609DPPI   C2B 9704   9.771   4.435   9.150  0.2322 -0.1690 -0.0792
  609DPPI   C3B 9705   9.795   4.501   8.680 -0.3222 -0.0945 -0.0272
  609DPPI   C4B 9706   9.815   4.485   8.358  0.0841 -0.0858  0.1466
  610DPPI    C1 9707  14.924   4.387  10.599  0.0835 -0.1384  0.2231
  610DPPI    C2 9708  15.189   4.683  10.556  0.0987 -0.1553  0.1993
  610DPPI    C3 9709  14.828   4.759  10.710  0.0709 -0.1079  0.1117
  610DPPI   PO4 9710  14.931   4.306  10.403 -0.3118  0.0411  0.0407
  610DPPI   GL1 9711  14.834   4.516  10.054 -0.0322  0.0956 -0.0737
  610DPPI   GL2 9712  14.817   4.806  10.191  0.1567 -0.0855  0.0650
  610DPPI   C1A 9713  15.012   4.511   9.672 -0.4105  0.2144  0.0811
  610DPPI   C2A 9714  14.947   4.524   9.307 -0.1810  0.3964  0.1123
  610DPPI   C3A 9715  14.952   4.521   8.943 -0.2130 -0.1800 -0.1408
  610DPPI   C4A 9716  15.032   4.499   8.451 -0.1804 -0.3151 -0.3067
  610DPPI   C1B 9717  14.844   5.012   9.762 -0.0554 -0.2133  0.0952
  610DPPI   C2B 9718  14.824   4.996   9.289 -0.2995 -0.4369 -0.0069
  610DPPI   C3B 9719  14.818   5.033   8.949  0.1041  0.1828 -0.1517
  610DPPI   C4B 9720  14.776   4.962   8.540  0.1263  0.3275  0.1159
  611DPPI    C1 9721  13.516   4.974  10.470  0.1506 -0.2348  0.0178
  611DPPI    C2 9722  13.715   5.030  10.812 -0.0575  0.1082  0.0881
  611DPPI    C3 9723  13.352   4.864  10.818 -0.0521  0.0940  0.0311
  611DPPI   PO4 9724  13.480   5.220  10.376  0.0355 -0.4161 -0.1765
  611DPPI   GL1 9725  13.340   5.515   9.919  0.1338  0.0358  0.0120
  611DPPI   GL2 9726  13.243   5.235   9.866 -0.0690  0.0542  0.0754
  611DPPI   C1A 9727  13.237   5.497   9.431  0.1255 -0.2923 -0.0000
  611DPPI   C2A 9728  13.170   5.416   9.041  0.0916  0.2531  0.3251
  611DPPI   C3A 9729  13.282   5.420   8.669 -0.3234 -0.2987  0.0088
  611DPPI   C4A 9730  13.411   5.357   8.296 -0.0856 -0.1495 -0.3967
  611DPPI   C1B 9731  12.882   5.124   9.596  0.1810 -0.2379  0.3988
  611DPPI   C2B 9732  12.821   4.990   9.180  0.0070 -0.0287 -0.1318
  611DPPI   C3B 9733  12.968   4.982   8.777  0.0721  0.0063  0.2443
  611DPPI   C4B 9734  13.017   5.054   8.321  0.1915 -0.3697 -0.1144
  612DPPI    C1 9735   9.000   2.098  10.326  0.3908  0.0717  0.0220
  612DPPI    C2 9736   9.141   2.089  10.700  0.2964 -0.0165  0.0558
  612DPPI    C3 9737   8.942   1.775  10.553  0.2767  0.0432 -0.0467
  612DPPI   PO4 9738   8.977   2.263  10.190  0.2154 -0.0134 -0.3016
  612DPPI   GL1 9739   8.785   2.305   9.853  0.0595 -0.2458 -0.1196
  612DPPI   GL2 9740   8.509   2.087   9.986  0.1218  0.2745  0.0347
  612DPPI   C1A 9741   8.657   2.170   9.502  0.1472  0.0309  0.2289
  612DPPI   C2A 9742   8.659   2.067   8.966  0.0639 -0.0753 -0.3578
  612DPPI   C3A 9743   8.609   1.842   8.596  0.1229  0.0195  0.0231
  612DPPI   C4A 9744   8.434   1.741   8.126  0.1663  0.1157 -0.0095
  612DPPI   C1B 9745   8.513   1.685   9.673  0.1855 -0.1378 -0.1322
  612DPPI   C2B 9746   8.553   1.574   9.217 -0.1991  0.2191  0.1908
  612DPPI   C3B 9747   8.638   1.434   8.816 -0.2468 -0.1902  0.0961
  612DPPI   C4B 9748   8.624   1.319   8.412  0.1125  0.0500 -0.3098
  613DPPI    C1 9749   3.802   4.779  10.353  0.0765 -0.0024  0.0205
  613DPPI    C2 9750   3.514   4.673  10.609  0.0875 -0.0500  0.0132
  613DPPI    C3 9751   3.863   4.810  10.747  0.0814 -0.0443  0.0232
  613DPPI   PO4 9752   3.754   4.927  10.118  0.0486  0.1823 -0.1437
  613DPPI   GL1 9753   3.555   4.962   9.734  0.0375 -0.0902  0.2473
  613DPPI   GL2 9754   3.733   5.096   9.585 -0.0056  0.2102  0.1977
  613DPPI   C1A 9755   3.289   5.244   9.497  0.1050 -0.0511 -0.0726
  613DPPI   C2A 9756   3.100   5.234   9.041  0.2983 -0.1489 -0.1523
  613DPPI   C3A 9757   2.961   5.234   8.596 -0.3299 -0.0013  0.1010
  613DPPI   C4A 9758   2.911   5.316   8.223 -0.0495 -0.3405  0.0329
  613DPPI   C1B 9759   3.577   5.057   9.145 -0.0568 -0.2994  0.2116
  613DPPI   C2B 9760   3.511   5.133   8.729 -0.0102 -0.1195 -0.0066
  613DPPI   C3B 9761   3.395   5.116   8.228 -0.0626  0.1866 -0.1101
  613DPPI   C4B 9762   3.370   4.908   7.917 -0.1368  0.3265 -0.0548
  614DPPI    C1 9763  15.794  11.258  10.581 -0.2058 -0.0162 -0.0354
  614DPPI    C2 9764  15.456  11.400  10.741 -0.1479 -0.1094  0.1733
  614DPPI    C3 9765  15.552  11.015  10.787 -0.0138 -0.0836  0.1132
  614DPPI   PO4 9766  15.876  11.401  10.252  0.0401 -0.3253  0.1983
  614DPPI   GL1 9767  15.977  11.150   9.939  0.1626  0.2409  0.0855
  614DPPI   GL2 9768  16.045  10.878   9.725  0.0111  0.0665 -0.2578
  614DPPI   C1A 9769  15.897  11.296   9.544  0.0576  0.1197 -0.2166
  614DPPI   C2A 9770  15.856  11.382   9.016  0.1380  0.0722 -0.0539
  614DPPI   C3A 9771  15.943  11.300   8.635  0.1313  0.1763  0.2477
  614DPPI   C4A 9772  15.799  11.057   8.219  0.1729  0.0501 -0.0919
  614DPPI   C1B 9773  16.073  10.855   9.302 -0.0812  0.2126  0.1146
  614DPPI   C2B 9774  15.979  10.827   8.891  0.0051 -0.0270  0.0758
  614DPPI   C3B 9775  16.063  10.806   8.593  0.2028  0.1517 -0.1793
  614DPPI   C4B 9776  16.106  10.423   8.311  0.0847 -0.4892  0.0610
  615DPPI    C1 9777  13.284   2.326  10.626  0.0012 -0.1227 -0.0508
  615DPPI    C2 9778  13.583   2.101  10.485  0.0092 -0.2311  0.1362
  615DPPI    C3 9779  13.657   2.383  10.760  0.0035  0.0196 -0.1153
  615DPPI   PO4 9780  13.162   2.302  10.367  0.1477 -0.1665 -0.0031
  615DPPI   GL1 9781  13.244   2.430   9.984 -0.0760  0.0944 -0.1219
  615DPPI   GL2 9782  13.289   2.703   9.827  0.0538  0.1485 -0.0191
  615DPPI   C1A 9783  13.435   2.237   9.572 -0.0344 -0.1974  0.3073
  615DPPI   C2A 9784  13.334   2.152   9.212 -0.3737 -0.0968 -0.1368
  615DPPI   C3A 9785  13.206   2.089   8.746 -0.1857  0.0096  0.1871
  615DPPI   C4A 9786  13.197   2.152   8.321 -0.1388 -0.2708 -0.1553
  615DPPI   C1B 9787  13.155   2.708   9.328 -0.1117  0.0568 -0.1536
  615DPPI   C2B 9788  13.230   2.641   8.831  0.2033 -0.3847  0.0963
  615DPPI   C3B 9789  13.140   2.670   8.416  0.2129 -0.1226  0.0045
  615DPPI   C4B 9790  13.108   2.540   7.937 -0.0122 -0.1453  0.2162
  616PYPI    C1 9791  18.517   2.667  10.023  0.1733  0.4234  0.0854
  616PYPI    C2 9792  18.563   2.627  10.418 -0.1224  0.0332  0.0856
  616PYPI    C3 9793  18.266   2.851  10.273 -0.1687 -0.0272  0.0864
  616PYPI   PO4 9794  18.390   2.472   9.915  0.2486 -0.1127  0.0392
  616PYPI   GL1 9795  18.255   2.391   9.502 -0.0557  0.0339 -0.0628
  616PYPI   GL2 9796  17.942   2.360   9.494 -0.3560 -0.1824 -0.1098
  616PYPI   C1A 9797  18.194   2.384   9.044 -0.1560 -0.0799 -0.2032
  616PYPI   C2A 9798  18.242   2.483   8.626  0.1686 -0.0682 -0.0283
  616PYPI   D3A 9799  18.288   2.240   8.183 -0.0510  0.0007 -0.2047
  616PYPI   C4A 9800  18.394   2.476   7.916 -0.0579 -0.3306  0.0852
  616PYPI   C1B 9801  17.747   2.638   9.207 -0.2552 -0.2655 -0.0364
  616PYPI   C2B 9802  17.941   2.830   8.917 -0.3577  0.0649 -0.0579
  616PYPI   C3B 9803  18.172   2.969   8.660 -0.0304 -0.2526  0.2545
  616PYPI   C4B 9804  18.196   2.803   8.250 -0.0477  0.1627 -0.0197
  617PYPI    C1 9805  13.766  13.258  10.894  0.1073 -0.0334  0.0554
  617PYPI    C2 9806  13.370  13.211  10.915  0.0748  0.1479 -0.1251
  617PYPI    C3 9807  13.602  13.087  11.216 -0.1250  0.1106  0.0154
  617PYPI   PO4 9808  13.791  13.434  10.653 -0.0999 -0.3974 -0.3163
  617PYPI   GL1 9809  13.674  13.493  10.165  0.1304 -0.1893  0.0422
  617PYPI   GL2 9810  13.664  13.736   9.849 -0.4303 -0.1194 -0.2052
  617PYPI   C1A 9811  13.573  13.271   9.766  0.0898 -0.0551  0.0988
  617PYPI   C2A 9812  13.704  13.048   9.306 -0.1457 -0.1460  0.2496
  617PYPI   D3A 9813  13.543  12.867   9.002 -0.1069  0.0636 -0.1281
  617PYPI   C4A 9814  13.481  12.868   8.539  0.0428 -0.0585  0.1614
  617PYPI   C1B 9815  13.769  13.571   9.408  0.1640 -0.0886 -0.0350
  617PYPI   C2B 9816  13.789  13.426   8.990  0.2068  0.0052  0.2429
  617PYPI   C3B 9817  13.783  13.379   8.542  0.0059  0.1246 -0.0244
  617PYPI   C4B 9818  13.399  13.174   8.199  0.0288  0.2613  0.1409
  618PYPI    C1 9819   5.809  16.908  10.293  0.3503  0.0505  0.2245
  618PYPI    C2 9820   5.580  16.984  10.613  0.0779 -0.0645  0.0605
  618PYPI    C3 9821   5.833  16.674  10.617  0.0463 -0.0893  0.1501
  618PYPI   PO4 9822   5.885  17.090  10.138 -0.2236  0.0433 -0.0745
  618PYPI   GL1 9823   5.719  17.223   9.753  0.2568  0.0456  0.1794
  618PYPI   GL2 9824   5.486  17.233   9.664  0.2147  0.2972  0.3721
  618PYPI   C1A 9825   5.913  17.667   9.506 -0.1525 -0.0705  0.1212
  618PYPI   C2A 9826   5.919  17.641   9.061  0.0060 -0.1174 -0.2379
  618PYPI   D3A 9827   6.097  17.650   8.662  0.0106 -0.1560  0.1118
  618PYPI   C4A 9828   6.134  17.756   8.309 -0.0394 -0.0158  0.1597
  618PYPI   C1B 9829   5.559  17.329   9.179 -0.0460  0.1943  0.2857
  618PYPI   C2B 9830   5.648  17.319   8.680  0.3352 -0.2078 -0.2741
  618PYPI   C3B 9831   5.711  17.391   8.232 -0.1779 -0.0907 -0.2358
  618PYPI   C4B 9832   6.013  17.346   7.903  0.1654  0.0992  0.3504
  619PYPI    C1 9833  13.601  12.887  10.557 -0.0225  0.2452  0.0293
  619PYPI    C2 9834  13.977  12.823  10.680 -0.0334  0.4769  0.1890
  619PYPI    C3 9835  13.675  12.624  10.850  0.0232  0.2217 -0.0031
  619PYPI   PO4 9836  13.637  12.996  10.307  0.2369  0.2669  0.1005
  619PYPI   GL1 9837  13.726  12.727   9.925  0.0519  0.0502 -0.0979
  619PYPI   GL2 9838  13.716  12.468   9.829  0.0869  0.2485 -0.3412
  619PYPI   C1A 9839  14.029  12.788   9.587 -0.0085 -0.2708 -0.0823
  619PYPI   C2A 9840  14.081  12.796   9.090 -0.1267  0.2633 -0.1065
  619PYPI   D3A 9841  13.957  12.714   8.700  0.2006 -0.1287  0.2376
  619PYPI   C4A 9842  13.861  12.966   8.225  0.1092  0.1148  0.1499
  619PYPI   C1B 9843  13.691  12.454   9.338 -0.1211  0.0410  0.4427
  619PYPI   C2B 9844  13.620  12.358   8.885  0.1510 -0.1836 -0.1733
  619PYPI   C3B 9845  13.460  12.331   8.498 -0.1396  0.2223  0.1773
  619PYPI   C4B 9846  13.300  12.292   8.066  0.2616  0.1953 -0.0657
  620PYPI    C1 9847  17.198  18.253   9.752  0.0001  0.0104 -0.0161
  620PYPI    C2 9848  16.990  18.386  10.067 -0.3830  0.0842 -0.2927
  620PYPI    C3 9849  17.123  18.009  10.060  0.1317  0.2422  0.2038
  620PYPI   PO4 9850  17.111  18.320   9.556  0.1675  0.1505  0.2264
  620PYPI   GL1 9851  16.884  18.186   9.287 -0.0499 -0.2265  0.0039
  620PYPI   GL2 9852  16.871  17.858   9.073  0.0531  0.3283 -0.2546
  620PYPI   C1A 9853  16.882  18.285   8.903 -0.3712  0.0870  0.0752
  620PYPI   C2A 9854  16.774  18.278   8.497 -0.2017 -0.1832 -0.1874
  620PYPI   D3A 9855  16.828  18.077   8.117 -0.1731 -0.2667 -0.2343
  620PYPI   C4A 9856  16.936  18.325   7.902  0.1981 -0.3264 -0.0217
  620PYPI   C1B 9857  16.868  17.757   8.645  0.0378  0.2511  0.2903
  620PYPI   C2B 9858  16.935  17.654   8.320 -0.0545  0.2351 -0.1785
  620PYPI   C3B 9859  16.893  17.615   7.898 -0.1020  0.2808 -0.0657
  620PYPI   C4B 9860  16.834  17.333   7.497  0.4728 -0.0373  0.0522
  621PYPI    C1 9861   6.881  12.079  10.733  0.2194 -0.3766 -0.0937
  621PYPI    C2 9862   6.540  11.891  10.826  0.1311 -0.2905 -0.2390
  621PYPI    C3 9863   6.771  12.042  11.116 -0.0135 -0.2459 -0.1458
  621PYPI   PO4 9864   6.831  12.317  10.628  0.0613 -0.2824  0.0308
  621PYPI   GL1 9865   6.775  12.498  10.204  0.0800  0.1165  0.4643
  621PYPI   GL2 9866   6.489  12.299   9.951  0.0441  0.1035 -0.0116
  621PYPI   C1A 9867   6.860  12.729   9.831 -0.0503  0.0629 -0.1714
  621PYPI   C2A 9868   6.901  12.786   9.376 -0.0120 -0.2197 -0.2674
  621PYPI   D3A 9869   7.004  12.789   8.985  0.3481  0.0304  0.0461
  621PYPI   C4A 9870   6.884  12.741   8.611  0.0231 -0.3225 -0.0586
  621PYPI   C1B 9871   6.598  12.399   9.461  0.0842 -0.1601 -0.1064
  621PYPI   C2B 9872   6.571  12.458   9.023  0.0311  0.2343  0.1141
  621PYPI   C3B 9873   6.672  12.202   8.628  0.3075 -0.1577 -0.3104
  621PYPI   C4B 9874   6.527  12.437   8.259  0.0916 -0.0390 -0.1060
  622ERGO   ROH 9875  11.112  11.744  10.059 -0.0634  0.0475 -0.0195
  622ERGO    R1 9876  10.993  11.814   9.811 -0.1003  0.0335 -0.0063
  622ERGO    R2 9877  11.138  11.921   9.601 -0.1502  0.1204  0.0018
  622ERGO    R3 9878  11.029  11.714   9.463 -0.0718  0.0947 -0.0210
  622ERGO    R4 9879  11.132  11.894   9.257 -0.0570  0.1123  0.0010
  622ERGO    R5 9880  10.930  11.815   9.271 -0.0443  0.0700 -0.0483
  622ERGO    C1 9881  11.026  11.683   8.927  0.0710  0.0834 -0.0208
  622ERGO    C2 9882  10.937  11.649   8.569 -0.3457  0.2347  0.1311
  623ERGO   ROH 9883   4.917  14.570  10.002 -0.1040 -0.1517  0.0869
  623ERGO    R1 9884   4.910  14.683   9.743 -0.1131 -0.1423  0.0925
  623ERGO    R2 9885   5.060  14.584   9.533 -0.0639 -0.0852  0.1074
  623ERGO    R3 9886   4.819  14.573   9.408 -0.0461 -0.1522  0.0760
  623ERGO    R4 9887   5.014  14.609   9.192 -0.0256 -0.0383  0.1044
  623ERGO    R5 9888   4.837  14.731   9.230 -0.0795 -0.1083  0.1068
  623ERGO    C1 9889   4.761  14.612   8.875  0.0136 -0.0737  0.0733
  623ERGO    C2 9890   4.700  14.669   8.678 -0.1953 -0.2831 -0.1546
  624ERGO   ROH 9891  14.136  15.193   6.263  0.1080 -0.1383  0.0400
  624ERGO    R1 9892  14.239  15.277   6.513 -0.0106 -0.0412  0.0563
  624ERGO    R2 9893  14.089  15.425   6.693 -0.1801 -0.1814  0.0325
  624ERGO    R3 9894  14.156  15.225   6.864 -0.0170 -0.1199  0.0434
  624ERGO    R4 9895  14.129  15.462   7.034 -0.1999 -0.1290  0.0296
  624ERGO    R5 9896  14.301  15.329   7.023 -0.0936  0.0053  0.0335
  624ERGO    C1 9897  14.215  15.295   7.394 -0.0582 -0.0407  0.0381
  624ERGO    C2 9898  14.076  15.407   7.694 -0.2624  0.3424  0.2420
  625ERGO   ROH 9899  17.453  18.040   9.263 -0.0702 -0.1067  0.0080
  625ERGO    R1 9900  17.330  18.067   9.010 -0.0235 -0.1129 -0.0150
  625ERGO    R2 9901  17.390  18.274   8.837 -0.1004 -0.0353  0.0535
  625ERGO    R3 9902  17.439  18.071   8.662  0.0585  0.0382  0.0107
  625ERGO    R4 9903  17.317  18.283   8.499 -0.0985 -0.0104  0.0536
  625ERGO    R5 9904  17.251  18.075   8.513  0.0562 -0.0672  0.0064
  625ERGO    C1 9905  17.320  18.098   8.139  0.0516  0.0730  0.0138
  625ERGO    C2 9906  17.369  17.891   7.977  0.0302 -0.3648  0.3113
  626ERGO   ROH 9907  15.900  15.939   6.033 -0.1860  0.0385 -0.0177
  626ERGO    R1 9908  15.936  15.824   6.289 -0.0213  0.0760 -0.0232
  626ERGO    R2 9909  16.146  15.892   6.455 -0.0530  0.2845 -0.0671
  626ERGO    R3 9910  15.947  15.942   6.633 -0.0678  0.0920 -0.0273
  626ERGO    R4 9911  16.155  15.808   6.790 -0.0232  0.0508 -0.1242
  626ERGO    R5 9912  15.945  15.750   6.776 -0.0030 -0.0098 -0.1617
  626ERGO    C1 9913  15.973  15.805   7.153 -0.0198 -0.2660 -0.1201
  626ERGO    C2 9914  16.125  15.640   7.409  0.2879 -0.0118  0.2091
  627ERGO   ROH 9915   4.347   4.037   9.695 -0.1165  0.1242  0.0396
  627ERGO    R1 9916   4.521   4.174   9.519 -0.0692  0.1155  0.0790
  627ERGO    R2 9917   4.649   4.049   9.307 -0.0049  0.1028  0.1235
  627ERGO    R3 9918   4.533   4.247   9.162  0.0305  0.0888  0.0768
  627ERGO    R4 9919   4.696   4.099   8.969  0.2945  0.2377  0.1821
  627ERGO    R5 9920   4.702   4.314   9.007  0.1467  0.2285  0.2596
  627ERGO    C1 9921   4.615   4.315   8.636  0.5021  0.3032  0.1725
  627ERGO    C2 9922   4.514   4.338   8.424  0.3199  0.3106 -0.0715
  628ERGO   ROH 9923  11.490  10.208  10.319 -0.1732  0.1247  0.0814
  628ERGO    R1 9924  11.581  10.212  10.051 -0.0632  0.0674  0.1164
  628ERGO    R2 9925  11.473  10.052   9.854  0.1713 -0.1464  0.1508
  628ERGO    R3 9926  11.440  10.289   9.725 -0.0021 -0.2433  0.0150
  628ERGO    R4 9927  11.484  10.093   9.511  0.1936 -0.3188  0.1307
  628ERGO    R5 9928  11.594  10.279   9.542  0.0342 -0.2131  0.0476
  628ERGO    C1 9929  11.460  10.339   9.190  0.0438 -0.5101 -0.0084
  628ERGO    C2 9930  11.471  10.268   8.885 -0.3208 -0.0850 -0.1080
  629ERGO   ROH 9931  18.465   7.225  10.015 -0.3580 -0.2053  0.0826
  629ERGO    R1 9932  18.339   7.278   9.767 -0.1200 -0.1077 -0.0203
  629ERGO    R2 9933  18.451   7.441   9.575  0.0803 -0.0553  0.1397
  629ERGO    R3 9934  18.415   7.224   9.415  0.2045  0.0031  0.0291
  629ERGO    R4 9935  18.464   7.446   9.230 -0.0881  0.1636  0.1341
  629ERGO    R5 9936  18.294   7.309   9.226  0.0340  0.0069  0.1366
  629ERGO    C1 9937  18.437   7.245   8.879 -0.0696  0.3458  0.0269
  629ERGO    C2 9938  18.410   7.374   8.612  0.1888  0.2156 -0.0757
  630ERGO   ROH 9939   7.138  11.093   9.921  0.0375 -0.0884  0.1169
  630ERGO    R1 9940   7.201  11.246   9.691 -0.4077  0.1890  0.1690
  630ERGO    R2 9941   7.360  11.149   9.487  0.0719  0.7889  0.2335
  630ERGO    R3 9942   7.147  11.218   9.333 -0.1337  0.0261  0.1369
  630ERGO    R4 9943   7.371  11.197   9.145  0.0637  0.8337  0.2392
  630ERGO    R5 9944   7.237  11.368   9.169 -0.5847  0.3746  0.1841
  630ERGO    C1 9945   7.177  11.290   8.801 -0.1341  0.1438  0.1518
  630ERGO    C2 9946   7.176  11.253   8.483 -0.4042  0.5406 -0.1372
  631ERGO   ROH 9947  13.273   1.828  10.118 -0.1037 -0.0299 -0.0179
  631ERGO    R1 9948  13.416   1.806   9.874 -0.1240  0.0625 -0.0380
  631ERGO    R2 9949  13.419   1.573   9.724  0.0654  0.0413  0.0028
  631ERGO    R3 9950  13.335   1.739   9.526 -0.1209 -0.0703 -0.0153
  631ERGO    R4 9951  13.473   1.522   9.387  0.0445  0.0105  0.0037
  631ERGO    R5 9952  13.512   1.735   9.365 -0.1434  0.0468 -0.0496
  631ERGO    C1 9953  13.426   1.648   9.004 -0.1426 -0.1122 -0.0129
  631ERGO    C2 9954  13.440   1.650   8.625 -0.0055 -0.0122  0.0878
  632ERGO   ROH 9955  15.632   5.774   9.920 -0.0592 -0.1576  0.0389
  632ERGO    R1 9956  15.560   5.675   9.664 -0.1863  0.0872 -0.0245
  632ERGO    R2 9957  15.436   5.832   9.473  0.0964  0.3949  0.0307
  632ERGO    R3 9958  15.645   5.750   9.318 -0.0067  0.1282  0.0280
  632ERGO    R4 9959  15.442   5.841   9.128  0.0725  0.2936  0.0277
  632ERGO    R5 9960  15.542   5.647   9.129 -0.1360  0.1872  0.0679
  632ERGO    C1 9961  15.641   5.770   8.781 -0.0381 -0.0157  0.0235
  632ERGO    C2 9962  15.695   5.815   8.340  0.0326 -0.0043  0.3566
  633ERGO   ROH 9963  10.197  12.315  10.132  0.3332 -0.3328 -0.0196
  633ERGO    R1 9964  10.308  12.449   9.909  0.1024 -0.1734 -0.0431
  633ERGO    R2 9965  10.436  12.315   9.704  0.2493  0.0043 -0.0703
  633ERGO    R3 9966  10.258  12.448   9.549  0.0272 -0.2419 -0.0329
  633ERGO    R4 9967  10.456  12.344   9.360  0.2280  0.1643 -0.0584
  633ERGO    R5 9968  10.391  12.551   9.379 -0.1314  0.0528  0.0136
  633ERGO    C1 9969  10.300  12.486   9.014  0.0069  0.0262 -0.0164
  633ERGO    C2 9970  10.365  12.240   8.728  0.1486  0.0716  0.3876
  634ERGO   ROH 9971  12.886   7.707  10.200  0.2108 -0.3703  0.0719
  634ERGO    R1 9972  12.825   7.528   9.989  0.2377 -0.1751 -0.1046
  634ERGO    R2 9973  12.627   7.578   9.803  0.2231 -0.0277 -0.0475
  634ERGO    R3 9974  12.828   7.536   9.625  0.2240  0.1842 -0.1001
  634ERGO    R4 9975  12.584   7.526   9.464  0.1919 -0.0319 -0.0436
  634ERGO    R5 9976  12.740   7.375   9.472  0.3412  0.1143 -0.0966
  634ERGO    C1 9977  12.748   7.457   9.100  0.1747  0.1646 -0.0906
  634ERGO    C2 9978  12.716   7.428   8.720  0.0033  0.2037  0.0388
  635ERGO   ROH 9979  11.711  18.464   9.992  0.0246 -0.0009  0.1175
  635ERGO    R1 9980  11.744  18.328   9.746  0.3036  0.2224  0.0262
  635ERGO    R2 9981  11.531  18.227   9.603  0.5088 -0.2432  0.0409
  635ERGO    R3 9982  11.638  18.375   9.401  0.0730  0.1584  0.0844
  635ERGO    R4 9983  11.458  18.184   9.267  0.6190 -0.3672  0.0316
  635ERGO    R5 9984  11.670  18.217   9.223  0.5455  0.2868  0.0339
  635ERGO    C1 9985  11.517  18.297   8.883  0.2740 -0.0622  0.0672
  635ERGO    C2 9986  11.362  18.332   8.541  0.1239  0.2972 -0.2154
  636ERGO   ROH 9987  15.661  11.632   9.888  0.1524 -0.1389  0.0614
  636ERGO    R1 9988  15.578  11.744   9.641  0.1320 -0.0304  0.1167
  636ERGO    R2 9989  15.742  11.903   9.487  0.1871 -0.1224  0.0784
  636ERGO    R3 9990  15.681  11.723   9.293 -0.0275 -0.0424  0.0695
  636ERGO    R4 9991  15.800  11.949   9.149  0.1527 -0.1357  0.0709
  636ERGO    R5 9992  15.607  11.856   9.109  0.0554  0.0505  0.1033
  636ERGO    C1 9993  15.776  11.807   8.771 -0.0687 -0.0682  0.0581
  636ERGO    C2 9994  15.755  11.706   8.475  0.0310 -0.1897  0.2478
  637ERGO   ROH 9995  17.292   0.627   9.300  0.0589  0.1045 -0.0560
  637ERGO    R1 9996  17.171   0.759   9.080  0.1451  0.1676 -0.0669
  637ERGO    R2 9997  17.307   0.810   8.844  0.1294 -0.1029 -0.1426
  637ERGO    R3 9998  17.096   0.679   8.733 -0.0812  0.1121 -0.0058
  637ERGO    R4 9999  17.253   0.774   8.505  0.0451 -0.3315 -0.1065
  637ERGO    R510000  17.041   0.808   8.540  0.0982  0.0217 -0.1169
  637ERGO    C110001  17.024   0.630   8.203 -0.2018 -0.2627  0.0429
  637ERGO    C210002  16.984   0.676   7.808 -0.3957 -0.1899 -0.0787
  638ERGO   ROH10003   7.378   1.010   9.837 -0.0679  0.1377 -0.0978
  638ERGO    R110004   7.483   1.148   9.613 -0.3261  0.1185 -0.2342
  638ERGO    R210005   7.741   1.108   9.521 -0.2221  0.5574 -0.1497
  638ERGO    R310006   7.615   1.058   9.286 -0.0928  0.0308 -0.1187
  638ERGO    R410007   7.888   1.133   9.209 -0.2175  0.4917 -0.1529
  638ERGO    R510008   7.703   1.221   9.135 -0.3928  0.0426 -0.2910
  638ERGO    C110009   7.855   1.100   8.807 -0.0933 -0.0408 -0.1256
  638ERGO    C210010   7.897   1.066   8.425 -0.1504 -0.1604 -0.0463
  639ERGO   ROH10011   9.845   0.755  10.194 -0.0938  0.2052 -0.2582
  639ERGO    R110012   9.926   0.782   9.924 -0.1420  0.0726 -0.2868
  639ERGO    R210013   9.979   0.564   9.763 -0.2175 -0.0076 -0.2037
  639ERGO    R310014   9.798   0.683   9.598 -0.2260 -0.0430 -0.2200
  639ERGO    R410015   9.968   0.526   9.419 -0.1509  0.0183 -0.2088
  639ERGO    R510016   9.923   0.738   9.401 -0.2081  0.0094 -0.1959
  639ERGO    C110017   9.791   0.614   9.065 -0.1199  0.0002 -0.2270
  639ERGO    C210018   9.763   0.559   8.699  0.1167  0.0492  0.1197
  640ERGO   ROH10019   5.757   3.022   9.646 -0.2523 -0.1400  0.0199
  640ERGO    R110020   5.783   3.126   9.384 -0.0138 -0.0399  0.0813
  640ERGO    R210021   6.023   3.129   9.249  0.0666 -0.1804  0.2242
  640ERGO    R310022   5.881   2.999   9.058  0.0655  0.0289  0.0768
  640ERGO    R410023   6.091   3.139   8.910  0.1458  0.0965  0.2449
  640ERGO    R510024   5.877   3.150   8.872  0.1541  0.1966  0.2063
  640ERGO    C110025   5.997   3.022   8.533  0.1909  0.4542  0.1187
  640ERGO    C210026   6.033   2.924   8.200  0.0386 -0.1092  0.1708
  641ERGO   ROH10027  14.674   9.307   9.769 -0.1015  0.2584  0.0303
  641ERGO    R110028  14.619   9.221   9.505  0.0516  0.1044  0.0470
  641ERGO    R210029  14.464   9.367   9.329 -0.0142 -0.0913 -0.0655
  641ERGO    R310030  14.682   9.345   9.168  0.0591  0.0181  0.0175
  641ERGO    R410031  14.458   9.389   8.984  0.1014 -0.1847 -0.0734
  641ERGO    R510032  14.602   9.226   8.976  0.2151 -0.0846  0.0190
  641ERGO    C110033  14.660   9.380   8.632  0.2376 -0.1363 -0.0002
  641ERGO    C210034  14.645   9.494   8.189 -0.1076  0.0339 -0.1211
  642ERGO   ROH10035  14.946  18.333   9.371  0.0521  0.0325  0.0569
  642ERGO    R110036  14.878  18.402   9.105  0.0135 -0.0437  0.0459
  642ERGO    R210037  15.057  18.380   8.895  0.0426  0.0664  0.0540
  642ERGO    R310038  14.859  18.231   8.784  0.1560 -0.0931  0.0636
  642ERGO    R410039  15.015  18.331   8.556  0.0448  0.0545  0.0561
  642ERGO    R510040  14.799  18.351   8.585  0.0319 -0.1303  0.0801
  642ERGO    C110041  14.803  18.163   8.254  0.1525 -0.1024  0.0664
  642ERGO    C210042  14.892  18.179   7.951 -0.1392  0.0116  0.2572
  643ERGO   ROH10043   3.579   6.688   5.948 -0.1358 -0.0103  0.0215
  643ERGO    R110044   3.523   6.757   6.217 -0.1443 -0.0646  0.0336
  643ERGO    R210045   3.394   6.585   6.391  0.0066 -0.1676  0.0448
  643ERGO    R310046   3.612   6.631   6.547 -0.0015 -0.0174  0.0135
  643ERGO    R410047   3.435   6.469   6.714  0.0774 -0.0280  0.0870
  643ERGO    R510048   3.524   6.661   6.767  0.0013  0.0295  0.0083
  643ERGO    C110049   3.664   6.445   7.048  0.1110  0.1942  0.0821
  643ERGO    C210050   3.747   6.203   7.294 -0.1348  0.1626  0.1274
  644ERGO   ROH10051   6.817  16.234   9.599 -0.0079 -0.0962  0.1427
  644ERGO    R110052   6.763  16.093   9.360 -0.0594 -0.0145  0.1061
  644ERGO    R210053   6.689  16.219   9.126 -0.0618  0.0690  0.1535
  644ERGO    R310054   6.899  16.081   9.022 -0.0986  0.0614  0.0870
  644ERGO    R410055   6.766  16.199   8.789 -0.1485  0.0978  0.1314
  644ERGO    R510056   6.815  15.988   8.818 -0.1587  0.0893  0.0978
  644ERGO    C110057   7.007  16.057   8.496 -0.2335  0.1073  0.0561
  644ERGO    C210058   7.050  16.149   8.099 -0.1365 -0.3790 -0.4406
  645ERGO   ROH10059   5.999  10.997  10.092 -0.0960  0.1552  0.1180
  645ERGO    R110060   5.996  11.120   9.837 -0.1147  0.0188  0.0514
  645ERGO    R210061   6.183  11.061   9.641 -0.0668 -0.0103  0.1055
  645ERGO    R310062   5.962  11.011   9.491 -0.0285 -0.1799  0.1039
  645ERGO    R410063   6.158  11.116   9.301 -0.1481  0.0957  0.1280
  645ERGO    R510064   5.956  11.190   9.332 -0.2238 -0.1231  0.1725
  645ERGO    C110065   5.937  11.101   8.962 -0.1595 -0.0018  0.1396
  645ERGO    C210066   5.844  11.088   8.646  0.2551 -0.0507  0.0526
  646ERGO   ROH10067   6.760  14.194  10.379  0.0037 -0.0507  0.0987
  646ERGO    R110068   6.837  14.260  10.115 -0.0649 -0.0241  0.0854
  646ERGO    R210069   7.024  14.113   9.973 -0.0844  0.0056  0.0324
  646ERGO    R310070   6.825  14.099   9.789 -0.1249 -0.0011  0.0754
  646ERGO    R410071   7.068  14.147   9.632 -0.1452 -0.0719  0.0160
  646ERGO    R510072   6.884  14.263   9.625 -0.1298 -0.0428  0.0294
  646ERGO    C110073   6.907  14.154   9.260 -0.2186 -0.1233  0.0468
  646ERGO    C210074   6.919  14.173   8.948 -0.0160  0.3780 -0.1962
  647ERGO   ROH10075  10.728  17.349   6.456 -0.2733  0.2207 -0.1360
  647ERGO    R110076  10.718  17.248   6.720 -0.2295  0.0763 -0.1891
  647ERGO    R210077  10.895  17.327   6.916 -0.0869 -0.1618 -0.2194
  647ERGO    R310078  10.667  17.384   7.053  0.0124 -0.0780 -0.0869
  647ERGO    R410079  10.885  17.472   7.229  0.1525 -0.2872 -0.1507
  647ERGO    R510080  10.722  17.336   7.282  0.0923 -0.2090 -0.1320
  647ERGO    C110081  10.665  17.610   7.541  0.3850 -0.2813  0.0136
  647ERGO    C210082  10.637  17.908   7.608  0.0295 -0.4258  0.3039
  648ERGO   ROH10083  14.857  16.119   5.743 -0.2275 -0.2496  0.1184
  648ERGO    R110084  14.718  16.247   5.954 -0.0157  0.0470  0.0837
  648ERGO    R210085  14.676  16.128   6.200 -0.3437  0.1222  0.0729
  648ERGO    R310086  14.794  16.354   6.294  0.1250 -0.1244  0.1063
  648ERGO    R410087  14.634  16.255   6.518 -0.2922  0.3068  0.0067
  648ERGO    R510088  14.627  16.455   6.432  0.2499  0.3116 -0.0496
  648ERGO    C110089  14.719  16.541   6.792  0.1779  0.1831 -0.0005
  648ERGO    C210090  14.688  16.591   7.013 -0.2108 -0.0560  0.1357
  649ERGO   ROH10091   0.528  13.797   9.828  0.0406 -0.0891 -0.0480
  649ERGO    R110092   0.399  13.737   9.583  0.0039 -0.0340 -0.0424
  649ERGO    R210093   0.271  13.929   9.431  0.0590  0.0169 -0.0249
  649ERGO    R310094   0.434  13.836   9.235  0.0146 -0.0295 -0.0401
  649ERGO    R410095   0.211  13.961   9.092  0.0250  0.0124 -0.0194
  649ERGO    R510096   0.285  13.758   9.065 -0.0233 -0.0053 -0.0179
  649ERGO    C110097   0.330  13.891   8.711 -0.0365 -0.0338 -0.0304
  649ERGO    C210098   0.445  13.755   8.421  0.0427  0.1235  0.1888
  650ERGO   ROH10099   1.917  15.410   9.811  0.0983  0.1462  0.1277
  650ERGO    R110100   1.910  15.266   9.567  0.1665  0.0205  0.2002
  650ERGO    R210101   1.789  15.365   9.339  0.0465 -0.1866  0.1773
  650ERGO    R310102   2.031  15.314   9.228  0.0656 -0.0516  0.1518
  650ERGO    R410103   1.854  15.365   9.000 -0.0525 -0.3788  0.1559
  650ERGO    R510104   1.980  15.190   9.029  0.1168 -0.2493  0.2552
  650ERGO    C110105   2.120  15.317   8.698 -0.0922 -0.3641  0.1196
  650ERGO    C210106   2.398  15.368   8.395  0.1887 -0.0578  0.0454
  651ERGO   ROH10107  12.171   4.710   9.806 -0.1375 -0.0838  0.0071
  651ERGO    R110108  12.074   4.676   9.542 -0.2568  0.0647  0.0293
  651ERGO    R210109  11.986   4.888   9.388  0.0949  0.2204  0.0240
  651ERGO    R310110  12.168   4.791   9.210 -0.1088 -0.1350  0.0011
  651ERGO    R410111  11.946   4.887   9.044  0.0466  0.2740  0.0303
  651ERGO    R510112  12.035   4.689   9.039 -0.3273  0.1025  0.0264
  651ERGO    C110113  12.093   4.797   8.678 -0.1728 -0.0284  0.0125
  651ERGO    C210114  12.175   4.826   8.327  0.0598  0.0563  0.3038
  652ERGO   ROH10115  10.374   9.685  10.127  0.1815  0.1766 -0.1388
  652ERGO    R110116  10.310   9.561   9.881  0.1195  0.0460 -0.0585
  652ERGO    R210117  10.145   9.679   9.693  0.0096 -0.0861 -0.0494
  652ERGO    R310118  10.356   9.635   9.527 -0.0415 -0.0988 -0.1110
  652ERGO    R410119  10.125   9.658   9.348 -0.0964 -0.1294 -0.0407
  652ERGO    R510120  10.268   9.494   9.355 -0.0895 -0.1224 -0.0659
  652ERGO    C110121  10.312   9.604   8.992 -0.2061 -0.1665 -0.0933
  652ERGO    C210122  10.336   9.581   8.639 -0.1544 -0.0595  0.3071
  653ERGO   ROH10123   3.430  12.541   9.667 -0.0970  0.2373 -0.1640
  653ERGO    R110124   3.510  12.661   9.423 -0.3298  0.2484 -0.2365
  653ERGO    R210125   3.674  12.533   9.241  0.0007  0.4859 -0.1129
  653ERGO    R310126   3.471  12.588   9.069 -0.1095 -0.1018 -0.1945
  653ERGO    R410127   3.695  12.508   8.897  0.1107  0.2531 -0.0912
  653ERGO    R510128   3.579  12.692   8.882 -0.3052 -0.0053 -0.2593
  653ERGO    C110129   3.518  12.546   8.535  0.0713 -0.4341 -0.1552
  653ERGO    C210130   3.511  12.647   8.150  0.0982  0.1050  0.1539
  654PSPI    C110131  15.834   6.863   5.639  0.0223  0.1256 -0.0648
  654PSPI    C210132  16.090   6.578   5.522 -0.0256 -0.0072  0.1493
  654PSPI    C310133  15.988   6.871   5.270  0.3315  0.0432  0.0590
  654PSPI   PO410134  15.913   6.964   5.860 -0.0336  0.0001 -0.0918
  654PSPI   GL110135  15.821   7.172   6.323 -0.0061  0.2921  0.1086
  654PSPI   GL210136  15.574   7.298   6.383 -0.0300  0.1704  0.0252
  654PSPI   C1A10137  16.030   7.193   6.801 -0.2358 -0.0415 -0.1671
  654PSPI   C2A10138  16.275   7.399   7.109  0.0760 -0.0456  0.4727
  654PSPI   C3A10139  16.466   7.442   7.429  0.0271  0.0521  0.0568
  654PSPI   C4A10140  16.392   7.250   7.773  0.0946  0.1015  0.0634
  654PSPI   C1B10141  15.367   7.417   6.683 -0.3367 -0.0154 -0.1639
  654PSPI   C2B10142  15.203   7.205   7.081 -0.0633 -0.2623  0.0477
  654PSPI   C3B10143  15.049   7.383   7.496 -0.3232  0.2512  0.1228
  654PSPI   C4B10144  15.071   7.838   7.552 -0.0110 -0.0247 -0.0049
  655PSPI    C110145   7.277  15.587   5.928 -0.0075  0.3425 -0.0890
  655PSPI    C210146   7.103  15.726   5.595 -0.0439 -0.0015 -0.2175
  655PSPI    C310147   7.496  15.653   5.600 -0.0542 -0.0571 -0.2060
  655PSPI   PO410148   7.096  15.764   6.200 -0.0021 -0.0703 -0.1988
  655PSPI   GL110149   6.718  15.634   6.464 -0.4799 -0.1501 -0.0682
  655PSPI   GL210150   6.837  16.007   6.569  0.2565  0.0162  0.1154
  655PSPI   C1A10151   6.307  15.387   6.604 -0.4064  0.1437 -0.1435
  655PSPI   C2A10152   5.934  15.460   6.905 -0.0670  0.0291  0.3153
  655PSPI   C3A10153   5.822  15.392   7.390 -0.1760  0.2669 -0.1393
  655PSPI   C4A10154   5.842  15.317   7.885 -0.2974 -0.0197  0.1407
  655PSPI   C1B10155   6.484  15.758   6.899  0.2430  0.1013 -0.0777
  655PSPI   C2B10156   6.331  15.409   7.179 -0.2509 -0.1299 -0.0778
  655PSPI   C3B10157   6.238  15.142   7.618  0.0141  0.0589 -0.0709
  655PSPI   C4B10158   6.173  14.766   7.781 -0.2152  0.1378  0.1452
  656PSPI    C110159  10.203  17.839   5.803 -0.1057 -0.0683  0.1401
  656PSPI    C210160   9.982  17.721   5.491  0.1117 -0.4298  0.1183
  656PSPI    C310161   9.842  17.676   5.863 -0.1110 -0.0787  0.0814
  656PSPI   PO410162  10.442  17.646   5.841  0.1929  0.0083 -0.0539
  656PSPI   GL110163  10.468  17.712   6.249  0.0133  0.2362  0.0446
  656PSPI   GL210164  10.744  17.855   6.294 -0.1032  0.4233  0.1732
  656PSPI   C1A10165  10.478  17.903   6.718 -0.3121  0.2910  0.0281
  656PSPI   C2A10166  10.375  17.833   7.147  0.2073  0.0708  0.0269
  656PSPI   C3A10167  10.100  17.852   7.472 -0.0610  0.1338 -0.1073
  656PSPI   C4A10168  10.141  18.076   7.788  0.0545  0.4215  0.3098
  656PSPI   C1B10169  10.982  17.817   6.703 -0.0259  0.0366  0.2376
  656PSPI   C2B10170  10.839  17.948   7.093  0.3220  0.0607  0.0347
  656PSPI   C3B10171  10.927  18.271   7.445  0.1651 -0.2152  0.0039
  656PSPI   C4B10172  11.173  18.592   7.591 -0.3942 -0.2064 -0.0250
  657PSPI    C110173  16.841   8.979   6.043 -0.1768 -0.1960  0.1108
  657PSPI    C210174  17.005   8.618   5.991 -0.1153 -0.1699  0.1228
  657PSPI    C310175  17.234   8.929   6.094 -0.1152 -0.0579 -0.2035
  657PSPI   PO410176  16.546   8.967   6.106 -0.2384 -0.1674 -0.3071
  657PSPI   GL110177  16.379   9.031   6.538  0.0817  0.2514  0.2585
  657PSPI   GL210178  16.140   8.765   6.310 -0.0620  0.6695  0.1725
  657PSPI   C1A10179  16.621   9.125   6.914  0.0867  0.0746 -0.0447
  657PSPI   C2A10180  16.821   9.053   7.215  0.1003  0.0383 -0.1308
  657PSPI   C3A10181  16.673   8.969   7.552 -0.2471  0.0157  0.0417
  657PSPI   C4A10182  16.679   8.542   7.720  0.1607  0.0019  0.0929
  657PSPI   C1B10183  16.398   8.513   6.599  0.1698  0.1376  0.0634
  657PSPI   C2B10184  16.533   8.201   6.866  0.0437 -0.0914  0.0917
  657PSPI   C3B10185  16.578   7.881   7.159 -0.4725  0.0319 -0.0881
  657PSPI   C4B10186  16.549   7.900   7.631  0.0862  0.1115  0.2244
  658PSPI    C110187   3.655   8.774   5.965 -0.0270 -0.0135 -0.0255
  658PSPI    C210188   3.711   8.622   5.599  0.0699 -0.0033 -0.0152
  658PSPI    C310189   3.498   8.418   5.870  0.0571 -0.0429 -0.0549
  658PSPI   PO410190   3.929   8.821   6.002  0.2691  0.0634 -0.3886
  658PSPI   GL110191   4.047   8.790   6.403 -0.1955  0.0590 -0.1063
  658PSPI   GL210192   3.842   8.484   6.353 -0.0777 -0.0309 -0.0644
  658PSPI   C1A10193   3.917   8.865   6.764 -0.0200 -0.3747 -0.1248
  658PSPI   C2A10194   4.051   9.035   7.138 -0.4017  0.1365  0.0474
  658PSPI   C3A10195   4.285   9.126   7.571  0.0350  0.2642 -0.1525
  658PSPI   C4A10196   4.695   9.172   7.744  0.2175  0.3969  0.1144
  658PSPI   C1B10197   3.710   8.353   6.848  0.0880 -0.1327  0.3019
  658PSPI   C2B10198   3.680   8.277   7.223 -0.2206  0.1251 -0.1187
  658PSPI   C3B10199   3.444   8.198   7.593  0.0770  0.0984 -0.0192
  658PSPI   C4B10200   3.057   8.314   7.761 -0.1752 -0.1061 -0.1140
  659PSPI    C110201  15.791  12.483   5.408  0.0733 -0.0458  0.0693
  659PSPI    C210202  15.975  12.371   5.071  0.0985 -0.1205  0.1074
  659PSPI    C310203  15.610  12.535   5.056 -0.0190 -0.3808  0.0636
  659PSPI   PO410204  15.996  12.517   5.616  0.0299  0.1087 -0.0241
  659PSPI   GL110205  16.299  12.650   5.998 -0.0285  0.1580  0.1194
  659PSPI   GL210206  15.973  12.449   6.119  0.0489  0.1986  0.0742
  659PSPI   C1A10207  16.420  12.463   6.429  0.2797  0.0520 -0.0828
  659PSPI   C2A10208  16.355  12.136   6.831  0.0460  0.4142 -0.1858
  659PSPI   C3A10209  16.260  12.104   7.287 -0.0497 -0.3391 -0.1780
  659PSPI   C4A10210  16.224  11.929   7.681  0.2351  0.0740 -0.2134
  659PSPI   C1B10211  15.933  12.636   6.451  0.1594 -0.3432  0.0629
  659PSPI   C2B10212  15.941  12.417   6.899 -0.4625  0.1991 -0.0729
  659PSPI   C3B10213  15.868  12.515   7.295 -0.0586  0.1791 -0.2880
  659PSPI   C4B10214  15.903  12.644   7.717 -0.2404 -0.0963 -0.2629
  660PSPI    C110215  14.988   8.096   6.050  0.0368  0.1867  0.1569
  660PSPI    C210216  15.137   8.192   5.692  0.0919 -0.4498 -0.0024
  660PSPI    C310217  14.747   8.113   5.732  0.0406 -0.1423  0.1332
  660PSPI   PO410218  15.073   8.268   6.255  0.0254  0.1131 -0.1147
  660PSPI   GL110219  14.860   8.575   6.432  0.1319 -0.0125 -0.0215
  660PSPI   GL210220  15.221   8.651   6.523  0.0137 -0.1283  0.0803
  660PSPI   C1A10221  14.713   8.456   6.808 -0.0042 -0.2852 -0.0335
  660PSPI   C2A10222  14.658   8.514   7.263  0.1672 -0.1876  0.3586
  660PSPI   C3A10223  14.469   8.840   7.625  0.0965 -0.4139  0.1339
  660PSPI   C4A10224  14.649   9.129   7.831  0.0274  0.0071 -0.1935
  660PSPI   C1B10225  15.460   8.632   6.864 -0.1645  0.1941 -0.0476
  660PSPI   C2B10226  15.691   8.443   7.164  0.2988  0.1112 -0.1318
  660PSPI   C3B10227  15.573   8.253   7.611 -0.1950  0.0974  0.2911
  660PSPI   C4B10228  15.360   8.112   7.865  0.1723  0.1314  0.2069
  661PSPI    C110229  14.177  12.186   5.390 -0.2554 -0.0751 -0.0331
  661PSPI    C210230  14.093  12.535   5.567  0.1622  0.0335 -0.0385
  661PSPI    C310231  13.825  12.364   5.325 -0.0458  0.3508 -0.0378
  661PSPI   PO410232  14.297  12.018   5.693 -0.0561  0.0871  0.3149
  661PSPI   GL110233  14.417  11.937   6.155  0.2842  0.1591 -0.1984
  661PSPI   GL210234  14.642  11.670   6.172  0.1082 -0.1917 -0.0152
  661PSPI   C1A10235  14.338  12.127   6.590  0.1053 -0.1541  0.1599
  661PSPI   C2A10236  14.244  12.132   7.002  0.2709 -0.1268  0.1416
  661PSPI   C3A10237  14.115  12.033   7.418 -0.4347 -0.2348 -0.2572
  661PSPI   C4A10238  13.910  11.980   7.758 -0.2584 -0.1876 -0.1363
  661PSPI   C1B10239  14.544  11.723   6.705  0.0151 -0.1084  0.1719
  661PSPI   C2B10240  14.545  11.631   7.195  0.4793 -0.1777 -0.0541
  661PSPI   C3B10241  14.519  11.420   7.602  0.4746  0.3288 -0.1024
  661PSPI   C4B10242  14.062  11.162   7.782  0.0277  0.1447 -0.2297
  662PSPI    C110243  13.524  18.386   5.824  0.3265 -0.3447 -0.0724
  662PSPI    C210244  13.675  18.323   6.189  0.0070 -0.1063  0.1058
  662PSPI    C310245  13.414  18.063   6.033  0.1819 -0.2346  0.0235
  662PSPI   PO410246  13.364  18.624   5.860  0.0827  0.2204 -0.2295
  662PSPI   GL110247  12.969  18.850   6.199 -0.1351 -0.0441  0.1140
  662PSPI   GL210248  12.788  19.018   6.458 -0.1172  0.0848  0.1066
  662PSPI   C1A10249  13.347  18.898   6.417  0.2160  0.0529  0.1580
  662PSPI   C2A10250  13.350  18.858   6.966 -0.0327 -0.0634 -0.1463
  662PSPI   C3A10251  13.341  19.004   7.367  0.2231  0.1359 -0.0442
  662PSPI   C4A10252  13.476  18.658   7.713  0.0071 -0.4006 -0.1736
  662PSPI   C1B10253  12.907  18.969   6.841  0.2689 -0.0900  0.0789
  662PSPI   C2B10254  12.821  18.803   7.190 -0.1842  0.0171 -0.0573
  662PSPI   C3B10255  12.850  18.607   7.590  0.5126  0.3607 -0.1320
  662PSPI   C4B10256  12.698  18.543   7.916 -0.2323  0.1445 -0.0111
  663PSPI    C110257  10.411   4.135   5.600 -0.0245  0.0429  0.0274
  663PSPI    C210258  10.664   3.996   5.323 -0.1158  0.0998 -0.0856
  663PSPI    C310259  10.302   3.831   5.363 -0.0244 -0.0494  0.1449
  663PSPI   PO410260  10.557   4.030   5.843 -0.0355  0.1167  0.2322
  663PSPI   GL110261  10.837   3.884   6.258 -0.0293 -0.1484 -0.0774
  663PSPI   GL210262  10.716   3.632   6.216  0.6589  0.2255  0.3550
  663PSPI   C1A10263  11.095   3.806   6.588 -0.0594 -0.2764  0.1224
  663PSPI   C2A10264  10.910   3.712   6.890 -0.1896  0.0505  0.2037
  663PSPI   C3A10265  10.799   3.411   7.328 -0.1806 -0.2009  0.1305
  663PSPI   C4A10266  11.003   3.114   7.633  0.2188 -0.2978  0.1297
  663PSPI   C1B10267  10.558   3.462   6.570 -0.0235 -0.0946  0.4061
  663PSPI   C2B10268  10.644   3.142   6.711 -0.2099 -0.0464 -0.0192
  663PSPI   C3B10269  11.018   3.175   6.913  0.0197 -0.3612  0.0638
  663PSPI   C4B10270  11.257   3.235   7.227  0.3597 -0.0866 -0.1801
  664PSPI    C110271   6.657   8.083   5.840  0.0531 -0.3078  0.0021
  664PSPI    C210272   6.607   7.823   5.540 -0.0579 -0.0177 -0.2369
  664PSPI    C310273   6.380   8.152   5.559 -0.0543 -0.0333  0.1710
  664PSPI   PO410274   6.821   7.980   5.985 -0.2499  0.1331  0.5073
  664PSPI   GL110275   6.832   7.899   6.329  0.1245  0.0102  0.0989
  664PSPI   GL210276   6.972   7.567   6.322  0.1113 -0.0157 -0.0302
  664PSPI   C1A10277   6.747   8.103   6.822 -0.2068 -0.0530  0.0529
  664PSPI   C2A10278   6.712   8.124   7.328 -0.2129 -0.0663  0.0064
  664PSPI   C3A10279   6.474   8.103   7.640 -0.0852 -0.1001 -0.0102
  664PSPI   C4A10280   6.408   8.208   8.016  0.2968  0.0587 -0.0588
  664PSPI   C1B10281   6.746   7.462   6.669 -0.2486  0.0623  0.2799
  664PSPI   C2B10282   6.674   7.296   7.111 -0.0374 -0.1941 -0.1526
  664PSPI   C3B10283   6.929   7.401   7.541  0.0519  0.1266 -0.0774
  664PSPI   C4B10284   7.213   7.491   7.897 -0.0415  0.0665  0.1286
  665PSPI    C110285   9.565  12.031   5.578 -0.2317  0.1678 -0.5242
  665PSPI    C210286   9.884  12.272   5.598  0.0265 -0.1994  0.1030
  665PSPI    C310287   9.515  12.423   5.637  0.1592  0.1415  0.0720
  665PSPI   PO410288   9.552  11.851   5.858  0.0467  0.4324 -0.3164
  665PSPI   GL110289   9.678  11.851   6.311 -0.0903  0.0908 -0.3707
  665PSPI   GL210290   9.311  11.847   6.326 -0.1334  0.0447 -0.0697
  665PSPI   C1A10291   9.934  12.091   6.630 -0.1763  0.1940 -0.0548
  665PSPI   C2A10292  10.070  12.104   7.093  0.1299  0.2800  0.4491
  665PSPI   C3A10293  10.428  11.950   7.358  0.0417  0.1571 -0.3308
  665PSPI   C4A10294  10.695  11.988   7.694 -0.3061 -0.2929 -0.0613
  665PSPI   C1B10295   9.352  11.534   6.733  0.1344  0.0562  0.0774
  665PSPI   C2B10296   9.242  11.606   7.119 -0.0257  0.3375  0.0127
  665PSPI   C3B10297   9.367  11.586   7.580  0.0627  0.0905  0.0068
  665PSPI   C4B10298   9.242  11.652   7.953  0.0958  0.2032  0.0925
  666PSPI    C110299   5.716  10.371   5.832 -0.0522  0.1555 -0.1078
  666PSPI    C210300   6.011  10.642   5.838  0.0407  0.0523  0.0585
  666PSPI    C310301   5.698  10.692   5.594  0.1402  0.2211 -0.0359
  666PSPI   PO410302   5.676  10.317   6.096  0.0801 -0.1765  0.0951
  666PSPI   GL110303   5.597  10.271   6.497 -0.3689  0.0352 -0.4837
  666PSPI   GL210304   5.340  10.122   6.410 -0.0332 -0.1426  0.2166
  666PSPI   C1A10305   5.552  10.053   6.931  0.1154 -0.1684 -0.3140
  666PSPI   C2A10306   5.616  10.224   7.336  0.2250  0.4167  0.1223
  666PSPI   C3A10307   5.669   9.955   7.693  0.1891  0.3179 -0.1501
  666PSPI   C4A10308   5.967   9.648   7.849 -0.1348 -0.1816  0.0399
  666PSPI   C1B10309   5.029  10.156   6.733  0.2031  0.0930  0.1725
  666PSPI   C2B10310   4.857  10.401   7.104 -0.2895  0.0146  0.0511
  666PSPI   C3B10311   4.769  10.771   7.360 -0.0639  0.2239  0.3962
  666PSPI   C4B10312   4.837  11.177   7.579  0.2307  0.0487 -0.3811
  667PSPI    C110313  13.015   3.813   5.516  0.0736  0.0442  0.0232
  667PSPI    C210314  13.292   3.569   5.669  0.0568  0.0502  0.0630
  667PSPI    C310315  13.193   3.541   5.283  0.2069  0.1354  0.0172
  667PSPI   PO410316  12.823   3.747   5.677 -0.3796 -0.0248 -0.0676
  667PSPI   GL110317  12.893   3.613   6.138  0.0779  0.0002  0.0958
  667PSPI   GL210318  12.558   3.497   6.105 -0.3349 -0.0032 -0.2505
  667PSPI   C1A10319  12.691   3.517   6.655  0.1381  0.0654 -0.2685
  667PSPI   C2A10320  12.689   3.539   7.042 -0.1380 -0.1463 -0.1571
  667PSPI   C3A10321  12.931   3.680   7.325  0.0737  0.0817  0.0898
  667PSPI   C4A10322  12.990   3.779   7.721  0.1964 -0.0287  0.3422
  667PSPI   C1B10323  12.262   3.349   6.411 -0.0232 -0.2225 -0.0107
  667PSPI   C2B10324  11.981   3.059   6.712  0.0004  0.0769 -0.2066
  667PSPI   C3B10325  11.800   3.125   7.101 -0.1528  0.0216 -0.1198
  667PSPI   C4B10326  11.801   3.276   7.471 -0.1949 -0.0744 -0.0406
  668PSPI    C110327   9.437   2.632   5.480 -0.1132 -0.1130  0.3386
  668PSPI    C210328   9.461   2.235   5.443 -0.2690 -0.0872 -0.0982
  668PSPI    C310329   9.665   2.472   5.193 -0.1808  0.1104  0.1569
  668PSPI   PO410330   9.213   2.574   5.721 -0.0724  0.1837 -0.0094
  668PSPI   GL110331   9.268   2.641   6.162  0.0892 -0.1456  0.0120
  668PSPI   GL210332   9.429   2.840   6.356  0.1478 -0.0401 -0.3335
  668PSPI   C1A10333   9.033   2.576   6.577 -0.4457 -0.2045  0.0646
  668PSPI   C2A10334   8.896   2.234   6.859 -0.0138 -0.0833  0.0885
  668PSPI   C3A10335   9.062   1.857   6.996 -0.0332  0.0037 -0.2772
  668PSPI   C4A10336   9.116   1.381   7.105 -0.0237 -0.1910 -0.1454
  668PSPI   C1B10337   9.521   2.632   6.818 -0.1842  0.2110  0.0375
  668PSPI   C2B10338   9.270   2.506   7.105 -0.0452  0.0630 -0.4130
  668PSPI   C3B10339   8.914   2.761   7.022  0.0191 -0.1571 -0.3198
  668PSPI   C4B10340   8.647   2.756   7.288 -0.0539  0.1252  0.3408
  669PSPI    C110341   1.696   2.261   5.341 -0.0611  0.1381 -0.1542
  669PSPI    C210342   2.037   2.053   5.350 -0.1107  0.0657  0.3002
  669PSPI    C310343   1.775   1.994   5.054  0.2494  0.0965 -0.0336
  669PSPI   PO410344   1.795   2.414   5.642  0.0116 -0.2014 -0.0819
  669PSPI   GL110345   1.922   2.478   5.951 -0.0536  0.0919 -0.0854
  669PSPI   GL210346   1.995   2.849   5.960 -0.1516  0.4188  0.0748
  669PSPI   C1A10347   2.256   2.552   6.202 -0.1880  0.2017  0.1610
  669PSPI   C2A10348   2.400   2.446   6.634  0.0292  0.0898  0.1534
  669PSPI   C3A10349   2.252   2.174   6.927  0.0751 -0.1074 -0.0640
  669PSPI   C4A10350   2.225   2.319   7.436  0.0973  0.3206  0.0839
  669PSPI   C1B10351   2.106   3.010   6.346 -0.1715  0.0510 -0.0734
  669PSPI   C2B10352   1.833   3.002   6.746  0.2127  0.1115 -0.1785
  669PSPI   C3B10353   1.775   2.992   7.278  0.0469 -0.2129  0.1465
  669PSPI   C4B10354   1.801   3.293   7.605 -0.0900  0.3235  0.0429
  670PSPI    C110355   7.849   4.143   5.930 -0.0152 -0.2612 -0.0247
  670PSPI    C210356   7.666   4.297   5.609 -0.1827 -0.0352  0.1760
  670PSPI    C310357   8.036   4.150   5.576 -0.2112 -0.0456 -0.1271
  670PSPI   PO410358   7.680   3.893   6.042  0.0970  0.2098 -0.0478
  670PSPI   GL110359   7.459   3.933   6.411 -0.0838 -0.1073 -0.2169
  670PSPI   GL210360   7.211   4.002   6.455 -0.1454 -0.0718  0.2299
  670PSPI   C1A10361   7.515   3.772   6.793 -0.1938 -0.2565 -0.2414
  670PSPI   C2A10362   7.251   3.824   7.083  0.3380 -0.0563  0.0166
  670PSPI   C3A10363   7.137   3.708   7.471 -0.0900 -0.2400 -0.0940
  670PSPI   C4A10364   6.902   3.573   7.865 -0.0319 -0.1362 -0.1227
  670PSPI   C1B10365   7.308   4.286   6.786  0.5335 -0.1180 -0.0010
  670PSPI   C2B10366   7.213   4.382   7.316  0.0540 -0.0358  0.2556
  670PSPI   C3B10367   7.534   4.677   7.493 -0.0083 -0.0191 -0.1909
  670PSPI   C4B10368   7.608   4.834   7.943 -0.4524 -0.0364  0.1526
  671PSPI    C110369   4.611   9.487   5.785 -0.1362 -0.0124  0.0857
  671PSPI    C210370   4.698   9.108   5.691 -0.1905 -0.0122  0.0344
  671PSPI    C310371   4.760   9.400   5.424 -0.0300  0.0319  0.1184
  671PSPI   PO410372   4.703   9.504   6.012  0.1328 -0.3147  0.1894
  671PSPI   GL110373   4.695   9.136   6.195  0.1090  0.0841  0.1149
  671PSPI   GL210374   4.428   9.106   6.334  0.1810 -0.2554  0.0358
  671PSPI   C1A10375   4.765   9.264   6.650  0.2167 -0.1116 -0.0386
  671PSPI   C2A10376   4.749   9.444   7.029 -0.0247 -0.0839 -0.0123
  671PSPI   C3A10377   4.881   9.792   7.187 -0.3483 -0.0513 -0.0634
  671PSPI   C4A10378   5.139  10.113   7.400  0.2649 -0.3176 -0.0996
  671PSPI   C1B10379   4.172   9.296   6.647 -0.4726 -0.0874  0.5474
  671PSPI   C2B10380   4.280   9.499   6.998  0.2772 -0.2123  0.0702
  671PSPI   C3B10381   4.378   9.602   7.469 -0.0152 -0.0307 -0.0850
  671PSPI   C4B10382   4.536   9.763   7.770  0.2654  0.0620  0.1576
  672PSPI    C110383  16.344  17.540   5.495  0.1541  0.0534 -0.1493
  672PSPI    C210384  16.043  17.725   5.306 -0.1774 -0.1841  0.1342
  672PSPI    C310385  16.130  17.344   5.220 -0.2263 -0.2434  0.3407
  672PSPI   PO410386  16.397  17.705   5.661  0.0152  0.1361  0.1280
  672PSPI   GL110387  16.492  17.830   6.040 -0.0584 -0.1425 -0.0826
  672PSPI   GL210388  16.746  18.048   6.053 -0.1333 -0.0030 -0.1681
  672PSPI   C1A10389  16.713  17.709   6.407 -0.1145  0.0001 -0.1934
  672PSPI   C2A10390  16.957  17.674   6.853 -0.1273 -0.0988  0.0119
  672PSPI   C3A10391  16.993  17.187   6.897 -0.0341  0.0729  0.0191
  672PSPI   C4A10392  17.266  16.973   7.142  0.0486 -0.0660 -0.0145
  672PSPI   C1B10393  16.465  18.190   6.432 -0.0242 -0.0507 -0.0658
  672PSPI   C2B10394  16.504  17.943   6.824 -0.2041 -0.0568  0.1567
  672PSPI   C3B10395  16.181  17.702   6.993 -0.1044  0.1335 -0.1580
  672PSPI   C4B10396  15.942  17.251   7.077 -0.2085 -0.1809 -0.2117
  673PSPI    C110397   8.984  15.889   5.818  0.0154  0.2152 -0.1266
  673PSPI    C210398   8.818  16.181   5.601  0.1320  0.2430 -0.1794
  673PSPI    C310399   8.957  15.852   5.421 -0.0738  0.1168 -0.1116
  673PSPI   PO410400   8.759  16.005   6.097 -0.1002  0.1776  0.3037
  673PSPI   GL110401   8.558  16.131   6.471  0.1012 -0.0419  0.4519
  673PSPI   GL210402   8.415  15.864   6.522 -0.2520 -0.1477 -0.0288
  673PSPI   C1A10403   8.497  16.218   6.916  0.2694 -0.0135  0.0582
  673PSPI   C2A10404   8.503  16.232   7.350  0.1473  0.1281 -0.1740
  673PSPI   C3A10405   8.569  15.942   7.796  0.1939  0.0619  0.3640
  673PSPI   C4A10406   8.535  15.800   8.198 -0.0724 -0.3415 -0.3372
  673PSPI   C1B10407   8.273  15.662   6.902 -0.1764  0.1078 -0.4463
  673PSPI   C2B10408   8.410  15.667   7.343 -0.2984 -0.1488  0.4161
  673PSPI   C3B10409   8.570  15.435   7.741 -0.0977 -0.0780 -0.0337
  673PSPI   C4B10410   8.435  15.321   8.242 -0.0814 -0.0217  0.1517
  674POPI    C110411  17.983  15.974   5.421  0.2705  0.1633  0.0564
  674POPI    C210412  18.003  16.287   5.173  0.3223  0.1246  0.0118
  674POPI    C310413  17.976  15.917   5.025  0.0090  0.1240  0.0651
  674POPI   PO410414  17.856  16.072   5.601 -0.0837  0.2133 -0.4147
  674POPI   GL110415  17.634  15.991   5.999  0.2762  0.2105 -0.4674
  674POPI   GL210416  17.459  15.788   5.899  0.4056 -0.0987 -0.1689
  674POPI   C1A10417  17.604  15.811   6.461  0.2433  0.1964 -0.3526
  674POPI   D2A10418  17.240  15.915   6.759  0.0731 -0.5997 -0.1438
  674POPI   C3A10419  17.499  15.860   7.183 -0.0304 -0.0813  0.1485
  674POPI   C4A10420  17.732  15.479   7.313 -0.0435 -0.0426  0.1492
  674POPI   C1B10421  17.138  15.941   6.234 -0.0844  0.1079  0.0832
  674POPI   C2B10422  16.985  16.308   6.471  0.0047 -0.1032 -0.1292
  674POPI   C3B10423  17.259  16.570   6.807  0.0737 -0.0862 -0.0902
  674POPI   C4B10424  17.715  16.559   6.913 -0.2585 -0.0583 -0.0703
  675POPI    C110425  15.420   3.993   5.754  0.0973  0.1197 -0.0514
  675POPI    C210426  15.547   3.784   5.438  0.1105  0.2123 -0.1077
  675POPI    C310427  15.382   4.144   5.385 -0.1711  0.0960 -0.0354
  675POPI   PO410428  15.570   4.076   6.005 -0.0041  0.0653  0.0981
  675POPI   GL110429  15.908   3.866   6.079  0.1748  0.0493 -0.0846
  675POPI   GL210430  16.010   3.969   6.417 -0.0442  0.1584  0.0073
  675POPI   C1A10431  16.373   3.725   6.184  0.0861  0.0266 -0.2010
  675POPI   D2A10432  16.668   3.666   6.563 -0.0644  0.1451 -0.0363
  675POPI   C3A10433  17.037   3.759   6.449  0.0068  0.2217  0.1356
  675POPI   C4A10434  17.320   3.568   6.221  0.3041 -0.0252  0.0234
  675POPI   C1B10435  15.759   3.612   6.582  0.1197  0.2015  0.3206
  675POPI   C2B10436  15.775   3.327   6.816 -0.1480 -0.3467 -0.1793
  675POPI   C3B10437  15.672   3.001   6.961 -0.0478  0.1672  0.1387
  675POPI   C4B10438  15.691   2.491   6.963  0.2792  0.0163 -0.2005
  676POPI    C110439  16.419   2.047   6.021  0.0954  0.0970  0.0834
  676POPI    C210440  16.024   2.097   6.058  0.0890  0.0879  0.0274
  676POPI    C310441  16.265   2.416   6.048  0.0890  0.0912  0.1277
  676POPI   PO410442  16.435   1.831   5.827 -0.2065  0.0735  0.1584
  676POPI   GL110443  16.168   1.350   5.890  0.0695  0.0597  0.0848
  676POPI   GL210444  16.175   1.581   6.174 -0.1306  0.1099 -0.2476
  676POPI   C1A10445  15.914   1.226   6.183 -0.0008  0.1685 -0.2127
  676POPI   D2A10446  15.648   1.031   6.477  0.1091 -0.2818 -0.3639
  676POPI   C3A10447  15.690   1.167   6.849 -0.1514  0.4086 -0.3910
  676POPI   C4A10448  15.898   1.411   7.219 -0.0461  0.0314  0.0725
  676POPI   C1B10449  16.205   1.247   6.563 -0.0521 -0.0247 -0.0526
  676POPI   C2B10450  16.166   1.102   6.939 -0.0887 -0.2625 -0.0913
  676POPI   C3B10451  16.361   1.231   7.313 -0.0989 -0.2192  0.3542
  676POPI   C4B10452  16.260   1.428   7.729 -0.4626  0.0695 -0.2091
  677POPI    C110453   1.722   1.086   5.067 -0.0530 -0.1432 -0.2156
  677POPI    C210454   1.967   1.376   4.942 -0.1753 -0.0945 -0.3448
  677POPI    C310455   2.103   1.002   4.979  0.0260  0.0065 -0.0245
  677POPI   PO410456   1.582   1.210   5.251 -0.0255 -0.1606  0.0423
  677POPI   GL110457   1.901   1.225   5.651  0.2611 -0.4703 -0.0729
  677POPI   GL210458   2.217   1.515   5.714 -0.0693  0.2111  0.1977
  677POPI   C1A10459   1.714   1.525   6.001  0.2249 -0.1173 -0.3590
  677POPI   D2A10460   1.472   1.826   6.222  0.0546 -0.1417 -0.0571
  677POPI   C3A10461   1.420   1.674   6.644 -0.0863 -0.2730 -0.0676
  677POPI   C4A10462   1.288   1.517   7.011  0.0246 -0.0575 -0.1889
  677POPI   C1B10463   2.131   1.306   6.198 -0.1630  0.0238 -0.3543
  677POPI   C2B10464   1.804   1.283   6.520 -0.1750  0.0151 -0.2451
  677POPI   C3B10465   1.780   1.208   6.999 -0.3623 -0.2393 -0.1537
  677POPI   C4B10466   1.667   1.626   7.239 -0.1825  0.1909 -0.3885
  678POPI    C110467  14.451   2.354   5.385  0.1400  0.2434  0.1090
  678POPI    C210468  14.375   2.326   4.993  0.1667  0.2270  0.1049
  678POPI    C310469  14.251   2.646   5.199 -0.1372  0.0842  0.1504
  678POPI   PO410470  14.286   2.099   5.516  0.2382  0.2450  0.3056
  678POPI   GL110471  14.524   1.863   5.907  0.2812 -0.1159 -0.0599
  678POPI   GL210472  14.467   1.954   6.229  0.1694  0.1713  0.4028
  678POPI   C1A10473  14.488   1.389   6.093  0.4154  0.0216 -0.1977
  678POPI   D2A10474  14.752   1.136   6.070  0.0700  0.2592  0.0318
  678POPI   C3A10475  14.823   1.178   6.413  0.0619  0.1251  0.3772
  678POPI   C4A10476  14.841   1.349   6.763 -0.0778  0.2270  0.0375
  678POPI   C1B10477  14.050   1.606   6.229 -0.0900 -0.0929 -0.1381
  678POPI   C2B10478  13.939   1.228   6.398  0.1221 -0.2094 -0.1168
  678POPI   C3B10479  13.920   1.017   6.841 -0.1330  0.2005  0.2461
  678POPI   C4B10480  13.647   0.817   7.113 -0.0565 -0.1810  0.1329
  679POPI    C110481  13.471  15.173   5.533  0.3573  0.0477 -0.0468
  679POPI    C210482  13.234  15.368   5.276  0.3405  0.1357  0.0353
  679POPI    C310483  13.278  14.972   5.246  0.2128  0.1241 -0.0040
  679POPI   PO410484  13.581  15.307   5.741 -0.2022 -0.4253  0.1935
  679POPI   GL110485  13.733  15.426   6.034 -0.1206 -0.1082  0.1790
  679POPI   GL210486  13.859  15.629   6.240 -0.1790 -0.1034 -0.2314
  679POPI   C1A10487  13.686  15.211   6.413 -0.2308 -0.0181 -0.2902
  679POPI   D2A10488  13.667  15.125   6.828 -0.1323  0.0201  0.1278
  679POPI   C3A10489  13.603  14.810   6.965 -0.2875 -0.1265 -0.0111
  679POPI   C4A10490  13.632  14.583   7.205  0.1003  0.2804 -0.1522
  679POPI   C1B10491  13.798  15.830   6.613 -0.0672  0.1137  0.1546
  679POPI   C2B10492  13.662  15.635   6.932  0.0988  0.0281  0.3083
  679POPI   C3B10493  13.673  15.285   7.322  0.0075  0.2663 -0.1845
  679POPI   C4B10494  13.602  15.367   7.701 -0.1258 -0.0993 -0.2942
  680POPI    C110495  12.594  10.173   5.741  0.0481  0.3245  0.0104
  680POPI    C210496  12.907  10.091   5.505  0.0479 -0.0644  0.1375
  680POPI    C310497  12.544  10.145   5.345  0.1212  0.0783  0.0167
  680POPI   PO410498  12.709  10.090   5.963 -0.1277 -0.1626  0.1740
  680POPI   GL110499  12.862  10.185   6.387  0.2672 -0.1319  0.0154
  680POPI   GL210500  13.135  10.044   6.444 -0.0203  0.0604  0.0026
  680POPI   C1A10501  12.665  10.295   6.863  0.2310  0.2834 -0.1249
  680POPI   D2A10502  12.441  10.561   7.301  0.1423 -0.1525 -0.3250
  680POPI   C3A10503  12.733  10.839   7.603  0.0046  0.3418 -0.1687
  680POPI   C4A10504  12.940  10.830   7.910 -0.2702  0.0445  0.2885
  680POPI   C1B10505  13.065   9.861   6.795  0.1589 -0.0635  0.3541
  680POPI   C2B10506  12.802   9.762   7.270 -0.0703  0.0717 -0.1478
  680POPI   C3B10507  12.828   9.783   7.714  0.1842 -0.0668 -0.0685
  680POPI   C4B10508  13.006   9.829   8.102  0.0201 -0.0989  0.4128
  681POPI    C110509   1.538  12.343   5.685 -0.0429  0.0783  0.0259
  681POPI    C210510   1.281  12.233   5.398 -0.1191 -0.1714  0.1867
  681POPI    C310511   1.399  12.614   5.426 -0.0663 -0.1547 -0.2102
  681POPI   PO410512   1.427  12.043   5.853 -0.2478 -0.3461  0.2424
  681POPI   GL110513   1.574  11.813   6.174  0.2098 -0.0890 -0.1398
  681POPI   GL210514   1.735  12.097   6.309 -0.0811  0.3327 -0.0793
  681POPI   C1A10515   1.426  11.748   6.538  0.0367  0.2757  0.2541
  681POPI   D2A10516   1.134  11.888   6.832  0.1833  0.4059 -0.0579
  681POPI   C3A10517   1.096  11.937   7.242  0.0468 -0.3550  0.3391
  681POPI   C4A10518   1.085  11.685   7.667  0.0033 -0.0001  0.0214
  681POPI   C1B10519   1.874  11.829   6.564 -0.2290  0.2785  0.0323
  681POPI   C2B10520   2.064  11.847   6.925 -0.1147 -0.1197 -0.2994
  681POPI   C3B10521   2.440  12.021   7.204 -0.0979  0.0482  0.1723
  681POPI   C4B10522   2.879  11.989   7.499  0.1637  0.0233 -0.0301
  682POPI    C110523   3.013   2.526   5.417 -0.2190  0.0748  0.0291
  682POPI    C210524   3.073   2.723   5.074 -0.0136  0.0192  0.0313
  682POPI    C310525   2.897   2.364   5.070 -0.1208  0.0715 -0.0026
  682POPI   PO410526   2.821   2.644   5.562  0.3023 -0.1064  0.0122
  682POPI   GL110527   2.698   2.641   5.905  0.0086  0.1481 -0.1396
  682POPI   GL210528   2.531   2.962   6.012 -0.0317 -0.1872  0.1342
  682POPI   C1A10529   2.772   2.384   6.309 -0.2993 -0.0124  0.2230
  682POPI   D2A10530   3.194   2.188   6.419  0.1023 -0.2220  0.0441
  682POPI   C3A10531   3.441   1.834   6.351 -0.1454 -0.1350  0.1180
  682POPI   C4A10532   3.318   1.541   6.663 -0.1727 -0.2292 -0.0370
  682POPI   C1B10533   2.581   2.880   6.302 -0.0033 -0.2861 -0.1541
  682POPI   C2B10534   2.402   2.937   6.706  0.3877  0.0740 -0.3327
  682POPI   C3B10535   2.193   2.703   7.111  0.2752  0.1004 -0.1128
  682POPI   C4B10536   2.124   2.790   7.584  0.2894 -0.1063  0.4434
  683POPI    C110537   0.860   4.825   5.605  0.1718  0.3522  0.0534
  683POPI    C210538   1.199   4.646   5.490 -0.0710 -0.0651 -0.0308
  683POPI    C310539   1.103   5.006   5.344  0.2466 -0.0237 -0.1437
  683POPI   PO410540   0.834   4.701   5.908  0.0204  0.0974 -0.0837
  683POPI   GL110541   1.121   4.777   6.385  0.0651  0.1663  0.2102
  683POPI   GL210542   1.339   4.998   6.489  0.1818 -0.1993 -0.0412
  683POPI   C1A10543   0.784   4.884   6.600 -0.3661  0.1915  0.4369
  683POPI   D2A10544   0.636   5.003   6.908  0.1256 -0.3054 -0.2264
  683POPI   C3A10545   0.560   4.857   7.339 -0.0320 -0.0053  0.1951
  683POPI   C4A10546   0.466   4.634   7.734  0.2863 -0.0707  0.0210
  683POPI   C1B10547   1.171   4.928   6.936 -0.1738  0.1199  0.1060
  683POPI   C2B10548   1.075   5.180   7.249  0.0427 -0.1214 -0.0363
  683POPI   C3B10549   0.871   5.392   7.604 -0.0065  0.0723  0.0769
  683POPI   C4B10550   0.685   5.769   7.697 -0.0670  0.0608  0.0164
  684POPI    C110551  11.921   8.434   5.721 -0.0465  0.0691 -0.0568
  684POPI    C210552  12.027   8.820   5.706  0.1644  0.0232  0.1829
  684POPI    C310553  12.035   8.597   5.373  0.1786  0.1894  0.0708
  684POPI   PO410554  12.086   8.339   6.065 -0.1512 -0.0270 -0.0744
  684POPI   GL110555  11.974   8.597   6.522 -0.2121 -0.0214  0.0421
  684POPI   GL210556  12.286   8.470   6.605  0.1867  0.1399  0.1883
  684POPI   C1A10557  12.064   9.010   6.658  0.1833  0.0869  0.1610
  684POPI   D2A10558  11.993   9.023   6.993 -0.0613 -0.2606  0.1675
  684POPI   C3A10559  11.649   8.867   7.371 -0.0639  0.0351  0.3468
  684POPI   C4A10560  11.256   8.823   7.455  0.1374 -0.3967 -0.1237
  684POPI   C1B10561  12.359   8.566   6.988  0.3870 -0.1389 -0.0680
  684POPI   C2B10562  12.734   8.452   7.379  0.1894  0.2503  0.0078
  684POPI   C3B10563  12.758   8.163   7.701 -0.0092 -0.1675  0.2008
  684POPI   C4B10564  12.875   8.007   8.070 -0.2762 -0.0580 -0.1090
  685POPI    C110565   5.912  11.492   5.648 -0.2402 -0.0157 -0.0256
  685POPI    C210566   5.691  11.188   5.786 -0.3247 -0.1089 -0.3582
  685POPI    C310567   5.983  11.119   5.522  0.0087  0.0332 -0.0359
  685POPI   PO410568   5.755  11.743   5.698  0.2715 -0.0179 -0.4176
  685POPI   GL110569   5.985  11.966   5.855  0.1551  0.1264  0.0463
  685POPI   GL210570   6.232  11.725   5.963  0.2452 -0.5286 -0.1521
  685POPI   C1A10571   6.167  12.223   6.247  0.1243 -0.0099  0.1305
  685POPI   D2A10572   6.146  12.117   6.570  0.0259 -0.0109 -0.1337
  685POPI   C3A10573   5.822  11.902   6.810  0.3553  0.1496  0.0210
  685POPI   C4A10574   5.444  11.540   6.737 -0.0009 -0.0221 -0.0205
  685POPI   C1B10575   6.478  11.805   6.226 -0.2285  0.0967  0.2586
  685POPI   C2B10576   6.680  12.053   6.381 -0.4352  0.1597  0.0116
  685POPI   C3B10577   6.675  12.324   6.806  0.0326 -0.2650 -0.1840
  685POPI   C4B10578   7.092  12.451   7.072  0.0458 -0.2867 -0.2267
  686POPI    C110579  11.792  11.598   6.018  0.0001 -0.2335  0.0065
  686POPI    C210580  11.973  11.668   5.668 -0.1356  0.2314  0.0222
  686POPI    C310581  11.590  11.554   5.676 -0.0447 -0.0854  0.0132
  686POPI   PO410582  11.946  11.813   6.213  0.2520  0.3224  0.0479
  686POPI   GL110583  12.259  11.738   6.566 -0.1584  0.0441 -0.1658
  686POPI   GL210584  12.589  11.789   6.386 -0.4240 -0.4756 -0.2235
  686POPI   C1A10585  12.310  11.688   6.975 -0.1764  0.1632 -0.2729
  686POPI   D2A10586  12.589  11.882   7.262  0.1385  0.2689 -0.0115
  686POPI   C3A10587  13.012  11.841   7.336  0.3823 -0.0044 -0.0491
  686POPI   C4A10588  13.404  11.935   7.691  0.1752 -0.0180  0.0630
  686POPI   C1B10589  12.838  11.616   6.749 -0.2513  0.1242 -0.1466
  686POPI   C2B10590  12.646  11.399   7.041  0.0806  0.2888  0.3091
  686POPI   C3B10591  12.438  11.435   7.507 -0.1047  0.0337  0.1498
  686POPI   C4B10592  12.663  11.746   7.846 -0.1112  0.5843  0.1679
  687POPI    C110593  17.241   1.762   5.410 -0.0601 -0.1853 -0.3460
  687POPI    C210594  17.426   1.931   5.098  0.0221  0.0741 -0.1606
  687POPI    C310595  17.089   1.723   5.042 -0.0431  0.2407 -0.4033
  687POPI   PO410596  17.248   1.941   5.620 -0.1557 -0.2957 -0.0749
  687POPI   GL110597  17.036   2.005   5.894 -0.3164 -0.0634 -0.3434
  687POPI   GL210598  17.294   2.264   6.067 -0.0301 -0.1996 -0.0240
  687POPI   C1A10599  16.884   2.044   6.246  0.0075  0.1547 -0.0182
  687POPI   D2A10600  16.441   1.930   6.516 -0.1377  0.0313  0.0654
  687POPI   C3A10601  16.494   2.086   6.902  0.1261  0.1284 -0.0918
  687POPI   C4A10602  16.550   2.091   7.258  0.0320  0.2514 -0.1720
  687POPI   C1B10603  17.067   2.389   6.544 -0.1577  0.1563  0.0925
  687POPI   C2B10604  17.145   2.235   6.907  0.0965 -0.2110  0.2655
  687POPI   C3B10605  17.061   2.213   7.347  0.2373 -0.2124  0.0880
  687POPI   C4B10606  16.986   2.040   7.728  0.2418  0.0700 -0.0584
  688POPI    C110607  13.504   9.470   5.993  0.0686 -0.0103  0.0687
  688POPI    C210608  13.233   9.180   5.944  0.0105  0.0364  0.1129
  688POPI    C310609  13.622   9.089   5.966  0.0569  0.0218 -0.5657
  688POPI   PO410610  13.411   9.646   6.278  0.2438  0.0662  0.0110
  688POPI   GL110611  13.547   9.929   6.708 -0.0104 -0.0686 -0.2029
  688POPI   GL210612  13.899   9.950   6.553 -0.1454 -0.1627 -0.1887
  688POPI   C1A10613  13.411   9.937   7.154  0.1447  0.5100 -0.1227
  688POPI   D2A10614  13.556  10.095   7.536  0.2582 -0.0128 -0.0280
  688POPI   C3A10615  13.855  10.285   7.697  0.2414  0.1334 -0.4442
  688POPI   C4A10616  14.047  10.602   7.726 -0.0382  0.2594  0.0650
  688POPI   C1B10617  14.048   9.934   6.839  0.0030  0.5754 -0.1191
  688POPI   C2B10618  14.152   9.570   7.053 -0.0897  0.2288  0.3054
  688POPI   C3B10619  14.336   9.417   7.378  0.1098 -0.0434 -0.2739
  688POPI   C4B10620  14.194   9.316   7.891 -0.0354 -0.1706 -0.3047
  689POPI    C110621  16.862  15.498   5.489  0.0880 -0.0278 -0.0272
  689POPI    C210622  17.124  15.583   5.198 -0.0613 -0.2063 -0.2157
  689POPI    C310623  16.762  15.438   5.106 -0.0650 -0.3813  0.0648
  689POPI   PO410624  16.949  15.477   5.693 -0.1459 -0.0815 -0.0207
  689POPI   GL110625  16.868  15.498   6.080 -0.2097 -0.2504  0.0921
  689POPI   GL210626  16.628  15.270   6.028  0.1113 -0.0367  0.2123
  689POPI   C1A10627  16.648  15.846   6.249 -0.0223 -0.2290 -0.1678
  689POPI   D2A10628  16.552  16.131   6.633  0.5806  0.1890 -0.0055
  689POPI   C3A10629  16.868  16.210   6.977  0.1070 -0.0025  0.3158
  689POPI   C4A10630  16.877  16.223   7.392 -0.1871  0.1569  0.1595
  689POPI   C1B10631  16.427  15.435   6.323  0.0124 -0.0811 -0.1444
  689POPI   C2B10632  16.349  15.383   6.809  0.1671  0.0839  0.1020
  689POPI   C3B10633  16.466  15.270   7.226 -0.1739 -0.2686 -0.1940
  689POPI   C4B10634  16.553  15.554   7.600 -0.0809  0.1605 -0.0862
  690POPI    C110635  15.242   6.081   5.392  0.2857  0.0451 -0.0422
  690POPI    C210636  15.240   6.479   5.426 -0.1265  0.0422  0.0141
  690POPI    C310637  15.273   6.310   5.065 -0.1009  0.1292 -0.0245
  690POPI   PO410638  15.322   5.983   5.611  0.1095 -0.2168 -0.2733
  690POPI   GL110639  15.269   6.189   6.022  0.2121  0.2721  0.1843
  690POPI   GL210640  15.555   6.156   6.126  0.1533 -0.0690  0.2157
  690POPI   C1A10641  15.055   6.020   6.229 -0.0677  0.1103  0.1908
  690POPI   D2A10642  14.901   6.100   6.557 -0.3266 -0.0313 -0.2215
  690POPI   C3A10643  14.636   5.790   6.855  0.0310  0.3164 -0.0695
  690POPI   C4A10644  14.795   5.405   7.004 -0.2076  0.1994  0.1301
  690POPI   C1B10645  15.648   6.038   6.483 -0.1098 -0.0503  0.0949
  690POPI   C2B10646  15.753   6.076   7.020 -0.2271  0.2558  0.1384
  690POPI   C3B10647  15.981   5.907   7.405 -0.3789  0.0546 -0.0310
  690POPI   C4B10648  16.193   5.627   7.734 -0.3215 -0.4306 -0.1607
  691POPI    C110649  13.355  16.229   5.433 -0.1036  0.1228 -0.0057
  691POPI    C210650  13.310  15.851   5.310  0.1192  0.0763  0.0528
  691POPI    C310651  13.562  16.096   5.118  0.0032  0.1846  0.0379
  691POPI   PO410652  13.474  16.282   5.692 -0.1549  0.0645 -0.4046
  691POPI   GL110653  13.423  16.673   5.930 -0.0347 -0.2151 -0.0875
  691POPI   GL210654  13.274  16.805   6.291  0.1070  0.0146 -0.2169
  691POPI   C1A10655  13.748  16.793   6.332 -0.2217 -0.0524 -0.0611
  691POPI   D2A10656  13.590  17.054   6.699 -0.2057  0.3405 -0.3051
  691POPI   C3A10657  14.004  17.071   6.847  0.2048  0.0984 -0.0702
  691POPI   C4A10658  14.397  16.949   6.785 -0.2316  0.0147  0.3615
  691POPI   C1B10659  13.170  16.722   6.583 -0.0402  0.0565 -0.0052
  691POPI   C2B10660  13.141  16.917   6.943  0.0215 -0.4130 -0.3579
  691POPI   C3B10661  13.094  16.815   7.281 -0.1013  0.1419  0.1547
  691POPI   C4B10662  13.185  17.102   7.554 -0.1314  0.2176  0.3808
  692POPI    C110663  12.482   1.685   5.755  0.1625 -0.1483 -0.0936
  692POPI    C210664  12.233   1.813   5.469  0.0709 -0.0668  0.0213
  692POPI    C310665  12.529   1.559   5.378  0.0643 -0.0144 -0.1517
  692POPI   PO410666  12.417   1.601   5.948 -0.2774 -0.3801  0.0084
  692POPI   GL110667  12.217   1.240   6.198  0.1577  0.1305 -0.1876
  692POPI   GL210668  12.240   0.926   6.378  0.2245 -0.2407  0.3318
  692POPI   C1A10669  12.146   1.531   6.583 -0.3927  0.1467  0.1120
  692POPI   D2A10670  12.418   1.786   6.809  0.2149 -0.1505  0.2342
  692POPI   C3A10671  12.434   2.108   7.065  0.1507  0.0524  0.0447
  692POPI   C4A10672  12.667   2.354   7.397 -0.0758 -0.0402 -0.0747
  692POPI   C1B10673  12.282   1.030   6.709 -0.0625 -0.0882 -0.6129
  692POPI   C2B10674  12.267   1.315   7.085 -0.0546  0.1393  0.5520
  692POPI   C3B10675  12.289   1.677   7.303  0.1928  0.1641  0.2156
  692POPI   C4B10676  12.310   2.033   7.545  0.1145  0.1239  0.1088
  693POPI    C110677   8.017   6.774   5.778  0.0102  0.1020  0.1189
  693POPI    C210678   8.155   7.105   5.601  0.0640 -0.0506 -0.1290
  693POPI    C310679   8.127   6.764   5.394 -0.2958 -0.1243  0.0330
  693POPI   PO410680   7.933   6.901   6.022 -0.1522  0.1105  0.3491
  693POPI   GL110681   8.104   6.760   6.399 -0.0440 -0.0143  0.0890
  693POPI   GL210682   8.332   6.979   6.585 -0.2727 -0.2083  0.2466
  693POPI   C1A10683   8.002   6.736   6.818  0.1609 -0.2394 -0.3141
  693POPI   D2A10684   7.975   6.890   7.272  0.0942  0.3067 -0.0883
  693POPI   C3A10685   7.866   7.231   7.399 -0.1115  0.1591 -0.1084
  693POPI   C4A10686   7.947   7.635   7.618  0.2432 -0.0097  0.1889
  693POPI   C1B10687   8.469   6.909   6.986 -0.1294 -0.2431 -0.0401
  693POPI   C2B10688   8.448   6.933   7.442 -0.0574 -0.3186 -0.2389
  693POPI   C3B10689   8.478   6.839   7.781  0.0983  0.0814  0.0279
  693POPI   C4B10690   8.474   6.583   8.015 -0.2630 -0.1382  0.1407
  694POPI    C110691  15.061  15.270   5.355  0.0003  0.0115 -0.1553
  694POPI    C210692  15.177  14.972   5.115  0.1444  0.1020 -0.1996
  694POPI    C310693  14.938  15.261   4.974  0.1744  0.1191 -0.2152
  694POPI   PO410694  14.977  15.166   5.609  0.0733  0.1434 -0.1122
  694POPI   GL110695  14.775  15.266   6.014 -0.0015 -0.1998 -0.3189
  694POPI   GL210696  14.629  15.159   6.281  0.1619 -0.1549 -0.4363
  694POPI   C1A10697  15.141  15.332   6.354  0.2877  0.0915 -0.1515
  694POPI   D2A10698  15.559  15.197   6.356  0.1627  0.5046 -0.1591
  694POPI   C3A10699  15.983  15.234   6.496 -0.1925  0.0943 -0.0178
  694POPI   C4A10700  16.420  14.943   6.568  0.0458 -0.1695 -0.1292
  694POPI   C1B10701  14.704  15.190   6.703 -0.2018 -0.1234  0.1596
  694POPI   C2B10702  14.860  15.173   7.106 -0.1000  0.0701  0.0934
  694POPI   C3B10703  14.949  15.060   7.499 -0.1332  0.0980 -0.0957
  694POPI   C4B10704  15.161  14.721   7.630  0.1267  0.4225 -0.1749
  695POPI    C110705  17.660   0.636   5.380  0.1352 -0.0051  0.1724
  695POPI    C210706  17.740   1.026   5.342 -0.0968  0.0302  0.0248
  695POPI    C310707  17.408   0.908   5.531 -0.0015 -0.0980  0.1137
  695POPI   PO410708  17.878   0.540   5.349  0.1112 -0.3533  0.1435
  695POPI   GL110709  17.862   0.327   5.788  0.0432 -0.0307  0.2726
  695POPI   GL210710  17.986   0.144   5.717 -0.1843 -0.2588  0.0557
  695POPI   C1A10711  17.685   0.331   6.183 -0.1546 -0.1095  0.0965
  695POPI   D2A10712  17.356   0.116   6.527  0.1083 -0.2122  0.0176
  695POPI   C3A10713  17.499  -0.111   6.795 -0.0088  0.2009 -0.1035
  695POPI   C4A10714  17.404  -0.461   7.074  0.1176 -0.2389 -0.1727
  695POPI   C1B10715  17.896  -0.104   6.071 -0.1278  0.1274  0.2886
  695POPI   C2B10716  17.887  -0.186   6.537 -0.0044 -0.1184 -0.1296
  695POPI   C3B10717  18.207  -0.100   6.851  0.1809  0.3460 -0.2006
  695POPI   C4B10718  18.369   0.005   7.174 -0.0921  0.3400 -0.1016
  696POPI    C110719   1.308   1.897   5.257  0.3499 -0.0405  0.0660
  696POPI    C210720   1.160   1.527   5.295  0.0567  0.0762  0.0810
  696POPI    C310721   1.327   1.641   4.950  0.0338 -0.0294  0.0346
  696POPI   PO410722   1.109   2.036   5.414  0.0487  0.1181  0.1784
  696POPI   GL110723   0.986   2.253   5.832  0.2708  0.0111 -0.1050
  696POPI   GL210724   0.624   2.309   6.040  0.2222 -0.0960 -0.1104
  696POPI   C1A10725   1.145   2.149   6.227 -0.5556 -0.2144  0.0803
  696POPI   D2A10726   1.189   2.160   6.722 -0.1383  0.1943 -0.1708
  696POPI   C3A10727   1.408   2.601   6.966  0.2956  0.0822  0.2325
  696POPI   C4A10728   1.755   2.491   7.183 -0.0948 -0.0868  0.1433
  696POPI   C1B10729   0.709   2.006   6.463  0.2396 -0.0448  0.0499
  696POPI   C2B10730   0.825   1.793   6.825 -0.1488 -0.0518 -0.0631
  696POPI   C3B10731   1.065   1.910   7.218  0.0150  0.3961  0.4128
  696POPI   C4B10732   1.236   2.273   7.524 -0.3784 -0.3786 -0.2848
  697POPI    C110733  13.891   1.707   5.472 -0.1072  0.0614 -0.0559
  697POPI    C210734  14.116   1.542   5.759 -0.2074  0.1414  0.0699
  697POPI    C310735  14.250   1.556   5.382 -0.1150 -0.0491  0.0947
  697POPI   PO410736  13.685   1.738   5.516  0.4287 -0.2090 -0.1329
  697POPI   GL110737  13.531   1.446   5.812  0.3130 -0.1106  0.1983
  697POPI   GL210738  13.657   1.077   6.041 -0.0995 -0.2123  0.1290
  697POPI   C1A10739  13.479   1.634   6.107 -0.2033 -0.0187 -0.0792
  697POPI   D2A10740  13.586   1.786   6.511 -0.1579 -0.0649  0.1063
  697POPI   C3A10741  13.978   1.558   6.799  0.1979 -0.1996  0.2635
  697POPI   C4A10742  14.347   1.409   6.677  0.0474  0.2953 -0.0224
  697POPI   C1B10743  13.651   0.848   6.403 -0.0057  0.0175 -0.0080
  697POPI   C2B10744  13.687   0.558   6.716 -0.2469  0.1593 -0.1781
  697POPI   C3B10745  13.838   0.294   7.061 -0.1393 -0.0118 -0.2429
  697POPI   C4B10746  13.681  -0.053   7.127 -0.3893  0.0307 -0.2146
  698POPI    C110747   5.486  17.391   5.474  0.2271 -0.0590  0.0720
  698POPI    C210748   5.410  17.682   5.211  0.0214  0.0180  0.2135
  698POPI    C310749   5.528  17.323   5.083 -0.4077 -0.0509 -0.0088
  698POPI   PO410750   5.510  17.610   5.692 -0.0772 -0.0647  0.2012
  698POPI   GL110751   5.469  17.636   6.176 -0.0998  0.1453  0.1177
  698POPI   GL210752   5.404  17.303   6.321  0.1866  0.2518 -0.1033
  698POPI   C1A10753   5.622  17.965   6.465  0.1504  0.1404 -0.2386
  698POPI   D2A10754   5.699  18.138   6.750 -0.1661  0.1987  0.1469
  698POPI   C3A10755   5.795  18.547   6.588  0.0986 -0.3989 -0.2134
  698POPI   C4A10756   5.675  18.938   6.770  0.3652 -0.2940 -0.0583
  698POPI   C1B10757   5.351  17.277   6.635  0.0808 -0.0757 -0.0904
  698POPI   C2B10758   5.454  17.189   7.015  0.1342 -0.1989  0.0577
  698POPI   C3B10759   5.543  17.021   7.456 -0.0814  0.0393 -0.0439
  698POPI   C4B10760   5.811  16.944   7.710  0.1981 -0.2179  0.0457
  699POPI    C110761  18.429   4.676   5.689  0.1048  0.1407  0.0185
  699POPI    C210762  18.477   4.341   5.476  0.0373  0.1299  0.0200
  699POPI    C310763  18.627   4.687   5.342 -0.0023  0.1226 -0.0437
  699POPI   PO410764  18.095   4.588   5.720 -0.0501  0.0738 -0.0018
  699POPI   GL110765  17.863   4.445   6.117 -0.2606  0.0455 -0.1651
  699POPI   GL210766  18.031   4.425   6.312  0.0451  0.1080  0.1363
  699POPI   C1A10767  17.491   4.136   6.337 -0.0561 -0.0508  0.1184
  699POPI   D2A10768  17.492   3.734   6.613 -0.0690  0.1757 -0.0959
  699POPI   C3A10769  17.251   3.763   6.967 -0.2272  0.0295  0.0681
  699POPI   C4A10770  16.885   3.674   7.029 -0.3187  0.0466  0.0870
  699POPI   C1B10771  18.375   4.610   6.524  0.0453 -0.0229  0.3381
  699POPI   C2B10772  18.399   4.595   6.874 -0.1030 -0.0339 -0.3107
  699POPI   C3B10773  18.162   4.512   7.194 -0.0392  0.0907  0.0372
  699POPI   C4B10774  17.922   4.207   7.431 -0.0819 -0.2172  0.1690
  700POPI    C110775  10.156  18.411   5.566 -0.1070  0.0240 -0.1238
  700POPI    C210776  10.233  18.117   5.305 -0.0717 -0.0747 -0.0026
  700POPI    C310777  10.458  18.448   5.306 -0.0459 -0.0919 -0.0700
  700POPI   PO410778  10.128  18.311   5.807 -0.1893 -0.0576  0.0484
  700POPI   GL110779  10.309  18.245   6.158 -0.0943  0.1357  0.0787
  700POPI   GL210780  10.069  18.143   6.285 -0.0809 -0.2218 -0.0750
  700POPI   C1A10781  10.620  18.288   6.395 -0.3362 -0.1216 -0.0204
  700POPI   D2A10782  11.086  18.379   6.586  0.0867  0.3014 -0.0907
  700POPI   C3A10783  11.042  18.519   7.022  0.2248 -0.0457 -0.1813
  700POPI   C4A10784  10.781  18.798   7.284 -0.0941 -0.0573  0.0187
  700POPI   C1B10785  10.005  18.143   6.690 -0.1867 -0.0720  0.0945
  700POPI   C2B10786   9.954  18.207   7.104  0.0901  0.2734 -0.1076
  700POPI   C3B10787   9.812  18.302   7.478 -0.1253 -0.1913 -0.1395
  700POPI   C4B10788   9.659  18.143   7.799 -0.1098 -0.0201  0.3528
  701POPI    C110789   8.542  14.541   5.599  0.0570  0.1298  0.0669
  701POPI    C210790   8.221  14.488   5.367  0.1614 -0.1290 -0.0227
  701POPI    C310791   8.544  14.673   5.222  0.0421  0.1658  0.0795
  701POPI   PO410792   8.376  14.609   5.847 -0.1618 -0.0779 -0.5513
  701POPI   GL110793   8.452  14.871   6.189 -0.0121  0.2389  0.2143
  701POPI   GL210794   8.732  14.990   6.118 -0.2497  0.2643 -0.0235
  701POPI   C1A10795   8.228  14.756   6.593  0.1676  0.1729  0.3888
  701POPI   D2A10796   8.178  14.422   6.907 -0.0596 -0.0802 -0.2157
  701POPI   C3A10797   8.019  14.540   7.345 -0.3278 -0.1351 -0.3097
  701POPI   C4A10798   8.084  14.733   7.709 -0.1118  0.0607  0.3671
  701POPI   C1B10799   8.751  14.753   6.557 -0.0432 -0.1204  0.0419
  701POPI   C2B10800   8.592  14.725   6.929  0.0399  0.1527 -0.1252
  701POPI   C3B10801   8.389  14.857   7.306 -0.2045 -0.1780  0.0270
  701POPI   C4B10802   8.574  14.950   7.718  0.1006  0.2703  0.0214
  702POPI    C110803  17.438  16.603   5.292 -0.1802 -0.2269  0.2981
  702POPI    C210804  17.138  16.831   5.428 -0.1159 -0.1200  0.2620
  702POPI    C310805  17.207  16.804   5.035 -0.1892 -0.2859  0.2598
  702POPI   PO410806  17.719  16.650   5.398  0.3360  0.0220  0.0124
  702POPI   GL110807  17.943  16.788   5.720  0.0900 -0.1211  0.0949
  702POPI   GL210808  17.831  16.606   5.901  0.1384 -0.2008 -0.0465
  702POPI   C1A10809  17.975  17.264   5.721  0.1483  0.1015  0.1451
  702POPI   D2A10810  17.989  17.681   5.783 -0.2635 -0.0415  0.1920
  702POPI   C3A10811  17.925  17.867   6.188  0.3077 -0.1941  0.6301
  702POPI   C4A10812  17.938  17.711   6.461 -0.0313 -0.4366  0.0014
  702POPI   C1B10813  17.874  16.737   6.348 -0.1461  0.2979  0.2669
  702POPI   C2B10814  18.114  16.780   6.753  0.1312  0.0851 -0.0515
  702POPI   C3B10815  18.064  16.698   7.194 -0.1188 -0.1124  0.1438
  702POPI   C4B10816  17.977  16.745   7.666  0.3574  0.1658 -0.2065
  703POPI    C110817  13.076   1.641   5.576 -0.0142 -0.1766  0.0425
  703POPI    C210818  13.324   1.428   5.345  0.0395 -0.0204 -0.0455
  703POPI    C310819  13.014   1.620   5.182 -0.0207 -0.0474  0.0362
  703POPI   PO410820  12.904   1.423   5.792 -0.4187 -0.4747  0.1386
  703POPI   GL110821  12.845   1.494   6.168  0.1645 -0.0086 -0.2934
  703POPI   GL210822  12.628   1.744   6.372  0.1068  0.1581  0.1932
  703POPI   C1A10823  13.128   1.641   6.455  0.0629 -0.0533 -0.0271
  703POPI   D2A10824  13.257   1.798   6.885  0.2215  0.1614 -0.0263
  703POPI   C3A10825  13.616   2.062   7.097 -0.0064  0.2644  0.1566
  703POPI   C4A10826  13.795   2.354   7.345 -0.0013 -0.4874 -0.2588
  703POPI   C1B10827  12.833   2.014   6.659  0.0894  0.4382  0.2311
  703POPI   C2B10828  12.870   2.217   6.967 -0.2522 -0.1937  0.0366
  703POPI   C3B10829  13.114   2.163   7.261 -0.2903 -0.2871 -0.0549
  703POPI   C4B10830  13.280   1.764   7.362 -0.1094  0.1387 -0.2631
  704POPI    C110831   1.985   9.831   5.620  0.0070  0.0500  0.1590
  704POPI    C210832   2.015  10.229   5.646 -0.0192  0.0447  0.2784
  704POPI    C310833   2.029  10.050   5.288  0.1848  0.1369  0.2391
  704POPI   PO410834   1.881   9.811   5.936 -0.0290  0.3949 -0.0418
  704POPI   GL110835   1.969  10.048   6.351 -0.0035 -0.1017 -0.4230
  704POPI   GL210836   2.102   9.746   6.376  0.1458 -0.1837  0.0097
  704POPI   C1A10837   1.606  10.045   6.706  0.2051 -0.1994 -0.3834
  704POPI   D2A10838   1.458  10.054   7.122  0.2089  0.3196  0.0552
  704POPI   C3A10839   1.412  10.447   7.427 -0.0302 -0.0409 -0.0416
  704POPI   C4A10840   1.541  10.868   7.676 -0.1677  0.1371 -0.0766
  704POPI   C1B10841   2.085   9.737   6.800  0.2483 -0.0444 -0.2449
  704POPI   C2B10842   1.971   9.843   7.206 -0.1499 -0.0360  0.1174
  704POPI   C3B10843   1.904   9.939   7.639 -0.0491 -0.2562 -0.1007
  704POPI   C4B10844   1.831   9.956   8.066  0.3661 -0.0999  0.1129
  705POPI    C110845  10.573   7.842   5.578 -0.0166 -0.1769 -0.0330
  705POPI    C210846  10.406   7.518   5.413 -0.1123 -0.0960 -0.0967
  705POPI    C310847  10.263   7.881   5.328 -0.1246 -0.0489  0.1187
  705POPI   PO410848  10.688   7.939   5.858  0.0067 -0.0352  0.0938
  705POPI   GL110849  10.557   7.820   6.339 -0.0406 -0.2160 -0.1877
  705POPI   GL210850  10.237   7.781   6.430 -0.1380  0.2151 -0.2582
  705POPI   C1A10851  10.867   7.708   6.619  0.0110 -0.3087  0.3533
  705POPI   D2A10852  11.322   7.782   6.536 -0.0542 -0.3474  0.0175
  705POPI   C3A10853  11.586   7.495   6.472  0.1321  0.4579 -0.0911
  705POPI   C4A10854  11.586   7.101   6.372  0.0218 -0.0773 -0.0713
  705POPI   C1B10855  10.169   7.818   6.763 -0.0625 -0.1863 -0.2341
  705POPI   C2B10856  10.413   8.050   7.070 -0.0512  0.4296 -0.1371
  705POPI   C3B10857  10.733   7.902   7.371 -0.0408 -0.0401 -0.0827
  705POPI   C4B10858  10.997   7.518   7.570 -0.0410 -0.1998 -0.1200
  706POPI    C110859   7.804   1.333   5.443 -0.3903  0.2329  0.0606
  706POPI    C210860   7.524   1.095   5.285  0.1275 -0.1377 -0.3360
  706POPI    C310861   7.641   1.424   5.090  0.1269 -0.1037 -0.2795
  706POPI   PO410862   7.665   1.517   5.701  0.0797 -0.0584 -0.0621
  706POPI   GL110863   7.750   1.521   6.196  0.1733 -0.1847 -0.0647
  706POPI   GL210864   7.502   1.211   6.254 -0.0091 -0.0888 -0.4132
  706POPI   C1A10865   7.767   1.582   6.653  0.0848 -0.3749  0.1450
  706POPI   D2A10866   7.524   1.393   7.089  0.1984 -0.0924  0.3727
  706POPI   C3A10867   7.135   1.239   7.087 -0.0972  0.0850 -0.1033
  706POPI   C4A10868   6.904   0.944   7.225  0.0956 -0.0549  0.1297
  706POPI   C1B10869   7.604   1.074   6.717  0.0282  0.0239  0.0776
  706POPI   C2B10870   7.428   0.825   6.974  0.0382 -0.0783 -0.0177
  706POPI   C3B10871   7.345   0.748   7.318 -0.0260 -0.2453  0.2461
  706POPI   C4B10872   7.369   0.715   7.758 -0.0411 -0.1611  0.2356
  707POPI    C110873   0.457   2.667   5.522  0.1095 -0.0421 -0.0779
  707POPI    C210874   0.391   3.013   5.711  0.1591 -0.0477 -0.0502
  707POPI    C310875   0.396   3.002   5.311 -0.0499 -0.0550 -0.0539
  707POPI   PO410876   0.752   2.570   5.583  0.1180 -0.2079  0.0154
  707POPI   GL110877   0.814   2.802   5.952  0.1155 -0.0865 -0.0011
  707POPI   GL210878   0.705   3.009   6.301  0.1826  0.3662  0.3718
  707POPI   C1A10879   1.065   2.628   6.182  0.0017 -0.1187  0.0627
  707POPI   D2A10880   1.070   2.628   6.586  0.0074 -0.0071  0.2045
  707POPI   C3A10881   0.789   2.793   6.897 -0.0375  0.0217 -0.2593
  707POPI   C4A10882   0.677   2.837   7.326 -0.0703 -0.1371 -0.2390
  707POPI   C1B10883   0.359   2.979   6.636  0.1670 -0.1138 -0.1063
  707POPI   C2B10884   0.158   2.986   7.097  0.0746  0.2826  0.2429
  707POPI   C3B10885   0.304   3.288   7.501  0.1364 -0.0669  0.0755
  707POPI   C4B10886   0.251   3.624   7.470  0.2175 -0.1301 -0.1842
  708POPI    C110887  13.917   5.821   5.530 -0.1476  0.0974  0.1893
  708POPI    C210888  14.189   5.608   5.329 -0.0756  0.2266  0.1485
  708POPI    C310889  13.871   5.759   5.138 -0.0645  0.2566  0.1534
  708POPI   PO410890  13.958   5.699   5.858 -0.0938 -0.1250 -0.0152
  708POPI   GL110891  13.821   5.560   6.288  0.1302 -0.2708 -0.1317
  708POPI   GL210892  13.776   5.901   6.314  0.0081 -0.1096 -0.0481
  708POPI   C1A10893  13.825   5.263   6.634  0.1500 -0.1317  0.0603
  708POPI   D2A10894  14.034   4.982   6.953 -0.3588  0.1591 -0.0499
  708POPI   C3A10895  14.330   5.173   7.139 -0.1056 -0.2072  0.0742
  708POPI   C4A10896  14.621   5.298   7.489 -0.0225 -0.1195 -0.0254
  708POPI   C1B10897  13.701   5.820   6.808  0.0725  0.2795  0.4683
  708POPI   C2B10898  13.695   5.808   7.199 -0.3815 -0.1540 -0.4658
  708POPI   C3B10899  13.878   5.689   7.529  0.2195 -0.0102 -0.0411
  708POPI   C4B10900  14.123   5.349   7.578  0.1214  0.3270 -0.2272
  709POPI    C110901   2.458  15.595   5.580  0.1390  0.1143  0.1147
  709POPI    C210902   2.713  15.404   5.338  0.0355 -0.2205  0.2627
  709POPI    C310903   2.548  15.750   5.222  0.0950 -0.3042 -0.0839
  709POPI   PO410904   2.255  15.483   5.787 -0.3452 -0.2132  0.2823
  709POPI   GL110905   1.966  15.249   6.038  0.0361 -0.0705  0.0864
  709POPI   GL210906   2.252  15.091   6.111 -0.1388  0.2760  0.1197
  709POPI   C1A10907   1.633  15.150   6.262 -0.1032  0.2040  0.1609
  709POPI   D2A10908   1.571  14.924   6.631 -0.0597  0.1174  0.3674
  709POPI   C3A10909   1.432  15.194   7.015 -0.1013 -0.2613  0.2071
  709POPI   C4A10910   1.815  15.353   7.282 -0.0094  0.0119  0.0434
  709POPI   C1B10911   2.157  15.299   6.542 -0.0261 -0.2439  0.1568
  709POPI   C2B10912   2.299  15.253   6.977  0.1850  0.4916 -0.2191
  709POPI   C3B10913   2.215  14.986   7.390  0.1938 -0.1857 -0.1336
  709POPI   C4B10914   2.224  14.681   7.716  0.0364  0.4266  0.1407
  710POPI    C110915   3.320   4.718   5.586 -0.1612 -0.0346  0.0128
  710POPI    C210916   3.555   4.528   5.324 -0.2278 -0.1879  0.0626
  710POPI    C310917   3.196   4.663   5.210 -0.2378 -0.2144  0.0627
  710POPI   PO410918   3.408   4.559   5.829 -0.1942  0.0713 -0.4042
  710POPI   GL110919   3.699   4.726   6.164 -0.3286  0.2462 -0.2722
  710POPI   GL210920   3.632   4.346   6.193  0.2041 -0.0287 -0.1712
  710POPI   C1A10921   3.943   4.601   6.483  0.2077  0.2559  0.3254
  710POPI   D2A10922   3.936   4.362   6.715  0.2153 -0.1252 -0.0123
  710POPI   C3A10923   3.844   4.309   7.172 -0.1499  0.3372  0.0155
  710POPI   C4A10924   3.929   4.001   7.625  0.0624 -0.2718 -0.0363
  710POPI   C1B10925   3.475   4.353   6.614 -0.0690  0.1729  0.2264
  710POPI   C2B10926   3.377   4.425   7.035 -0.0347  0.0102  0.4534
  710POPI   C3B10927   3.549   4.639   7.435  0.2086 -0.2061  0.0021
  710POPI   C4B10928   3.675   4.479   7.725  0.1173  0.0186 -0.3910
  711POPI    C110929   9.266   1.287   5.535 -0.0755 -0.0288  0.1300
  711POPI    C210930   9.523   0.981   5.566 -0.0874 -0.0550 -0.0233
  711POPI    C310931   9.206   0.953   5.323 -0.1665  0.0255  0.0696
  711POPI   PO410932   9.281   1.425   5.793 -0.0155  0.3916 -0.0885
  711POPI   GL110933   9.035   1.483   6.095 -0.0163 -0.0326  0.0021
  711POPI   GL210934   8.939   1.248   6.297 -0.0588  0.1619  0.0989
  711POPI   C1A10935   9.032   1.810   6.415 -0.2065 -0.2496 -0.1896
  711POPI   D2A10936   9.311   2.221   6.390 -0.1020  0.2909  0.1360
  711POPI   C3A10937   9.819   2.211   6.389  0.2444  0.2363  0.0337
  711POPI   C4A10938  10.199   2.499   6.302  0.2619  0.1612  0.2540
  711POPI   C1B10939   9.304   1.362   6.555  0.0338 -0.2625  0.2046
  711POPI   C2B10940   9.518   1.649   6.806  0.1216 -0.0098  0.1406
  711POPI   C3B10941   9.577   2.141   6.845  0.1357 -0.2369 -0.0467
  711POPI   C4B10942   9.766   2.313   7.240  0.3155  0.0868  0.5237
  712POPI    C110943   6.715  13.702   5.613 -0.1055 -0.0840 -0.0775
  712POPI    C210944   6.868  13.893   5.297 -0.0638  0.1175  0.0622
  712POPI    C310945   7.026  13.545   5.416  0.2306  0.2773  0.1488
  712POPI   PO410946   6.508  13.856   5.769  0.5145  0.1816  0.1697
  712POPI   GL110947   6.243  13.885   6.105 -0.0178  0.2265  0.0819
  712POPI   GL210948   6.048  13.692   5.923  0.2531  0.2991  0.1293
  712POPI   C1A10949   6.470  14.047   6.393  0.0751 -0.1424  0.1222
  712POPI   D2A10950   6.803  14.135   6.658  0.2157  0.0600  0.0150
  712POPI   C3A10951   6.582  14.240   7.047  0.1665  0.0276  0.0650
  712POPI   C4A10952   6.529  14.294   7.556  0.1504 -0.0598  0.3447
  712POPI   C1B10953   5.911  13.784   6.447  0.0123 -0.0730  0.0776
  712POPI   C2B10954   6.188  13.791   6.784  0.0259  0.0925  0.0512
  712POPI   C3B10955   6.585  13.655   6.765 -0.1352  0.0982 -0.3652
  712POPI   C4B10956   7.033  13.655   6.759  0.0715 -0.0922  0.0303
  713POPI    C110957   5.416  16.051   5.489 -0.1599  0.3154 -0.1174
  713POPI    C210958   5.512  16.375   5.273  0.1330  0.2821 -0.0415
  713POPI    C310959   5.767  16.068   5.298 -0.1357  0.0493 -0.0995
  713POPI   PO410960   5.351  16.035   5.706 -0.0034 -0.3175 -0.0369
  713POPI   GL110961   5.291  15.654   5.915 -0.3258  0.2735 -0.1469
  713POPI   GL210962   5.187  15.315   5.978  0.0193  0.0398  0.2063
  713POPI   C1A10963   5.049  15.865   6.341  0.3320 -0.0393 -0.3973
  713POPI   D2A10964   4.719  15.937   6.638 -0.1134  0.0065  0.3639
  713POPI   C3A10965   4.273  15.989   6.736 -0.0968  0.1792 -0.1337
  713POPI   C4A10966   3.970  16.097   6.964  0.0475 -0.0180 -0.1167
  713POPI   C1B10967   4.833  15.490   6.136  0.0250 -0.1382  0.0407
  713POPI   C2B10968   4.677  15.413   6.585 -0.3965 -0.1426 -0.0465
  713POPI   C3B10969   4.451  15.541   6.992  0.0074  0.5206 -0.0582
  713POPI   C4B10970   4.211  15.262   7.211  0.0685  0.0188  0.0811
  714POPI    C110971  12.333   3.031   5.377 -0.1999  0.1398  0.3695
  714POPI    C210972  11.966   3.093   5.228 -0.0880  0.1385  0.0877
  714POPI    C310973  12.255   3.363   5.169  0.0804 -0.0776 -0.0985
  714POPI   PO410974  12.303   3.060   5.637  0.1720 -0.0653 -0.0634
  714POPI   GL110975  12.204   2.969   5.987  0.2851 -0.1437 -0.1068
  714POPI   GL210976  12.465   2.957   6.118 -0.1766 -0.1604 -0.0280
  714POPI   C1A10977  11.852   3.134   6.193 -0.3295  0.1367 -0.2008
  714POPI   D2A10978  11.834   3.546   6.550  0.0045  0.1609 -0.1421
  714POPI   C3A10979  12.147   3.545   6.824  0.1560 -0.3627  0.1288
  714POPI   C4A10980  12.235   3.352   7.239 -0.3292  0.1524 -0.1333
  714POPI   C1B10981  12.658   3.019   6.464  0.1357  0.2399 -0.2085
  714POPI   C2B10982  12.497   3.112   6.865  0.1508 -0.0690  0.1439
  714POPI   C3B10983  12.621   2.960   7.346 -0.0105  0.1346 -0.2243
  714POPI   C4B10984  12.739   2.859   7.746  0.0622 -0.0165  0.0869
  715POPI    C110985   0.641  13.044   5.425 -0.0685 -0.3106 -0.0400
  715POPI    C210986   0.348  13.086   5.156  0.0333 -0.2076 -0.1356
  715POPI    C310987   0.651  12.836   5.083  0.0520 -0.1929 -0.1089
  715POPI   PO410988   0.363  13.108   5.732 -0.0209 -0.2471  0.1183
  715POPI   GL110989   0.413  13.150   6.258  0.0883 -0.0095 -0.2060
  715POPI   GL210990   0.226  13.404   6.429  0.1529  0.0248 -0.2582
  715POPI   C1A10991   0.255  12.940   6.693 -0.0355  0.0132 -0.0294
  715POPI   D2A10992   0.409  12.964   7.120 -0.1144 -0.0634  0.3058
  715POPI   C3A10993   0.130  13.227   7.401 -0.2415  0.0789  0.1039
  715POPI   C4A10994  -0.151  13.546   7.471  0.0725  0.0544 -0.0725
  715POPI   C1B10995   0.142  13.380   6.902  0.0883  0.3065  0.1570
  715POPI   C2B10996  -0.190  12.999   6.992  0.3167  0.1491 -0.1511
  715POPI   C3B10997  -0.489  12.797   6.618 -0.0925 -0.1954  0.0997
  715POPI   C4B10998  -0.771  12.457   6.614 -0.1401  0.0286  0.0521
  716POPI    C110999   8.415  15.805   5.809 -0.1038 -0.1835 -0.0887
  716POPI    C211000   8.568  15.509   5.588  0.0497 -0.0412 -0.1756
  716POPI    C311001   8.492  15.864   5.421  0.1576  0.0652 -0.0028
  716POPI   PO411002   8.292  15.724   6.074  0.0949 -0.0999  0.3140
  716POPI   GL111003   8.210  15.405   6.330  0.0191 -0.1077 -0.0530
  716POPI   GL211004   7.919  15.610   6.482 -0.1039 -0.0263 -0.1737
  716POPI   C1A11005   8.530  15.212   6.624 -0.1918 -0.0958 -0.0185
  716POPI   D2A11006   8.972  15.127   6.889  0.3402 -0.0388  0.4014
  716POPI   C3A11007   8.802  15.270   7.242  0.0406 -0.0583 -0.0838
  716POPI   C4A11008   9.009  15.445   7.630  0.0162  0.0900  0.0714
  716POPI   C1B11009   7.807  15.637   6.953 -0.1884 -0.1077  0.1549
  716POPI   C2B11010   7.603  15.335   7.261 -0.2567  0.0422 -0.0722
  716POPI   C3B11011   7.632  14.980   7.386  0.2258 -0.2104  0.2354
  716POPI   C4B11012   7.561  14.901   7.778  0.0042  0.2086 -0.2815
  717POPI    C111013   1.838   5.102   5.528 -0.0081 -0.1227  0.1128
  717POPI    C211014   1.658   4.778   5.377  0.0717 -0.0953 -0.0433
  717POPI    C311015   2.022   4.882   5.249  0.0795  0.0113  0.0643
  717POPI   PO411016   1.784   5.026   5.781 -0.2904 -0.2101 -0.2106
  717POPI   GL111017   1.659   4.792   6.185  0.3182  0.2273 -0.3348
  717POPI   GL211018   1.880   4.614   6.117 -0.2670 -0.0865 -0.1190
  717POPI   C1A11019   1.530   4.584   6.585  0.2412  0.0679  0.3623
  717POPI   D2A11020   1.483   4.464   7.059 -0.2069  0.0065  0.0395
  717POPI   C3A11021   1.111   4.677   7.351 -0.0583  0.0889 -0.0721
  717POPI   C4A11022   1.027   4.894   7.676  0.0229  0.4055  0.1763
  717POPI   C1B11023   2.176   4.669   6.532 -0.1219  0.1726 -0.0317
  717POPI   C2B11024   2.013   4.461   6.860 -0.1295  0.0361 -0.0882
  717POPI   C3B11025   1.937   4.619   7.263 -0.0427 -0.2467 -0.2748
  717POPI   C4B11026   1.836   4.611   7.707 -0.1514  0.0363  0.3575
  718POPI    C111027  11.509  16.072   5.450 -0.1530 -0.0953 -0.0735
  718POPI    C211028  11.699  16.339   5.221 -0.1334  0.0028  0.0559
  718POPI    C311029  11.440  16.083   5.057 -0.1485  0.0979 -0.0698
  718POPI   PO411030  11.735  15.886   5.644 -0.0221 -0.0146  0.1071
  718POPI   GL111031  11.634  15.758   6.085 -0.2895  0.0976 -0.0827
  718POPI   GL211032  11.578  16.029   6.188 -0.3046  0.4233 -0.0114
  718POPI   C1A11033  11.907  15.766   6.388  0.0318  0.2209  0.1828
  718POPI   D2A11034  11.939  15.904   6.777  0.1555  0.1128  0.0702
  718POPI   C3A11035  11.917  16.351   6.812 -0.2282  0.2464 -0.0337
  718POPI   C4A11036  12.097  16.591   6.501  0.1913 -0.2483  0.1111
  718POPI   C1B11037  11.512  16.138   6.617 -0.0269  0.1177  0.1948
  718POPI   C2B11038  11.348  16.218   7.021  0.1995 -0.2212  0.1717
  718POPI   C3B11039  11.105  16.196   7.225  0.5793  0.1638  0.2344
  718POPI   C4B11040  10.824  16.246   7.486 -0.2450  0.0207 -0.1290
  719POPI    C111041   3.252  16.609   5.460 -0.1410  0.0057  0.0618
  719POPI    C211042   3.158  16.220   5.471 -0.2024  0.0191  0.0198
  719POPI    C311043   3.295  16.384   5.132  0.0467 -0.0168  0.1011
  719POPI   PO411044   3.378  16.753   5.689  0.0779 -0.1094  0.3060
  719POPI   GL111045   3.767  16.701   5.931 -0.2595  0.0686 -0.0802
  719POPI   GL211046   3.704  16.937   5.993 -0.4095  0.1776  0.0396
  719POPI   C1A11047   4.194  16.837   6.104 -0.1896 -0.1490  0.0500
  719POPI   D2A11048   4.460  16.911   6.478 -0.1935  0.3374  0.1904
  719POPI   C3A11049   4.560  16.872   6.902  0.4136 -0.2314  0.1923
  719POPI   C4A11050   4.567  17.163   7.195 -0.1265 -0.2908  0.4392
  719POPI   C1B11051   3.384  17.173   6.241 -0.0869  0.1750 -0.0589
  719POPI   C2B11052   3.282  17.513   6.319 -0.1420 -0.1192  0.2500
  719POPI   C3B11053   3.458  17.790   6.214 -0.1197 -0.0176 -0.1349
  719POPI   C4B11054   3.437  18.169   6.206  0.2397  0.5075 -0.0618
  720POPI    C111055  15.065  13.906   5.446  0.1358 -0.0767 -0.2327
  720POPI    C211056  15.255  14.079   5.139 -0.0002  0.0818 -0.2296
  720POPI    C311057  15.296  13.686   5.205  0.1738  0.0800 -0.3412
  720POPI   PO411058  15.080  13.970   5.753 -0.0917 -0.1301  0.1117
  720POPI   GL111059  15.272  13.865   6.097  0.1584 -0.2287  0.2400
  720POPI   GL211060  15.542  13.890   6.063 -0.2906  0.0067 -0.5724
  720POPI   C1A11061  15.189  13.804   6.519 -0.2263 -0.1296 -0.1714
  720POPI   D2A11062  15.363  13.746   6.813  0.2201  0.0601 -0.0601
  720POPI   C3A11063  15.115  13.949   7.100  0.0455  0.0655  0.1731
  720POPI   C4A11064  14.668  14.001   7.119  0.3807 -0.0818 -0.0309
  720POPI   C1B11065  15.691  13.711   6.468 -0.1196 -0.0779 -0.2434
  720POPI   C2B11066  15.980  13.915   6.798  0.0652 -0.1496  0.1520
  720POPI   C3B11067  15.959  14.180   7.187 -0.0980 -0.0622 -0.1971
  720POPI   C4B11068  15.837  14.013   7.574  0.3709 -0.0888 -0.2861
  721POPS   CNO11069   6.169  10.269   6.186  0.2703 -0.0672  0.3830
  721POPS   PO411070   5.945   9.927   6.308 -0.0478 -0.1600 -0.0733
  721POPS   GL111071   6.114   9.822   6.667  0.0375 -0.2944  0.0627
  721POPS   GL211072   6.032   9.976   6.836 -0.4312 -0.0892 -0.0400
  721POPS   C1A11073   6.330   9.565   7.002  0.1749 -0.0665 -0.1174
  721POPS   D2A11074   6.743   9.597   7.213 -0.1271  0.2768 -0.1072
  721POPS   C3A11075   6.969   9.165   7.063 -0.1787 -0.2730 -0.2118
  721POPS   C4A11076   7.262   8.998   6.662  0.0930 -0.0329 -0.0881
  721POPS   C1B11077   5.743   9.577   6.953 -0.1995 -0.2941  0.0664
  721POPS   C2B11078   5.751   9.305   7.230  0.0833  0.1029 -0.0119
  721POPS   C3B11079   5.401   8.876   7.398 -0.0555 -0.3535  0.0686
  721POPS   C4B11080   4.979   8.737   7.486 -0.2081 -0.2618  0.1744
  722POPS   CNO11081  13.474   4.897   5.584 -0.1237  0.2787  0.0457
  722POPS   PO411082  13.809   4.844   5.743  0.0472  0.3203 -0.1034
  722POPS   GL111083  13.559   4.901   6.124  0.1866 -0.2139  0.0944
  722POPS   GL211084  13.383   5.144   6.374  0.0955 -0.0372  0.1297
  722POPS   C1A11085  13.189   4.720   6.380  0.2575  0.0036  0.1289
  722POPS   D2A11086  12.990   4.528   6.710 -0.0378  0.1473 -0.1244
  722POPS   C3A11087  13.293   4.486   7.114 -0.0372  0.0765 -0.0759
  722POPS   C4A11088  13.313   4.652   7.508  0.0203  0.0900 -0.1005
  722POPS   C1B11089  13.494   4.942   6.805  0.1312  0.1280  0.2406
  722POPS   C2B11090  13.711   4.718   7.189 -0.0310 -0.2614  0.1293
  722POPS   C3B11091  13.825   4.686   7.702 -0.2625 -0.0959  0.4379
  722POPS   C4B11092  13.659   4.409   8.136 -0.0757 -0.1904  0.1587
  723POPS   CNO11093  17.394   3.560   5.246  0.0963  0.0846  0.4211
  723POPS   PO411094  17.142   3.226   5.383  0.0844 -0.0656  0.1278
  723POPS   GL111095  17.179   3.121   5.834  0.1189  0.3603  0.3687
  723POPS   GL211096  17.411   3.081   6.012 -0.0175  0.1880 -0.1616
  723POPS   C1A11097  16.940   3.218   6.275 -0.0361 -0.1594  0.1297
  723POPS   D2A11098  16.899   2.938   6.552  0.1525 -0.1996  0.1292
  723POPS   C3A11099  16.615   2.796   6.871 -0.0690  0.2331 -0.1455
  723POPS   C4A11100  16.740   2.577   7.158  0.0397  0.1297  0.2388
  723POPS   C1B11101  17.316   2.742   6.288  0.1063  0.0589  0.1832
  723POPS   C2B11102  17.551   2.494   6.540 -0.1589  0.2813  0.1983
  723POPS   C3B11103  17.984   2.429   6.676 -0.0958 -0.1883 -0.2767
  723POPS   C4B11104  18.269   2.215   6.900 -0.0693  0.0069 -0.1410
  724POPS   CNO11105   4.854  16.744   5.200 -0.0760 -0.1829  0.0184
  724POPS   PO411106   5.046  16.928   5.531  0.0689 -0.2326  0.0526
  724POPS   GL111107   4.951  17.001   5.882 -0.0427  0.1583  0.2720
  724POPS   GL211108   4.941  16.719   6.031 -0.1508 -0.0285  0.1577
  724POPS   C1A11109   4.836  17.244   6.253  0.0494  0.1044  0.0021
  724POPS   D2A11110   4.777  17.331   6.641 -0.1114 -0.1249 -0.1713
  724POPS   C3A11111   4.666  17.681   6.784  0.0514  0.1381 -0.2585
  724POPS   C4A11112   4.776  18.145   6.974 -0.2433  0.0377 -0.1042
  724POPS   C1B11113   4.923  16.745   6.419  0.1072 -0.1785  0.1141
  724POPS   C2B11114   5.018  16.876   6.760  0.2730 -0.0788 -0.0343
  724POPS   C3B11115   5.051  16.984   7.122  0.0852 -0.4262 -0.2676
  724POPS   C4B11116   5.015  17.181   7.462 -0.1257 -0.1128 -0.1009
  725POPS   CNO11117  16.753  13.017   5.167 -0.1049 -0.1311 -0.1386
  725POPS   PO411118  16.613  12.944   5.539 -0.1344 -0.0501  0.0983
  725POPS   GL111119  16.653  12.989   5.937  0.1454  0.1439 -0.1476
  725POPS   GL211120  16.696  13.254   6.082 -0.0179 -0.2687 -0.2498
  725POPS   C1A11121  16.869  12.822   6.278  0.2724 -0.1629  0.0220
  725POPS   D2A11122  16.906  13.053   6.719 -0.0362  0.1455 -0.2666
  725POPS   C3A11123  16.985  12.881   7.120  0.0206  0.1351 -0.2465
  725POPS   C4A11124  16.700  12.918   7.437 -0.3781  0.0066 -0.2827
  725POPS   C1B11125  16.659  13.429   6.563  0.0189  0.0320 -0.1957
  725POPS   C2B11126  16.699  13.412   6.956 -0.1619  0.1746  0.0002
  725POPS   C3B11127  16.379  13.276   7.319 -0.0526 -0.1841  0.0435
  725POPS   C4B11128  16.088  13.000   7.309  0.0652  0.1825 -0.0361
  726POPS   CNO11129   2.464  18.363   5.521 -0.1562  0.0208 -0.1615
  726POPS   PO411130   2.057  18.219   5.345 -0.1336  0.3932 -0.1616
  726POPS   GL111131   1.903  17.918   5.657  0.1684 -0.1047 -0.0390
  726POPS   GL211132   1.552  17.950   5.707 -0.1714  0.0855  0.0383
  726POPS   C1A11133   1.812  17.839   6.105 -0.1715 -0.0970  0.0718
  726POPS   D2A11134   1.908  17.762   6.485  0.0131 -0.2196 -0.3709
  726POPS   C3A11135   1.861  17.546   6.811 -0.1002 -0.2186 -0.0438
  726POPS   C4A11136   1.702  17.445   7.100  0.1788 -0.1577  0.2381
  726POPS   C1B11137   1.338  17.944   6.099 -0.0859  0.2222  0.0752
  726POPS   C2B11138   1.138  18.110   6.511 -0.2666  0.0282  0.1821
  726POPS   C3B11139   1.108  18.145   6.936  0.1826  0.1484 -0.0246
  726POPS   C4B11140   0.767  17.933   7.164 -0.0943  0.0636 -0.2934
  727POPS   CNO11141   8.761   5.738   5.703  0.2526  0.0663 -0.1133
  727POPS   PO411142   8.870   5.697   6.122  0.0603 -0.1498 -0.0829
  727POPS   GL111143   8.968   5.572   6.609 -0.0292  0.1270  0.0627
  727POPS   GL211144   8.599   5.448   6.640 -0.0405 -0.0995 -0.4592
  727POPS   C1A11145   8.969   5.423   6.991 -0.1800 -0.1099  0.0291
  727POPS   D2A11146   9.176   5.622   7.413  0.0688  0.1986 -0.0125
  727POPS   C3A11147   9.575   5.473   7.587 -0.0398 -0.2131  0.0725
  727POPS   C4A11148   9.811   5.504   7.921 -0.0552  0.4047  0.1126
  727POPS   C1B11149   8.385   5.295   7.098 -0.2089 -0.1025 -0.1078
  727POPS   C2B11150   8.162   5.267   7.492  0.1306 -0.2815  0.0333
  727POPS   C3B11151   8.188   5.158   8.019  0.3881  0.0299  0.2463
  727POPS   C4B11152   8.299   4.868   8.334  0.0986 -0.2269 -0.1587
  728POPS   CNO11153  12.569   0.557   5.945 -0.2846  0.2060 -0.2087
  728POPS   PO411154  12.157   0.607   5.969  0.0676  0.3461 -0.3239
  728POPS   GL111155  12.060   0.449   6.259  0.3236 -0.1927 -0.1656
  728POPS   GL211156  12.288   0.402   6.391 -0.0567  0.4760 -0.1041
  728POPS   C1A11157  11.924   0.606   6.636  0.0231  0.0556 -0.0472
  728POPS   D2A11158  11.985   0.714   7.018 -0.0708  0.0962  0.2383
  728POPS   C3A11159  12.232   0.393   7.236  0.1677 -0.0508  0.1053
  728POPS   C4A11160  12.450   0.530   7.553  0.1246 -0.0199  0.1862
  728POPS   C1B11161  12.436   0.578   6.826 -0.0016  0.0391  0.0623
  728POPS   C2B11162  12.474   0.902   7.200  0.1166 -0.4539 -0.2666
  728POPS   C3B11163  12.560   1.261   7.497  0.1802 -0.0843  0.0814
  728POPS   C4B11164  12.452   1.496   7.798 -0.0406  0.2350 -0.1365
  729POPS   CNO11165  13.736   2.900   5.907 -0.0313  0.1049  0.1801
  729POPS   PO411166  13.510   3.246   6.005 -0.0939 -0.1038 -0.0006
  729POPS   GL111167  13.614   3.164   6.397  0.0198  0.1820 -0.0814
  729POPS   GL211168  13.971   3.040   6.341 -0.1308  0.0253  0.0796
  729POPS   C1A11169  13.505   3.082   6.780  0.0443 -0.1653 -0.1822
  729POPS   D2A11170  13.550   2.834   7.061 -0.0017 -0.0096 -0.0752
  729POPS   C3A11171  13.353   2.493   7.023  0.1019  0.1062 -0.1423
  729POPS   C4A11172  13.356   2.236   6.631  0.1603 -0.1548  0.1245
  729POPS   C1B11173  14.037   3.205   6.731  0.1419  0.2654 -0.2023
  729POPS   C2B11174  13.945   3.110   7.129  0.1966 -0.0645 -0.0249
  729POPS   C3B11175  13.994   2.822   7.454 -0.0539 -0.0118  0.1211
  729POPS   C4B11176  13.959   2.768   7.808 -0.0390 -0.0164 -0.1335
  730POPS   CNO11177   3.593   9.792   5.643  0.0891  0.0299  0.1095
  730POPS   PO411178   3.689  10.033   5.896  0.1575  0.1492  0.0552
  730POPS   GL111179   3.629  10.109   6.287 -0.0325  0.0437 -0.0281
  730POPS   GL211180   3.308   9.899   6.386 -0.1321 -0.1783 -0.2464
  730POPS   C1A11181   3.621  10.323   6.632 -0.0884  0.0177 -0.1903
  730POPS   D2A11182   3.515  10.301   7.025 -0.2927  0.2722 -0.1345
  730POPS   C3A11183   3.316  10.688   7.057  0.1717  0.4205  0.0042
  730POPS   C4A11184   3.570  11.093   7.151 -0.1320  0.3185 -0.1944
  730POPS   C1B11185   3.116   9.752   6.679 -0.0730  0.1413 -0.2275
  730POPS   C2B11186   3.021   9.572   7.112  0.1703 -0.1956  0.2179
  730POPS   C3B11187   2.759   9.294   7.403  0.3171  0.2542  0.0544
  730POPS   C4B11188   2.415   9.096   7.529  0.0061  0.2003 -0.1844
  731POPS   CNO11189  10.856  17.660   5.597 -0.0593 -0.0302 -0.0099
  731POPS   PO411190  11.062  17.883   5.878  0.0236 -0.1505 -0.0361
  731POPS   GL111191  11.311  17.991   6.234 -0.2141  0.2352 -0.1377
  731POPS   GL211192  11.463  18.237   6.305 -0.0276  0.0616 -0.2898
  731POPS   C1A11193  11.534  17.846   6.655  0.3476  0.0133 -0.1676
  731POPS   D2A11194  11.302  17.701   7.054 -0.1567  0.1403  0.1572
  731POPS   C3A11195  11.381  17.349   7.232  0.0180  0.1675 -0.1087
  731POPS   C4A11196  11.522  17.019   7.271  0.0709  0.1658 -0.1071
  731POPS   C1B11197  11.689  18.353   6.627 -0.0483  0.3336 -0.0150
  731POPS   C2B11198  11.433  18.310   7.020 -0.2643  0.2657 -0.2671
  731POPS   C3B11199  11.577  18.088   7.421 -0.0147 -0.1585 -0.0800
  731POPS   C4B11200  11.643  17.753   7.788  0.1955 -0.0961  0.1196
  732POPS   CNO11201   0.743   0.600   5.493  0.0973  0.1142 -0.2301
  732POPS   PO411202   1.075   0.578   5.715 -0.2134  0.0641 -0.4862
  732POPS   GL111203   1.295   0.663   6.049  0.0987 -0.0420  0.1027
  732POPS   GL211204   1.384   1.018   6.056  0.4242  0.3996 -0.2799
  732POPS   C1A11205   1.318   0.613   6.510  0.1513  0.0101  0.1697
  732POPS   D2A11206   1.265   0.501   6.985  0.0401 -0.2008  0.1555
  732POPS   C3A11207   1.190   0.736   7.345 -0.1023  0.3594  0.1373
  732POPS   C4A11208   0.990   1.008   7.605 -0.1299  0.0549  0.0169
  732POPS   C1B11209   1.332   1.143   6.479 -0.5118 -0.1453 -0.1413
  732POPS   C2B11210   1.340   1.041   6.906 -0.2594 -0.3077 -0.1211
  732POPS   C3B11211   1.407   1.149   7.340 -0.0148 -0.1141 -0.0626
  732POPS   C4B11212   1.235   1.520   7.566  0.1072 -0.1569 -0.1636
  733POPS   CNO11213  16.471   9.259   5.617  0.2796  0.3419  0.0848
  733POPS   PO411214  16.698   9.448   5.763  0.0272  0.0796  0.1563
  733POPS   GL111215  16.588   9.568   6.158 -0.4658  0.0895 -0.1551
  733POPS   GL211216  16.831   9.749   6.344  0.3590  0.0439  0.1847
  733POPS   C1A11217  16.518   9.567   6.640  0.2968 -0.0159 -0.1369
  733POPS   D2A11218  16.130   9.287   6.896 -0.1652 -0.0120 -0.1500
  733POPS   C3A11219  16.288   9.107   7.278 -0.1543  0.3204  0.1333
  733POPS   C4A11220  16.188   8.765   7.544 -0.1361  0.0419 -0.1415
  733POPS   C1B11221  17.125   9.946   6.752  0.0610  0.0080  0.0769
  733POPS   C2B11222  17.281   9.964   7.137 -0.1124 -0.0627 -0.0209
  733POPS   C3B11223  17.599  10.057   7.373 -0.1243  0.0628  0.3552
  733POPS   C4B11224  18.003   9.848   7.560 -0.1773 -0.0964 -0.0771
  734POPS   CNO11225  13.595  12.824   5.545  0.0843  0.0704 -0.0170
  734POPS   PO411226  13.675  13.146   5.939 -0.0239  0.0773  0.2338
  734POPS   GL111227  13.762  13.060   6.291 -0.0848  0.2387  0.3319
  734POPS   GL211228  13.994  12.813   6.411  0.3050  0.0372 -0.0446
  734POPS   C1A11229  13.737  13.194   6.705 -0.0509  0.0422  0.0966
  734POPS   D2A11230  13.466  13.220   7.057 -0.0870 -0.1567  0.1714
  734POPS   C3A11231  13.492  13.515   7.400  0.0184  0.0581 -0.0353
  734POPS   C4A11232  13.167  13.364   7.744 -0.2204  0.0486  0.0750
  734POPS   C1B11233  13.907  12.368   6.727 -0.1084  0.2389  0.2308
  734POPS   C2B11234  13.747  12.038   7.007 -0.3822 -0.2803 -0.1416
  734POPS   C3B11235  13.528  11.630   7.065 -0.3459 -0.1369  0.0188
  734POPS   C4B11236  13.246  11.335   7.010  0.1267  0.1163  0.0878
  735POPS   CNO11237  14.552   5.577   5.733  0.2219  0.0855 -0.2249
  735POPS   PO411238  14.628   5.219   5.996  0.0555  0.1967 -0.1292
  735POPS   GL111239  14.627   5.389   6.421  0.0353 -0.2089  0.1064
  735POPS   GL211240  14.938   5.559   6.365  0.2855 -0.1223 -0.1040
  735POPS   C1A11241  14.301   5.401   6.672  0.0542 -0.1630 -0.2072
  735POPS   D2A11242  14.142   5.607   7.046  0.2475 -0.0528  0.1635
  735POPS   C3A11243  14.315   5.888   7.311 -0.2686  0.1523  0.1414
  735POPS   C4A11244  14.401   6.296   7.431  0.0985 -0.1718  0.0057
  735POPS   C1B11245  15.193   5.691   6.627  0.0487 -0.1198  0.0972
  735POPS   C2B11246  15.335   5.764   6.992  0.2053  0.0046 -0.1454
  735POPS   C3B11247  15.402   6.023   7.432 -0.3359  0.1167 -0.2626
  735POPS   C4B11248  15.571   6.397   7.617 -0.2367 -0.3180 -0.2933
  736POPS   CNO11249   5.382  16.603   5.752 -0.1345  0.0863  0.1514
  736POPS   PO411250   5.796  16.840   5.816 -0.3970 -0.5230  0.4932
  736POPS   GL111251   5.950  16.964   6.190 -0.0822  0.1269 -0.2720
  736POPS   GL211252   6.276  17.126   6.276 -0.1394  0.2078 -0.1457
  736POPS   C1A11253   6.179  16.843   6.660 -0.3665  0.3778  0.3145
  736POPS   D2A11254   6.392  16.831   7.005  0.3693 -0.1085 -0.2733
  736POPS   C3A11255   6.728  17.043   7.317 -0.0059 -0.0431 -0.0058
  736POPS   C4A11256   6.891  17.029   7.824 -0.1600 -0.1442  0.0258
  736POPS   C1B11257   6.384  17.357   6.640 -0.3540  0.1298 -0.3251
  736POPS   C2B11258   6.309  17.375   7.089 -0.1010 -0.0318 -0.2551
  736POPS   C3B11259   5.915  17.411   7.387  0.0369 -0.1505 -0.2567
  736POPS   C4B11260   5.499  17.409   7.742 -0.0977  0.0654  0.0318
  737POPS   CNO11261   9.370  15.061   5.966  0.1863 -0.1063 -0.4152
  737POPS   PO411262   9.286  15.131   6.434 -0.1232  0.1563  0.2136
  737POPS   GL111263   9.354  15.355   6.764  0.0540  0.1491 -0.0936
  737POPS   GL211264   9.405  15.649   6.674 -0.0126 -0.0586 -0.0905
  737POPS   C1A11265   9.324  15.307   7.224  0.2389 -0.0333  0.2182
  737POPS   D2A11266   9.474  15.595   7.531  0.3320 -0.0913  0.0772
  737POPS   C3A11267   9.349  15.794   7.818  0.0839 -0.1713  0.0192
  737POPS   C4A11268   9.084  15.899   8.016  0.0400 -0.0973  0.0454
  737POPS   C1B11269   9.510  15.975   6.998 -0.0113  0.2507  0.0551
  737POPS   C2B11270   9.529  16.166   7.459  0.1863 -0.1465  0.0879
  737POPS   C3B11271   9.752  16.195   7.825 -0.0362  0.0897 -0.3500
  737POPS   C4B11272   9.434  16.339   8.115  0.3634 -0.0325 -0.2461
  738POPS   CNO11273  11.089   6.961   5.915  0.0025  0.5099  0.0308
  738POPS   PO411274  10.684   7.061   5.763  0.1030  0.2066  0.0544
  738POPS   GL111275  10.571   7.023   6.220 -0.3251 -0.0980 -0.3692
  738POPS   GL211276  10.360   7.225   6.461 -0.2280  0.0113  0.1429
  738POPS   C1A11277  10.797   7.061   6.599 -0.5510  0.1583  0.0200
  738POPS   D2A11278  11.229   7.208   6.699 -0.2210 -0.0410  0.1054
  738POPS   C3A11279  11.077   7.208   7.116  0.0902  0.0515 -0.1982
  738POPS   C4A11280  10.947   6.776   7.388  0.1460  0.1179  0.0919
  738POPS   C1B11281  10.438   7.376   6.794  0.1037 -0.1719  0.2937
  738POPS   C2B11282  10.689   7.505   6.994  0.2894  0.0216 -0.1329
  738POPS   C3B11283  11.076   7.759   7.070 -0.2524 -0.0042 -0.1395
  738POPS   C4B11284  11.530   7.546   7.019  0.1713 -0.2078  0.1223
  739POPS   CNO11285   3.020  17.811   5.931  0.3631 -0.2058  0.1888
  739POPS   PO411286   2.715  17.897   5.597  0.0265 -0.1360  0.0796
  739POPS   GL111287   2.619  18.063   5.917  0.1593 -0.0533  0.1365
  739POPS   GL211288   2.332  18.036   6.050 -0.0583  0.2481  0.0162
  739POPS   C1A11289   2.842  18.204   6.204 -0.2463 -0.3021  0.1085
  739POPS   D2A11290   3.159  18.205   6.581  0.1147  0.1009  0.0960
  739POPS   C3A11291   3.302  17.848   6.743 -0.2872  0.0690 -0.1659
  739POPS   C4A11292   3.172  17.462   6.821  0.0127  0.1403  0.1501
  739POPS   C1B11293   2.341  18.068   6.440  0.1747 -0.0738 -0.1002
  739POPS   C2B11294   2.250  17.944   6.821 -0.0639 -0.1369  0.0454
  739POPS   C3B11295   2.017  17.821   7.200 -0.1065 -0.0902 -0.2135
  739POPS   C4B11296   1.986  17.563   7.470 -0.2727  0.2200  0.0915
  740POPS   CNO11297   1.583  10.180   5.310 -0.0997  0.1924 -0.0258
  740POPS   PO411298   1.365  10.427   5.611 -0.2300 -0.3325  0.3422
  740POPS   GL111299   1.108  10.543   5.997 -0.1157 -0.0083 -0.0484
  740POPS   GL211300   0.965  10.868   6.057 -0.1693 -0.0469 -0.1947
  740POPS   C1A11301   1.127  10.664   6.530 -0.0689  0.2129  0.3149
  740POPS   D2A11302   1.271  10.639   6.928 -0.0211  0.2291 -0.0836
  740POPS   C3A11303   0.948  10.688   7.223  0.0617  0.0519 -0.0548
  740POPS   C4A11304   0.779  10.833   7.738 -0.4763  0.1452 -0.1624
  740POPS   C1B11305   0.766  11.013   6.483 -0.2691 -0.3730  0.3174
  740POPS   C2B11306   0.649  10.960   6.926  0.3641  0.1127  0.1281
  740POPS   C3B11307   0.480  10.691   7.239  0.2598  0.0245 -0.1246
  740POPS   C4B11308   0.063  10.505   7.322  0.0336 -0.0736 -0.0333
  741POPS   CNO11309  12.606   8.414   6.214 -0.1044 -0.0356 -0.2624
  741POPS   PO411310  12.916   8.454   6.253 -0.0505  0.3853 -0.2949
  741POPS   GL111311  12.957   8.197   6.576 -0.0036  0.1169 -0.0582
  741POPS   GL211312  12.676   8.278   6.808 -0.0044  0.2072 -0.4285
  741POPS   C1A11313  13.205   8.179   6.801 -0.1656  0.4869  0.1442
  741POPS   D2A11314  13.257   8.319   7.117  0.0538  0.2844 -0.3754
  741POPS   C3A11315  13.252   8.304   7.511  0.1446  0.0092  0.2026
  741POPS   C4A11316  13.272   8.296   7.952  0.3323  0.1488 -0.0202
  741POPS   C1B11317  12.900   8.598   6.919 -0.0270  0.0788  0.0964
  741POPS   C2B11318  12.690   8.926   7.159  0.0979 -0.1160  0.1396
  741POPS   C3B11319  12.529   8.946   7.601 -0.1095 -0.3570 -0.0514
  741POPS   C4B11320  12.279   8.766   7.899  0.2776 -0.0611  0.4181
  742POPS   CNO11321  16.456  10.244   5.542  0.0388  0.0690  0.1479
  742POPS   PO411322  16.183  10.248   5.719  0.1399  0.0766  0.0111
  742POPS   GL111323  16.154  10.286   6.118 -0.1238  0.1409  0.1434
  742POPS   GL211324  16.420  10.283   6.286  0.1243  0.0227  0.1538
  742POPS   C1A11325  15.863  10.236   6.487  0.1000  0.0821  0.3349
  742POPS   D2A11326  15.923  10.378   6.822  0.2530 -0.3467  0.0488
  742POPS   C3A11327  15.627  10.636   7.109 -0.2133 -0.0212 -0.0772
  742POPS   C4A11328  15.549  10.470   7.518 -0.0076  0.0194 -0.0823
  742POPS   C1B11329  16.594  10.153   6.658  0.0075  0.1567 -0.1178
  742POPS   C2B11330  16.353  10.324   7.040  0.0050  0.0997  0.0877
  742POPS   C3B11331  16.347  10.458   7.487 -0.1405 -0.0576  0.5307
  742POPS   C4B11332  16.018  10.410   7.738 -0.0143 -0.0540  0.0671
  743POPS   CNO11333   3.433  14.137   5.602 -0.1850  0.0192 -0.2332
  743POPS   PO411334   3.048  14.190   5.759  0.1392  0.1251  0.1162
  743POPS   GL111335   2.795  14.316   6.176 -0.1901  0.3603  0.1078
  743POPS   GL211336   2.600  14.072   6.204  0.2287  0.1398 -0.0515
  743POPS   C1A11337   2.407  14.671   6.385 -0.2112  0.2008 -0.1020
  743POPS   D2A11338   2.026  14.779   6.477  0.1782 -0.1670  0.0359
  743POPS   C3A11339   1.824  14.492   6.808  0.0138 -0.0261  0.1681
  743POPS   C4A11340   2.003  14.348   7.246 -0.5169  0.0657 -0.0141
  743POPS   C1B11341   2.527  13.765   6.479 -0.1249 -0.0425  0.3421
  743POPS   C2B11342   2.317  13.573   6.785 -0.2143  0.0349 -0.0760
  743POPS   C3B11343   1.995  13.514   7.128 -0.3121  0.0812 -0.2235
  743POPS   C4B11344   1.594  13.797   7.229 -0.0645 -0.1969  0.2388
  744POPS   CNO11345   5.295   1.362   5.599  0.1126 -0.5360 -0.1406
  744POPS   PO411346   5.001   1.657   5.741 -0.2633  0.4535 -0.2818
  744POPS   GL111347   5.100   1.504   6.163  0.0745 -0.0846 -0.0220
  744POPS   GL211348   5.159   1.815   6.281 -0.2453 -0.0494  0.3732
  744POPS   C1A11349   5.102   1.295   6.618 -0.1285  0.1762 -0.0979
  744POPS   D2A11350   4.866   1.401   6.969  0.1630 -0.0172  0.0083
  744POPS   C3A11351   5.006   1.342   7.329  0.3093 -0.2473  0.3115
  744POPS   C4A11352   5.416   1.432   7.691  0.1211 -0.0265 -0.0420
  744POPS   C1B11353   4.969   1.804   6.708 -0.0090 -0.0215 -0.0380
  744POPS   C2B11354   5.269   1.784   7.078 -0.2157  0.1336 -0.2686
  744POPS   C3B11355   5.620   1.837   7.358  0.1742 -0.1655 -0.0035
  744POPS   C4B11356   5.954   1.614   7.484 -0.0064 -0.2227  0.0074
  745POPS   CNO11357   3.313  15.423   5.555  0.1022  0.1700 -0.0234
  745POPS   PO411358   3.469  15.835   5.581 -0.0991  0.1691  0.2451
  745POPS   GL111359   3.344  15.720   5.951  0.0601  0.1399  0.1297
  745POPS   GL211360   3.102  15.883   6.016  0.2423 -0.2088 -0.1174
  745POPS   C1A11361   3.491  15.571   6.300 -0.2747 -0.4157 -0.3634
  745POPS   D2A11362   3.330  15.296   6.663 -0.0913  0.3304 -0.1870
  745POPS   C3A11363   2.993  14.978   6.726 -0.2444  0.0189 -0.2110
  745POPS   C4A11364   2.609  15.031   6.637  0.3705 -0.1704  0.1326
  745POPS   C1B11365   2.976  15.633   6.379  0.0608  0.0923  0.2223
  745POPS   C2B11366   2.795  15.491   6.792  0.0701 -0.1975  0.0612
  745POPS   C3B11367   2.754  15.171   7.135 -0.2930 -0.1851  0.2276
  745POPS   C4B11368   2.790  14.761   7.268  0.0062  0.3501 -0.3467
  746POPS   CNO11369   9.518   4.532   6.161  0.4781  0.0827  0.0861
  746POPS   PO411370   9.600   4.966   6.091 -0.0890 -0.2560 -0.1496
  746POPS   GL111371   9.950   4.734   6.326  0.1643 -0.2395  0.0550
  746POPS   GL211372   9.803   4.878   6.608  0.0061  0.0224 -0.0037
  746POPS   C1A11373   9.880   4.346   6.575  0.0553  0.3338  0.1355
  746POPS   D2A11374   9.898   4.282   6.948  0.4971 -0.1623  0.1934
  746POPS   C3A11375   9.945   4.276   7.397  0.1229  0.2983  0.0622
  746POPS   C4A11376   9.932   4.048   7.799  0.2138  0.0703 -0.1039
  746POPS   C1B11377   9.884   5.186   6.881  0.2501  0.1097  0.1846
  746POPS   C2B11378   9.975   5.574   7.212  0.0508 -0.3528 -0.0617
  746POPS   C3B11379  10.025   5.808   7.600 -0.1733 -0.0753  0.0113
  746POPS   C4B11380  10.084   6.322   7.678 -0.2271 -0.1684  0.2584
  747POPS   CNO11381   9.176   4.350   5.772 -0.0558 -0.0818  0.0498
  747POPS   PO411382   9.587   4.072   5.858  0.1500 -0.0234 -0.0508
  747POPS   GL111383   9.630   4.006   6.285 -0.0978 -0.0797 -0.0416
  747POPS   GL211384   9.349   4.054   6.337 -0.0513  0.2105  0.0363
  747POPS   C1A11385   9.773   3.771   6.626 -0.2404 -0.2485  0.0517
  747POPS   D2A11386   9.539   3.959   6.937 -0.0644  0.2978 -0.1072
  747POPS   C3A11387   9.486   3.892   7.331  0.0018  0.0665 -0.0226
  747POPS   C4A11388   9.593   3.691   7.693  0.5194  0.1614  0.1538
  747POPS   C1B11389   9.099   4.091   6.783  0.1902  0.1875 -0.1171
  747POPS   C2B11390   8.720   3.931   6.809  0.0680 -0.0164 -0.1105
  747POPS   C3B11391   8.509   3.740   7.163  0.0306 -0.0310  0.0205
  747POPS   C4B11392   8.298   3.738   7.662 -0.0471 -0.1376 -0.0481
  748POPS   CNO11393   6.250  17.084   5.699  0.0755  0.2100 -0.1676
  748POPS   PO411394   6.326  17.530   5.884  0.1017  0.3588  0.4550
  748POPS   GL111395   6.153  17.633   6.283  0.2471  0.1134 -0.1707
  748POPS   GL211396   5.889  17.543   6.374 -0.0576  0.0953 -0.1398
  748POPS   C1A11397   6.065  17.765   6.807  0.0303  0.2155 -0.1844
  748POPS   D2A11398   5.728  17.676   6.985 -0.2496  0.0202  0.1218
  748POPS   C3A11399   5.707  17.944   7.261 -0.0452 -0.0763  0.1750
  748POPS   C4A11400   5.888  18.215   7.615 -0.1197  0.0641 -0.0782
  748POPS   C1B11401   5.864  17.235   6.649 -0.2515  0.1787 -0.0458
  748POPS   C2B11402   5.952  17.016   7.106  0.0270 -0.2898 -0.1046
  748POPS   C3B11403   6.256  17.022   7.434  0.1031  0.1468  0.1650
  748POPS   C4B11404   6.349  16.987   7.929 -0.2970  0.0761 -0.0548
  749POPS   CNO11405  12.611   4.989   6.135 -0.0487  0.1744  0.1279
  749POPS   PO411406  12.301   5.369   6.135  0.0717  0.0716 -0.0022
  749POPS   GL111407  12.586   5.277   6.483  0.1251 -0.1432  0.2281
  749POPS   GL211408  12.903   5.141   6.560 -0.2490  0.0973 -0.0723
  749POPS   C1A11409  12.589   4.802   6.663  0.0066 -0.3689  0.1398
  749POPS   D2A11410  12.633   4.637   7.077  0.1475 -0.2042  0.0514
  749POPS   C3A11411  12.763   4.694   7.518  0.1916 -0.0855 -0.1555
  749POPS   C4A11412  12.689   4.844   7.898  0.1331 -0.1534  0.3633
  749POPS   C1B11413  12.912   5.120   6.948  0.3562 -0.0109  0.0903
  749POPS   C2B11414  12.844   5.109   7.304 -0.0504 -0.2593 -0.1580
  749POPS   C3B11415  12.471   5.163   7.581  0.1375  0.1014 -0.0093
  749POPS   C4B11416  12.105   5.432   7.747 -0.3380 -0.3479 -0.4990
  750POPS   CNO11417   7.175   7.163   5.526 -0.0926  0.1762 -0.0388
  750POPS   PO411418   7.073   7.120   6.017  0.2535  0.0154  0.0418
  750POPS   GL111419   7.002   6.880   6.377  0.0265  0.0149  0.0299
  750POPS   GL211420   7.101   7.090   6.508 -0.1982  0.1045 -0.1160
  750POPS   C1A11421   6.639   6.703   6.652  0.1883 -0.2676 -0.3840
  750POPS   D2A11422   6.497   6.798   7.115 -0.0063  0.1514  0.6352
  750POPS   C3A11423   6.231   6.663   7.488 -0.0571  0.0007 -0.3043
  750POPS   C4A11424   5.992   6.473   7.784 -0.1053  0.2499  0.5233
  750POPS   C1B11425   6.958   6.959   6.913 -0.0302  0.0813  0.2716
  750POPS   C2B11426   6.935   6.897   7.346  0.1774  0.3903  0.1545
  750POPS   C3B11427   6.729   6.821   7.740 -0.0107  0.0009 -0.2021
  750POPS   C4B11428   6.603   6.901   8.125  0.0615 -0.0017  0.1844
  751POPS   CNO11429   2.699  13.006   5.338 -0.3293  0.2002  0.1111
  751POPS   PO411430   2.886  13.257   5.669  0.0953 -0.0221 -0.2360
  751POPS   GL111431   2.949  13.141   6.060 -0.0886  0.0481  0.1305
  751POPS   GL211432   2.818  13.517   6.151  0.1070  0.1248  0.0744
  751POPS   C1A11433   3.344  13.330   6.331 -0.0131  0.2889  0.0854
  751POPS   D2A11434   3.455  13.375   6.707 -0.4060  0.0702 -0.1229
  751POPS   C3A11435   3.796  13.572   6.971 -0.1924 -0.2272  0.1535
  751POPS   C4A11436   3.797  13.983   7.128 -0.1280 -0.0378 -0.0777
  751POPS   C1B11437   3.074  13.769   6.381  0.1799  0.1915  0.2640
  751POPS   C2B11438   3.012  14.132   6.589  0.2465 -0.2170 -0.1022
  751POPS   C3B11439   2.775  14.466   6.742  0.0845  0.3993  0.1088
  751POPS   C4B11440   2.343  14.599   6.921 -0.0128 -0.1389 -0.0509
  752POPS   CNO11441  13.701   6.829   5.783 -0.1949 -0.2503 -0.0380
  752POPS   PO411442  13.296   6.930   5.734 -0.1627  0.0769 -0.0358
  752POPS   GL111443  13.241   7.257   6.141  0.0025 -0.0624  0.0508
  752POPS   GL211444  12.983   7.311   6.051  0.1823 -0.2246 -0.1106
  752POPS   C1A11445  12.807   7.088   6.514 -0.3044  0.0831  0.2179
  752POPS   D2A11446  12.548   7.091   6.920 -0.2459 -0.2119  0.0861
  752POPS   C3A11447  12.718   6.994   7.417  0.5556 -0.2303  0.0760
  752POPS   C4A11448  12.511   6.780   7.773  0.4122 -0.0180 -0.0266
  752POPS   C1B11449  12.901   7.616   6.468  0.3543  0.1340  0.3039
  752POPS   C2B11450  13.180   7.659   6.808  0.1169  0.3282 -0.1942
  752POPS   C3B11451  13.493   7.432   7.114 -0.1938 -0.3613 -0.2290
  752POPS   C4B11452  13.763   7.099   7.213 -0.1339  0.1421  0.1912
  753POPS   CNO11453  15.137  18.359   5.479  0.1111 -0.1222 -0.1712
  753POPS   PO411454  15.516  18.218   5.380 -0.0433  0.0577 -0.0209
  753POPS   GL111455  15.486  18.440   5.849 -0.0006 -0.2413  0.1952
  753POPS   GL211456  15.440  18.797   5.916 -0.2549 -0.1920 -0.0465
  753POPS   C1A11457  15.130  18.347   6.131  0.1744 -0.0606  0.1937
  753POPS   D2A11458  14.687  18.548   6.335  0.3700  0.1161 -0.0723
  753POPS   C3A11459  14.737  18.678   6.720 -0.1530  0.0607 -0.0006
  753POPS   C4A11460  14.764  18.492   7.052 -0.0557  0.2137 -0.1734
  753POPS   C1B11461  15.218  18.845   6.386  0.0685 -0.2419 -0.3335
  753POPS   C2B11462  15.298  18.696   6.851 -0.1758  0.1458  0.0831
  753POPS   C3B11463  15.231  18.348   7.144  0.2365 -0.0504 -0.1747
  753POPS   C4B11464  14.909  17.999   7.097  0.2552  0.0943 -0.2585
  754POPS   CNO11465   6.723  12.210   5.685  0.1830 -0.0691  0.3893
  754POPS   PO411466   7.124  12.075   5.676  0.0430 -0.0143 -0.2016
  754POPS   GL111467   7.069  12.268   6.093  0.2286  0.0107 -0.0039
  754POPS   GL211468   7.237  11.907   6.181 -0.2760 -0.2511 -0.0149
  754POPS   C1A11469   7.132  12.404   6.536 -0.0304 -0.0572  0.2468
  754POPS   D2A11470   7.457  12.306   6.756  0.1225 -0.2228 -0.3155
  754POPS   C3A11471   7.679  12.180   7.203 -0.1263  0.0555 -0.1011
  754POPS   C4A11472   7.725  11.850   7.494  0.0147 -0.5187  0.1032
  754POPS   C1B11473   7.094  11.881   6.626  0.1108  0.4411  0.0755
  754POPS   C2B11474   6.679  11.901   6.981 -0.1293 -0.1406 -0.1460
  754POPS   C3B11475   6.674  11.771   7.394 -0.2354 -0.0357  0.0593
  754POPS   C4B11476   6.845  11.844   7.843  0.0306 -0.0863 -0.2649
  755POPS   CNO11477  10.695  10.388   6.232  0.1113 -0.0157  0.0174
  755POPS   PO411478  10.393  10.012   6.261  0.1874  0.3097 -0.0498
  755POPS   GL111479  10.436  10.186   6.637 -0.1539  0.0180 -0.3051
  755POPS   GL211480  10.294  10.521   6.585 -0.3187  0.1631  0.1991
  755POPS   C1A11481  10.723  10.443   6.752 -0.1126 -0.0276 -0.1064
  755POPS   D2A11482  11.056  10.742   6.904  0.0860  0.0380 -0.0652
  755POPS   C3A11483  10.949  11.095   7.210 -0.1852 -0.3409  0.3669
  755POPS   C4A11484  11.081  11.179   7.644  0.0598 -0.0307  0.0355
  755POPS   C1B11485  10.234  10.374   7.070  0.2191  0.1589  0.0868
  755POPS   C2B11486  10.220  10.238   7.513  0.0652  0.1306  0.3330
  755POPS   C3B11487   9.870  10.209   7.812 -0.1095 -0.4090  0.0973
  755POPS   C4B11488   9.852  10.452   8.256 -0.4546  0.1295 -0.1051
  756POPS   CNO11489  13.733  14.275   5.581  0.3138 -0.0209  0.0673
  756POPS   PO411490  13.332  14.222   5.746  0.1557  0.1952 -0.0457
  756POPS   GL111491  13.464  14.191   6.141 -0.1062  0.6142 -0.1038
  756POPS   GL211492  13.745  14.371   6.186 -0.2424 -0.0066 -0.0559
  756POPS   C1A11493  13.304  14.057   6.566 -0.2912  0.0161  0.0313
  756POPS   D2A11494  13.507  14.029   6.939 -0.1373 -0.2843  0.0190
  756POPS   C3A11495  13.496  14.042   7.373 -0.3406  0.1534  0.3931
  756POPS   C4A11496  13.684  14.152   7.788  0.1560  0.0710  0.0208
  756POPS   C1B11497  13.785  13.994   6.460 -0.1855  0.0403 -0.1002
  756POPS   C2B11498  13.829  13.636   6.890  0.3011  0.3283  0.1954
  756POPS   C3B11499  13.957  13.294   7.262 -0.1064 -0.0705 -0.0117
  756POPS   C4B11500  14.089  12.811   7.403  0.0672  0.0369 -0.1408
  757POPS   CNO11501  17.410  13.781   5.512  0.1181 -0.0240 -0.5167
  757POPS   PO411502  17.480  13.376   5.694 -0.2354 -0.0707 -0.0674
  757POPS   GL111503  17.637  13.276   5.913 -0.2300  0.0982 -0.0021
  757POPS   GL211504  17.712  13.425   6.229 -0.0910  0.0770 -0.3012
  757POPS   C1A11505  17.916  13.044   6.010 -0.1191  0.0877  0.0522
  757POPS   D2A11506  18.028  12.589   6.161 -0.0945 -0.2806  0.1327
  757POPS   C3A11507  18.253  12.331   6.432 -0.0544 -0.1235  0.0339
  757POPS   C4A11508  18.412  12.502   6.794  0.2257 -0.1469 -0.0362
  757POPS   C1B11509  17.661  13.071   6.463 -0.2575  0.2755  0.0328
  757POPS   C2B11510  17.665  12.861   6.920  0.0143 -0.2078  0.5317
  757POPS   C3B11511  17.454  12.855   7.318  0.0252 -0.0982 -0.2526
  757POPS   C4B11512  17.221  12.995   7.705  0.0936  0.0447  0.0158
  758POPS   CNO11513   5.724   0.468   5.231 -0.1736 -0.0964  0.3453
  758POPS   PO411514   5.489   0.803   5.430  0.0626  0.1534 -0.0121
  758POPS   GL111515   5.673   1.108   5.738  0.2073  0.1717  0.1384
  758POPS   GL211516   5.902   1.223   5.742 -0.0754  0.0561 -0.1551
  758POPS   C1A11517   5.594   1.269   6.188  0.0565 -0.1002  0.0140
  758POPS   D2A11518   5.873   1.150   6.561 -0.0201  0.0599 -0.0630
  758POPS   C3A11519   5.716   0.955   6.841 -0.1533  0.0744 -0.0079
  758POPS   C4A11520   5.799   0.741   7.161 -0.0858 -0.0901  0.0319
  758POPS   C1B11521   6.313   1.111   5.920 -0.2293  0.1179 -0.1085
  758POPS   C2B11522   6.333   1.011   6.429  0.0802 -0.1490  0.0887
  758POPS   C3B11523   6.260   1.183   6.851 -0.3160 -0.0134  0.3181
  758POPS   C4B11524   6.006   1.300   7.130  0.0259 -0.1519  0.0332
  759POPS   CNO11525   6.356  14.303   5.886  0.1251  0.1595 -0.3251
  759POPS   PO411526   6.109  14.621   6.014  0.1203  0.3727 -0.0250
  759POPS   GL111527   5.923  14.577   6.386 -0.2123  0.1793  0.0671
  759POPS   GL211528   6.019  14.267   6.391 -0.2303 -0.3110  0.1427
  759POPS   C1A11529   5.720  14.622   6.805 -0.1136 -0.1465 -0.0191
  759POPS   D2A11530   5.627  14.630   7.162 -0.2110  0.0153  0.0748
  759POPS   C3A11531   5.222  14.675   7.196 -0.4665  0.1304  0.3495
  759POPS   C4A11532   4.903  14.819   7.517 -0.0572  0.1772  0.1616
  759POPS   C1B11533   6.213  14.388   6.738  0.1979  0.3619  0.0306
  759POPS   C2B11534   6.186  14.496   7.142  0.1621 -0.1075  0.0415
  759POPS   C3B11535   5.911  14.448   7.502 -0.1825 -0.0419  0.0719
  759POPS   C4B11536   5.401  14.399   7.551 -0.1256  0.1683 -0.3528
  760POPS   CNO11537  13.791  11.992   5.748 -0.1873  0.1994 -0.0677
  760POPS   PO411538  13.456  11.870   5.845  0.3448 -0.0131 -0.1147
  760POPS   GL111539  13.350  12.060   6.167  0.0858  0.0123 -0.2772
  760POPS   GL211540  13.142  12.365   6.123  0.1069 -0.1840  0.1216
  760POPS   C1A11541  13.491  12.071   6.564  0.0768  0.0967 -0.0069
  760POPS   D2A11542  13.225  11.983   6.910  0.1693  0.0315 -0.0429
  760POPS   C3A11543  13.340  12.167   7.221  0.0821  0.0521  0.1510
  760POPS   C4A11544  13.330  12.457   7.552 -0.0649  0.2522  0.0540
  760POPS   C1B11545  12.952  12.163   6.566  0.1293 -0.2665 -0.2027
  760POPS   C2B11546  12.571  12.142   6.798  0.1582  0.0589 -0.1403
  760POPS   C3B11547  12.126  12.230   6.734  0.0551 -0.4137  0.1935
  760POPS   C4B11548  11.854  12.454   6.463 -0.0753  0.0568  0.1513
  761POPS   CNO11549   5.252   9.245   5.548  0.2723 -0.0903  0.2305
  761POPS   PO411550   5.222   8.917   5.783  0.0518 -0.3306 -0.1025
  761POPS   GL111551   5.129   8.771   6.142  0.0330  0.2311 -0.2506
  761POPS   GL211552   4.898   8.440   6.238 -0.2390 -0.1265 -0.1675
  761POPS   C1A11553   5.139   8.996   6.546  0.1728 -0.2127 -0.0495
  761POPS   D2A11554   5.506   8.987   6.810  0.0577  0.2269 -0.0179
  761POPS   C3A11555   5.966   9.111   6.680  0.2541  0.2179 -0.1648
  761POPS   C4A11556   6.313   8.905   6.509 -0.0890  0.0035 -0.0088
  761POPS   C1B11557   4.830   8.634   6.628 -0.1405  0.2520 -0.3642
  761POPS   C2B11558   4.988   8.960   6.997 -0.2167 -0.0535 -0.1723
  761POPS   C3B11559   5.036   9.250   7.383  0.0959 -0.0478 -0.0832
  761POPS   C4B11560   4.982   9.625   7.687 -0.3160 -0.2964  0.2026
  762POPS   CNO11561   9.648   8.898   6.111  0.0302  0.2647 -0.1425
  762POPS   PO411562   9.987   8.566   6.096 -0.1210 -0.0068 -0.0138
  762POPS   GL111563  10.005   8.246   6.432  0.1210 -0.0927 -0.2264
  762POPS   GL211564  10.434   8.371   6.560 -0.4866  0.2866  0.0909
  762POPS   C1A11565   9.994   8.292   6.862  0.0415  0.0317  0.4176
  762POPS   D2A11566  10.119   8.436   7.303 -0.0514 -0.0394  0.0543
  762POPS   C3A11567  10.340   8.269   7.590  0.0284 -0.1058  0.0846
  762POPS   C4A11568  10.681   8.243   7.782 -0.1078 -0.1441 -0.0279
  762POPS   C1B11569  10.335   8.662   6.837  0.0071 -0.1003  0.2473
  762POPS   C2B11570   9.933   9.009   7.005 -0.1588  0.0911 -0.0321
  762POPS   C3B11571   9.592   9.440   6.890 -0.1101  0.1984 -0.1285
  762POPS   C4B11572   9.459   9.890   6.698 -0.2662 -0.2332  0.5187
  763POPS   CNO11573   6.030   0.120   5.551 -0.1683  0.1290  0.4647
  763POPS   PO411574   6.098  -0.274   5.607 -0.4790  0.0377  0.4182
  763POPS   GL111575   6.144  -0.219   6.009  0.0432  0.1594  0.0965
  763POPS   GL211576   5.806  -0.150   6.061  0.2210  0.0793 -0.3370
  763POPS   C1A11577   6.083  -0.397   6.372 -0.0883  0.2471 -0.2853
  763POPS   D2A11578   6.182  -0.296   6.731  0.0056 -0.2761  0.0922
  763POPS   C3A11579   6.634  -0.114   6.856  0.1770 -0.1386 -0.1020
  763POPS   C4A11580   6.605   0.222   7.135 -0.0308 -0.0986  0.0177
  763POPS   C1B11581   5.904   0.248   6.158 -0.1389  0.1414 -0.0196
  763POPS   C2B11582   6.099   0.464   6.446 -0.3224  0.1282  0.2438
  763POPS   C3B11583   6.231   0.633   6.800  0.1764 -0.2749 -0.0887
  763POPS   C4B11584   6.540   0.794   6.929  0.1262  0.3760 -0.1501
  764POPS   CNO11585   2.659  10.801   5.589  0.2934 -0.1278 -0.1678
  764POPS   PO411586   2.955  10.751   5.972  0.0302 -0.4247 -0.3704
  764POPS   GL111587   2.761  10.676   6.380  0.0345 -0.2324 -0.1416
  764POPS   GL211588   2.400  10.788   6.523  0.1180  0.0158 -0.0185
  764POPS   C1A11589   2.713  10.728   6.861 -0.3172 -0.1218 -0.1077
  764POPS   D2A11590   2.766  10.837   7.313  0.1026 -0.3462  0.0744
  764POPS   C3A11591   2.852  10.554   7.661 -0.1398 -0.3306 -0.3788
  764POPS   C4A11592   3.233  10.581   8.028  0.0725 -0.1413  0.0372
  764POPS   C1B11593   2.343  11.137   6.702 -0.0412 -0.2847 -0.1570
  764POPS   C2B11594   2.000  11.281   7.017 -0.3203  0.0806 -0.3875
  764POPS   C3B11595   2.077  11.538   7.443 -0.0556  0.2327 -0.2001
  764POPS   C4B11596   2.187  11.754   7.837 -0.0780  0.2574 -0.1983
  765POPS   CNO11597  15.491  17.713   5.378 -0.0701 -0.1618  0.1567
  765POPS   PO411598  15.262  17.512   5.684 -0.0090  0.0102  0.3086
  765POPS   GL111599  15.635  17.686   5.925  0.0900 -0.0029  0.3845
  765POPS   GL211600  15.835  17.902   5.774 -0.1255 -0.1778 -0.3248
  765POPS   C1A11601  15.535  18.054   6.198  0.2971  0.1122  0.0038
  765POPS   D2A11602  15.472  18.268   6.651  0.3092 -0.1084  0.0761
  765POPS   C3A11603  15.626  18.172   6.954  0.1986  0.2951 -0.0470
  765POPS   C4A11604  15.814  18.022   7.299 -0.0216 -0.0470 -0.1926
  765POPS   C1B11605  15.991  17.944   6.220 -0.0978  0.2008 -0.0372
  765POPS   C2B11606  15.984  18.016   6.570 -0.6054  0.2201  0.0656
  765POPS   C3B11607  16.140  18.295   6.847 -0.1471  0.0269  0.1584
  765POPS   C4B11608  16.568  18.435   6.879 -0.0282  0.0282 -0.0157
  766POPS   CNO11609  11.421   3.473   5.775  0.4579  0.1886 -0.2159
  766POPS   PO411610  10.928   3.285   5.779  0.3602 -0.2703  0.4297
  766POPS   GL111611  10.736   2.975   6.033  0.1266 -0.0613 -0.2868
  766POPS   GL211612  10.529   3.130   6.173  0.0228 -0.0298 -0.1169
  766POPS   C1A11613  10.610   2.703   6.417  0.1876  0.0071 -0.1146
  766POPS   D2A11614  10.807   2.732   6.848 -0.2050 -0.3463  0.0597
  766POPS   C3A11615  10.613   2.449   7.176  0.1556 -0.0768  0.1716
  766POPS   C4A11616  10.855   2.271   7.558  0.1915 -0.0999  0.0301
  766POPS   C1B11617  10.198   2.981   6.546  0.0415  0.2507 -0.2074
  766POPS   C2B11618  10.181   2.700   6.853  0.0298 -0.1520  0.0138
  766POPS   C3B11619  10.140   2.289   6.866  0.0961 -0.1182  0.0846
  766POPS   C4B11620  10.022   1.938   6.920  0.1111  0.0709 -0.1253
  767POPS   CNO11621  12.156   6.093   5.682 -0.2900 -0.3216 -0.1128
  767POPS   PO411622  11.837   5.940   5.972  0.2223 -0.2061 -0.1621
  767POPS   GL111623  11.908   6.157   6.302 -0.1453  0.1498 -0.1945
  767POPS   GL211624  11.684   6.351   6.314  0.0403  0.0950  0.0516
  767POPS   C1A11625  11.966   6.301   6.766  0.1152 -0.0070  0.2274
  767POPS   D2A11626  11.882   6.469   7.130  0.1804 -0.1369 -0.1071
  767POPS   C3A11627  12.195   6.650   7.418  0.0330  0.1585 -0.1476
  767POPS   C4A11628  12.246   7.118   7.543 -0.1107 -0.1038  0.2802
  767POPS   C1B11629  11.616   6.552   6.530  0.1008 -0.0127 -0.0312
  767POPS   C2B11630  11.726   6.868   6.773 -0.0182  0.0905  0.0724
  767POPS   C3B11631  11.531   6.953   7.135 -0.3889 -0.0258 -0.0525
  767POPS   C4B11632  11.404   7.238   7.505  0.1864  0.4648  0.2484
  768POPS   CNO11633   3.991   5.662   5.676 -0.2366  0.0445 -0.1610
  768POPS   PO411634   3.895   5.279   5.906 -0.1029  0.2021 -0.0918
  768POPS   GL111635   4.009   5.577   6.194  0.0700 -0.1841 -0.2549
  768POPS   GL211636   3.932   5.892   6.255  0.0932  0.0625  0.0339
  768POPS   C1A11637   4.160   5.565   6.538 -0.1372  0.0461 -0.3362
  768POPS   D2A11638   4.477   5.312   6.757 -0.1863  0.3903 -0.1115
  768POPS   C3A11639   4.597   5.399   7.060  0.4452 -0.0800  0.2534
  768POPS   C4A11640   4.523   5.616   7.324  0.0923  0.2309  0.3412
  768POPS   C1B11641   3.623   5.627   6.496 -0.1921 -0.0981  0.3203
  768POPS   C2B11642   3.517   5.126   6.417 -0.1767  0.1818 -0.3925
  768POPS   C3B11643   3.513   4.862   6.721 -0.0992 -0.2838  0.1773
  768POPS   C4B11644   3.798   4.788   7.088  0.0999 -0.3867 -0.1914
  769POPS   CNO11645   8.571  12.044   5.734 -0.2070 -0.3234 -0.0894
  769POPS   PO411646   8.773  11.632   5.838 -0.0009  0.1347  0.0453
  769POPS   GL111647   8.880  11.629   6.203  0.3438 -0.0452 -0.1906
  769POPS   GL211648   8.789  11.976   6.231  0.0893  0.1731  0.2710
  769POPS   C1A11649   8.905  11.708   6.665 -0.1149 -0.1602  0.0227
  769POPS   D2A11650   8.728  11.641   7.046 -0.1673  0.0950 -0.1282
  769POPS   C3A11651   8.666  11.282   7.330  0.1137  0.0843  0.0433
  769POPS   C4A11652   8.457  11.001   7.611  0.2688  0.1873 -0.0356
  769POPS   C1B11653   8.417  12.270   6.348  0.0977 -0.0027  0.1274
  769POPS   C2B11654   7.965  12.293   6.359  0.2476  0.0062  0.0689
  769POPS   C3B11655   7.521  12.427   6.231 -0.0538 -0.2440  0.0480
  769POPS   C4B11656   7.179  12.788   6.143  0.1172 -0.0410 -0.1473
  770POPS   CNO11657   4.304   6.303   5.429 -0.0650  0.3597 -0.2311
  770POPS   PO411658   3.794   6.148   5.606  0.1343  0.0802 -0.2041
  770POPS   GL111659   3.712   6.157   5.930  0.0661  0.0234 -0.1866
  770POPS   GL211660   3.902   6.366   6.224 -0.1497 -0.0526  0.1581
  770POPS   C1A11661   3.494   6.116   6.266 -0.0213 -0.1590  0.3324
  770POPS   D2A11662   3.209   6.024   6.552 -0.0847 -0.0198 -0.2420
  770POPS   C3A11663   3.263   6.073   7.016 -0.3709  0.2889  0.0483
  770POPS   C4A11664   3.310   5.957   7.450  0.1277  0.2455 -0.2816
  770POPS   C1B11665   3.777   6.149   6.651 -0.2161  0.2270  0.2985
  770POPS   C2B11666   3.715   5.810   6.941  0.3684  0.0725 -0.4619
  770POPS   C3B11667   4.057   5.589   7.002 -0.0559  0.3066 -0.2423
  770POPS   C4B11668   4.111   5.204   7.125  0.2342  0.1947 -0.0414
  771POPS   CNO11669  12.295   4.875   5.192 -0.1294  0.1955 -0.0208
  771POPS   PO411670  12.352   4.588   5.632  0.1430  0.2658 -0.2036
  771POPS   GL111671  12.457   4.526   5.990 -0.0128 -0.4936  0.1433
  771POPS   GL211672  12.166   4.678   6.159  0.0289  0.3065 -0.2621
  771POPS   C1A11673  12.873   4.326   6.261  0.1626  0.1574  0.2296
  771POPS   D2A11674  13.137   4.119   6.421  0.2884  0.0985 -0.0925
  771POPS   C3A11675  13.252   4.085   6.860  0.0555 -0.0458 -0.1263
  771POPS   C4A11676  13.308   3.948   7.304 -0.3884  0.0693 -0.0079
  771POPS   C1B11677  12.409   4.376   6.509 -0.0356  0.0270  0.1620
  771POPS   C2B11678  12.310   4.235   7.004 -0.0705  0.0251 -0.0061
  771POPS   C3B11679  12.380   3.922   7.281  0.4390 -0.1737 -0.0338
  771POPS   C4B11680  12.284   3.699   7.666  0.0042  0.2065 -0.0512
  772POPS   CNO11681   2.825   7.045   5.444  0.2566  0.0148 -0.2338
  772POPS   PO411682   2.695   6.745   5.816  0.0343 -0.2110  0.0929
  772POPS   GL111683   2.907   6.754   6.173  0.2140 -0.1714 -0.1852
  772POPS   GL211684   2.635   6.907   6.362  0.0896  0.0633  0.0521
  772POPS   C1A11685   2.919   6.468   6.591 -0.3442  0.1785 -0.1428
  772POPS   D2A11686   3.033   6.518   7.054  0.0312  0.1595 -0.0880
  772POPS   C3A11687   3.310   6.801   7.175  0.2425 -0.0282  0.2659
  772POPS   C4A11688   3.524   6.714   7.584  0.0841 -0.0928 -0.2758
  772POPS   C1B11689   2.397   6.929   6.780 -0.1399  0.0872  0.0026
  772POPS   C2B11690   2.262   7.393   6.858 -0.2386  0.2333  0.0109
  772POPS   C3B11691   2.392   7.821   7.076 -0.0656 -0.0571 -0.2023
  772POPS   C4B11692   2.326   8.125   6.820 -0.1623 -0.3219  0.1564
  773POPS   CNO11693   6.640   3.541   5.828 -0.0692 -0.0264 -0.1313
  773POPS   PO411694   7.001   3.249   5.975  0.0600  0.1936 -0.0445
  773POPS   GL111695   6.765   3.313   6.373  0.2994  0.1016  0.0750
  773POPS   GL211696   6.799   3.699   6.350 -0.1198  0.3438 -0.1854
  773POPS   C1A11697   6.410   3.348   6.699 -0.0546 -0.1097 -0.0653
  773POPS   D2A11698   6.121   3.392   7.122 -0.2824  0.1476 -0.1807
  773POPS   C3A11699   6.082   3.083   7.390 -0.1272 -0.3046  0.2515
  773POPS   C4A11700   6.054   2.884   7.749  0.3442  0.1748 -0.0518
  773POPS   C1B11701   6.841   3.938   6.753  0.1615  0.0225  0.0067
  773POPS   C2B11702   6.779   4.084   7.185 -0.0062 -0.2259  0.4208
  773POPS   C3B11703   6.555   3.873   7.440  0.2129 -0.5261  0.0155
  773POPS   C4B11704   6.457   3.913   7.926 -0.0149  0.2171  0.0741
  774POPS   CNO11705   3.383  17.566   5.564  0.1094  0.0508  0.3574
  774POPS   PO411706   3.618  17.291   5.649 -0.3177  0.6032  0.1971
  774POPS   GL111707   3.764  17.428   6.152 -0.0960 -0.0460 -0.4393
  774POPS   GL211708   4.053  17.294   6.118  0.2411  0.3231 -0.0290
  774POPS   C1A11709   3.673  17.525   6.596  0.1159  0.3899 -0.2127
  774POPS   D2A11710   3.816  17.814   6.860 -0.1476  0.0995  0.4745
  774POPS   C3A11711   3.636  17.595   7.160 -0.1438  0.0643 -0.1412
  774POPS   C4A11712   3.559  17.607   7.547 -0.1212  0.0438 -0.1342
  774POPS   C1B11713   3.840  17.070   6.467  0.1975 -0.0992  0.0004
  774POPS   C2B11714   3.532  17.160   6.849  0.0551  0.0244 -0.3915
  774POPS   C3B11715   3.269  17.192   7.289 -0.4206  0.1612 -0.0642
  774POPS   C4B11716   3.201  17.268   7.668 -0.2632  0.0841 -0.0185
  775POPS   CNO11717   8.838  18.462   5.496 -0.2900 -0.2270 -0.3665
  775POPS   PO411718   8.759  18.430   5.943 -0.0034 -0.0428 -0.1901
  775POPS   GL111719   8.548  18.391   6.372  0.0147  0.0351 -0.1940
  775POPS   GL211720   8.503  18.735   6.507  0.1090  0.0065 -0.0185
  775POPS   C1A11721   8.531  18.339   6.867  0.0538 -0.3227  0.0067
  775POPS   D2A11722   8.536  18.477   7.256 -0.0315 -0.3567  0.0030
  775POPS   C3A11723   8.505  18.367   7.706  0.0304  0.2283 -0.1122
  775POPS   C4A11724   8.304  18.511   8.072 -0.0293  0.2857  0.2425
  775POPS   C1B11725   8.604  19.084   6.729 -0.1789 -0.2315 -0.1532
  775POPS   C2B11726   8.465  19.289   7.203  0.0375  0.0508  0.1900
  775POPS   C3B11727   8.272  19.682   7.465  0.0807  0.0128  0.1536
  775POPS   C4B11728   8.186  20.157   7.643  0.1984  0.2563  0.2383
  776POPS   CNO11729  14.921  12.845   5.592  0.2069  0.0988 -0.2651
  776POPS   PO411730  14.601  12.808   5.855 -0.3598 -0.2413 -0.1012
  776POPS   GL111731  14.600  13.112   6.137 -0.2586  0.0413  0.0586
  776POPS   GL211732  14.303  13.233   6.222  0.0202 -0.3726  0.0328
  776POPS   C1A11733  14.866  13.035   6.544 -0.0219  0.0570 -0.0541
  776POPS   D2A11734  14.749  13.046   6.978 -0.2023  0.2831  0.2650
  776POPS   C3A11735  14.534  12.882   7.285  0.2535 -0.0874  0.1416
  776POPS   C4A11736  14.538  12.918   7.728 -0.1353  0.0606  0.1874
  776POPS   C1B11737  14.268  13.308   6.704  0.0619 -0.3953  0.0792
  776POPS   C2B11738  14.368  13.296   6.996  0.0159 -0.1098  0.0326
  776POPS   C3B11739  14.451  13.335   7.476 -0.0988 -0.0543  0.1974
  776POPS   C4B11740  14.559  13.373   7.966 -0.1696 -0.3618  0.2387
  777POPS   CNO11741  10.591  11.599   5.672 -0.3418  0.0586  0.1411
  777POPS   PO411742  11.071  11.570   5.714  0.1859 -0.0654 -0.0164
  777POPS   GL111743  11.117  11.739   6.075  0.2964 -0.0315  0.1016
  777POPS   GL211744  10.763  11.744   6.130 -0.4841  0.3283 -0.0749
  777POPS   C1A11745  11.313  11.628   6.578  0.1912  0.1131  0.0888
  777POPS   D2A11746  11.705  11.853   6.724  0.0945  0.0995 -0.0085
  777POPS   C3A11747  11.747  11.967   7.257  0.1534 -0.0839 -0.1279
  777POPS   C4A11748  11.601  11.984   7.688  0.2573 -0.2410 -0.0644
  777POPS   C1B11749  10.819  11.564   6.527 -0.3474 -0.1060  0.0157
  777POPS   C2B11750  10.700  11.528   7.009  0.1643 -0.1210 -0.0551
  777POPS   C3B11751  10.719  11.547   7.414 -0.0112 -0.0644 -0.2818
  777POPS   C4B11752  10.774  11.542   7.926 -0.4196 -0.0120 -0.3401
  778POPS   CNO11753  15.592   0.664   5.549  0.2726  0.1249 -0.3762
  778POPS   PO411754  15.192   0.520   5.485 -0.2573 -0.1241 -0.4749
  778POPS   GL111755  15.097   0.732   5.891  0.0503 -0.0641 -0.0097
  778POPS   GL211756  15.346   0.826   6.050 -0.4061  0.3438  0.0321
  778POPS   C1A11757  14.882   0.678   6.253  0.2096 -0.0799 -0.3308
  778POPS   D2A11758  14.748   0.700   6.733  0.1029 -0.0676 -0.0246
  778POPS   C3A11759  15.005   0.539   6.949 -0.1192  0.0247  0.1331
  778POPS   C4A11760  14.659   0.427   7.174  0.0899  0.1496  0.1527
  778POPS   C1B11761  15.233   0.840   6.550  0.0962 -0.3684  0.1768
  778POPS   C2B11762  15.159   1.025   6.953  0.1991  0.1813 -0.0181
  778POPS   C3B11763  15.244   0.998   7.418 -0.1907  0.1805  0.0379
  778POPS   C4B11764  15.258   1.038   7.923  0.3622 -0.1966  0.0895
  779POPS   CNO11765  17.522  13.870   6.376 -0.1382 -0.2131 -0.0873
  779POPS   PO411766  18.003  13.932   6.288 -0.1056 -0.1447 -0.1975
  779POPS   GL111767  18.011  14.061   6.694 -0.0153 -0.0739  0.2406
  779POPS   GL211768  17.881  13.831   6.777  0.0553 -0.2662 -0.0153
  779POPS   C1A11769  17.941  14.283   6.989  0.2153  0.0366 -0.0561
  779POPS   D2A11770  17.733  14.324   7.432  0.2766  0.3316 -0.1721
  779POPS   C3A11771  17.523  14.691   7.533  0.1468  0.0317  0.0379
  779POPS   C4A11772  17.588  15.057   7.802  0.2545 -0.1800  0.1999
  779POPS   C1B11773  17.911  13.361   6.877  0.0259  0.0647  0.0525
  779POPS   C2B11774  17.937  13.207   7.284 -0.0882  0.0620  0.1638
  779POPS   C3B11775  18.173  13.084   7.598 -0.0110 -0.1750  0.1136
  779POPS   C4B11776  18.347  12.914   7.849 -0.2629  0.0049 -0.3750
  780POPS   CNO11777   6.521   0.152   5.399 -0.3101  0.2542  0.1085
  780POPS   PO411778   6.312   0.554   5.366  0.2288 -0.1769  0.4093
  780POPS   GL111779   6.130   0.629   5.798 -0.1286  0.1345 -0.1840
  780POPS   GL211780   6.320   0.340   5.880  0.1189  0.0559 -0.2009
  780POPS   C1A11781   5.887   0.777   6.098  0.2777 -0.2057 -0.1252
  780POPS   D2A11782   5.527   0.644   6.371  0.1742 -0.1592 -0.2604
  780POPS   C3A11783   5.265   0.826   6.664 -0.0891 -0.1720 -0.0216
  780POPS   C4A11784   5.159   0.988   6.981 -0.2263  0.2187 -0.2931
  780POPS   C1B11785   6.486   0.657   6.128 -0.2406  0.3713 -0.1379
  780POPS   C2B11786   6.680   0.659   6.459 -0.0870 -0.0222 -0.1154
  780POPS   C3B11787   6.860   0.411   6.750  0.1040 -0.1223 -0.3652
  780POPS   C4B11788   7.297   0.340   6.887 -0.0542 -0.1720 -0.0039
  781POPS   CNO11789   4.537   0.648   5.899  0.0733 -0.3702 -0.2046
  781POPS   PO411790   4.390   0.889   5.651  0.1414  0.0751 -0.0221
  781POPS   GL111791   4.285   1.246   5.970 -0.4937 -0.2313  0.0438
  781POPS   GL211792   4.528   1.509   5.960 -0.2822  0.0802  0.1025
  781POPS   C1A11793   4.310   1.426   6.392  0.1792 -0.0591 -0.1125
  781POPS   D2A11794   4.441   1.391   6.769  0.0953 -0.2965  0.1076
  781POPS   C3A11795   4.426   1.764   7.043 -0.3566  0.0993  0.0451
  781POPS   C4A11796   4.739   1.851   7.368 -0.1058  0.1122  0.1211
  781POPS   C1B11797   4.606   1.812   6.305  0.1293 -0.1277  0.2033
  781POPS   C2B11798   4.455   2.019   6.630  0.0213  0.1578  0.1057
  781POPS   C3B11799   4.043   2.089   6.829 -0.2441  0.2470 -0.0473
  781POPS   C4B11800   3.516   1.983   6.809 -0.4043 -0.0015 -0.4628
  782POPS   CNO11801   7.479   6.056   6.270  0.0061  0.1680 -0.1745
  782POPS   PO411802   7.864   5.990   6.243 -0.4604 -0.0515  0.1643
  782POPS   GL111803   8.001   6.026   6.615  0.3274 -0.2407  0.1431
  782POPS   GL211804   8.179   6.279   6.587  0.3140 -0.1566 -0.3656
  782POPS   C1A11805   7.890   6.183   6.971  0.4231  0.0044  0.0114
  782POPS   D2A11806   7.741   6.491   7.094  0.0667  0.1793  0.1109
  782POPS   C3A11807   7.565   6.702   7.500 -0.2304 -0.3704 -0.4351
  782POPS   C4A11808   7.688   6.999   7.827  0.0091 -0.1480 -0.2291
  782POPS   C1B11809   8.354   6.403   6.947  0.4407 -0.2601 -0.1708
  782POPS   C2B11810   8.190   6.456   7.293  0.2042 -0.1537  0.0709
  782POPS   C3B11811   7.823   6.161   7.479  0.1450 -0.2043  0.1782
  782POPS   C4B11812   7.586   6.119   7.878 -0.0145 -0.4471  0.1474
  783POPS   CNO11813   1.083  11.779   5.592  0.2610 -0.2305 -0.1549
  783POPS   PO411814   1.013  11.347   5.663  0.1735  0.1889 -0.0423
  783POPS   GL111815   1.012  11.368   6.041  0.0802 -0.0590 -0.2293
  783POPS   GL211816   1.181  11.553   6.059  0.1737  0.2761 -0.1507
  783POPS   C1A11817   1.208  11.201   6.427 -0.2581  0.3331 -0.1920
  783POPS   D2A11818   1.200  11.167   6.884 -0.3239  0.0753 -0.1958
  783POPS   C3A11819   1.408  11.388   6.999  0.2901 -0.0862 -0.0019
  783POPS   C4A11820   1.570  11.739   7.031  0.2889  0.1131  0.3234
  783POPS   C1B11821   0.906  11.565   6.492 -0.1464 -0.0596  0.1542
  783POPS   C2B11822   0.793  11.469   6.928 -0.3023 -0.2659  0.0178
  783POPS   C3B11823   0.879  11.222   7.263  0.0233 -0.1917 -0.2296
  783POPS   C4B11824   1.129  11.110   7.418 -0.4989  0.2425 -0.1017
  784POPS   CNO11825  11.025  18.410   6.063 -0.0384  0.1443 -0.0589
  784POPS   PO411826  11.378  18.548   5.839 -0.1718  0.0248  0.3247
  784POPS   GL111827  11.363  18.714   6.248 -0.1522  0.2209  0.1071
  784POPS   GL211828  11.642  18.755   6.401 -0.0038  0.2745 -0.0613
  784POPS   C1A11829  11.159  18.834   6.568  0.0708 -0.3324 -0.0223
  784POPS   D2A11830  10.919  19.086   6.879  0.0814  0.0691 -0.4017
  784POPS   C3A11831  10.495  19.043   6.979 -0.0336 -0.1141  0.3887
  784POPS   C4A11832  10.345  19.028   7.250 -0.3401 -0.0212  0.0876
  784POPS   C1B11833  11.562  18.808   6.869 -0.0802 -0.1046  0.0366
  784POPS   C2B11834  11.761  18.808   7.288  0.2809  0.0462  0.0110
  784POPS   C3B11835  11.971  18.920   7.752  0.3098 -0.0583 -0.1076
  784POPS   C4B11836  12.315  18.861   8.007  0.3050  0.2162 -0.3438
  785POPS   CNO11837   6.750   6.252   5.704  0.1866  0.1027 -0.4333
  785POPS   PO411838   6.437   6.139   5.881 -0.2380 -0.2619  0.1215
  785POPS   GL111839   6.482   6.078   6.301  0.0020 -0.0900  0.0289
  785POPS   GL211840   6.552   6.225   6.583 -0.2256  0.1173  0.0276
  785POPS   C1A11841   6.142   5.900   6.475 -0.1188 -0.1260 -0.1153
  785POPS   D2A11842   5.909   5.908   6.898 -0.0608 -0.0071 -0.0934
  785POPS   C3A11843   5.860   5.566   7.192  0.1570  0.4247 -0.0538
  785POPS   C4A11844   5.662   5.338   6.956 -0.0138  0.0201  0.1294
  785POPS   C1B11845   6.230   6.343   6.983  0.2518  0.4200 -0.1726
  785POPS   C2B11846   5.826   6.374   7.241 -0.0883 -0.0084  0.0846
  785POPS   C3B11847   5.723   6.095   7.500  0.0930 -0.1454 -0.1228
  785POPS   C4B11848   5.618   6.186   7.993  0.1580  0.1393 -0.0113
  786POPS   CNO11849   9.350  12.752   5.981  0.3485  0.2114 -0.0392
  786POPS   PO411850   8.980  12.928   5.858  0.3960  0.2125 -0.2470
  786POPS   GL111851   9.001  12.934   6.311 -0.3125  0.0371 -0.2473
  786POPS   GL211852   8.949  12.689   6.611 -0.1528  0.1679  0.6798
  786POPS   C1A11853   8.855  13.205   6.646 -0.1313 -0.2798  0.3768
  786POPS   D2A11854   8.588  13.464   6.690  0.3354 -0.1653  0.0919
  786POPS   C3A11855   8.428  13.511   7.075 -0.1992  0.1112  0.1161
  786POPS   C4A11856   8.693  13.380   7.458  0.2014 -0.1698 -0.1416
  786POPS   C1B11857   8.813  12.916   7.047 -0.2534 -0.4345 -0.0376
  786POPS   C2B11858   8.741  12.699   7.403  0.1614 -0.2720  0.2555
  786POPS   C3B11859   8.376  12.485   7.481 -0.2513 -0.0397  0.2479
  786POPS   C4B11860   8.161  12.142   7.363 -0.2219  0.0984  0.1317
  787POPS   CNO11861   8.812  17.718   5.414  0.2026 -0.4021 -0.0866
  787POPS   PO411862   8.694  17.518   5.689 -0.0267  0.2705  0.0057
  787POPS   GL111863   8.604  17.410   6.111 -0.1331  0.0202 -0.1341
  787POPS   GL211864   8.291  17.233   6.303 -0.3938 -0.1233  0.0002
  787POPS   C1A11865   8.759  17.289   6.544  0.1040 -0.1059  0.0473
  787POPS   D2A11866   8.894  17.474   6.859  0.2463 -0.0067 -0.2766
  787POPS   C3A11867   8.698  17.397   7.241  0.4946 -0.0543 -0.3644
  787POPS   C4A11868   8.602  17.114   7.517 -0.0666  0.1386  0.0912
  787POPS   C1B11869   8.319  17.649   6.411  0.4063 -0.2606  0.0037
  787POPS   C2B11870   8.199  18.107   6.564  0.2655 -0.3619  0.0659
  787POPS   C3B11871   8.019  18.339   6.971 -0.4672  0.3855 -0.1282
  787POPS   C4B11872   8.140  18.807   7.004  0.0639  0.0900  0.0024
  788POPS   CNO11873   1.698   5.951   5.774  0.2296  0.0176 -0.2304
  788POPS   PO411874   1.436   6.301   5.605 -0.1389 -0.1074  0.2808
  788POPS   GL111875   1.588   6.321   6.141 -0.0319  0.4636  0.1335
  788POPS   GL211876   1.947   6.389   6.191 -0.2846 -0.1105  0.0985
  788POPS   C1A11877   1.617   5.942   6.486  0.0232 -0.1586  0.0899
  788POPS   D2A11878   1.642   5.858   6.918  0.1058 -0.0117  0.1180
  788POPS   C3A11879   1.563   6.082   7.313 -0.0530  0.2161 -0.0827
  788POPS   C4A11880   1.273   6.370   7.286  0.0889 -0.1274 -0.1834
  788POPS   C1B11881   1.851   6.552   6.482 -0.1285  0.1016 -0.0093
  788POPS   C2B11882   1.858   6.756   6.894 -0.1929 -0.0677  0.0385
  788POPS   C3B11883   1.998   6.974   7.253 -0.4514  0.2299 -0.0042
  788POPS   C4B11884   2.125   7.251   7.540 -0.1553  0.1913  0.2611
  789POPS   CNO11885  10.727   9.274   5.402 -0.0854  0.0086  0.0430
  789POPS   PO411886  10.878   9.339   5.792  0.1561  0.1496  0.1139
  789POPS   GL111887  10.936   9.330   6.237  0.0504  0.2216 -0.1829
  789POPS   GL211888  10.707   9.107   6.334 -0.1617 -0.0193  0.1161
  789POPS   C1A11889  11.154   9.253   6.632 -0.2223 -0.3342  0.0857
  789POPS   D2A11890  11.484   9.011   6.854 -0.0063  0.0935  0.2138
  789POPS   C3A11891  11.740   8.542   6.997 -0.1432 -0.1293  0.1623
  789POPS   C4A11892  11.996   8.215   7.009  0.1496  0.3097  0.2639
  789POPS   C1B11893  10.364   9.102   6.589 -0.0591  0.0061 -0.1586
  789POPS   C2B11894  10.215   9.415   6.976 -0.1575 -0.1895  0.1297
  789POPS   C3B11895  10.025   9.569   7.300 -0.1259  0.0869 -0.1204
  789POPS   C4B11896  10.009   9.745   7.660 -0.1890  0.1362 -0.0160
  790POPS   CNO11897  11.699   7.802   5.783  0.1298  0.1375  0.0219
  790POPS   PO411898  11.617   8.084   6.014  0.0750  0.1881  0.0635
  790POPS   GL111899  11.753   8.094   6.395  0.1690  0.2546  0.0535
  790POPS   GL211900  11.558   8.367   6.598  0.0178 -0.2020 -0.3886
  790POPS   C1A11901  11.822   7.851   6.748 -0.2374 -0.1244 -0.0255
  790POPS   D2A11902  12.020   7.644   6.860  0.1537 -0.0478 -0.1141
  790POPS   C3A11903  12.044   7.813   7.307 -0.0135  0.1287 -0.1630
  790POPS   C4A11904  12.158   8.057   7.670 -0.0248  0.1054 -0.2462
  790POPS   C1B11905  11.403   8.101   6.895 -0.2783  0.3034  0.0301
  790POPS   C2B11906  11.621   7.987   7.187 -0.1605 -0.0788 -0.1228
  790POPS   C3B11907  11.862   8.360   7.505  0.1168  0.1374  0.0406
  790POPS   C4B11908  12.140   8.642   7.449 -0.0700 -0.1534  0.2654
  791YOPS   CNO11909  15.815   7.692   5.411 -0.2116 -0.1235 -0.3949
  791YOPS   PO411910  15.788   7.523   5.932  0.0188  0.3912 -0.0993
  791YOPS   GL111911  15.950   7.702   6.273 -0.1468  0.4015  0.0520
  791YOPS   GL211912  15.621   7.802   6.259 -0.0942 -0.0339 -0.2602
  791YOPS   C1A11913  16.283   7.611   6.590  0.0560  0.4365  0.0473
  791YOPS   D2A11914  16.121   7.852   6.975 -0.2355  0.1838  0.1607
  791YOPS   C3A11915  15.708   7.956   7.226  0.1805 -0.2579 -0.2868
  791YOPS   C4A11916  15.540   7.600   7.621 -0.1333  0.0920  0.0989
  791YOPS   C1B11917  15.742   7.748   6.687 -0.2742  0.0033 -0.3974
  791YOPS   C2B11918  15.767   7.512   7.104  0.2036  0.2413  0.0059
  791YOPS   D3B11919  15.963   7.320   7.502 -0.0776  0.3389  0.1528
  791YOPS   C4B11920  15.847   7.330   7.949  0.0534  0.1640 -0.0329
  792YOPS   CNO11921   3.789  11.167   6.301 -0.2448 -0.1115  0.2768
  792YOPS   PO411922   3.515  11.510   6.114 -0.0254  0.0776 -0.3682
  792YOPS   GL111923   3.412  11.997   6.280  0.2002  0.0355 -0.1074
  792YOPS   GL211924   3.357  12.216   6.106 -0.0063 -0.1194 -0.0975
  792YOPS   C1A11925   3.376  12.221   6.770 -0.4375 -0.0535  0.0193
  792YOPS   D2A11926   3.400  12.122   7.208 -0.0717 -0.1398  0.0204
  792YOPS   C3A11927   3.348  12.294   7.556 -0.0339  0.1704  0.2001
  792YOPS   C4A11928   3.524  12.269   7.869 -0.1510 -0.3346 -0.3763
  792YOPS   C1B11929   3.075  12.423   6.442  0.1537 -0.0815 -0.1816
  792YOPS   C2B11930   3.239  12.788   6.686 -0.1822 -0.2692  0.1739
  792YOPS   D3B11931   3.318  12.664   7.126 -0.2100  0.3301  0.1679
  792YOPS   C4B11932   3.172  12.786   7.529 -0.2509 -0.1918  0.1264
  793YOPS   CNO11933  16.174   6.081   5.244  0.1867 -0.2023  0.0891
  793YOPS   PO411934  16.340   6.158   5.671  0.2020  0.3033  0.1893
  793YOPS   GL111935  16.546   6.166   6.072 -0.0517  0.3364  0.1895
  793YOPS   GL211936  16.816   5.987   6.163  0.2616  0.0922 -0.2743
  793YOPS   C1A11937  16.668   6.493   6.296 -0.3604 -0.0311 -0.3531
  793YOPS   D2A11938  16.877   6.537   6.704  0.0412 -0.2155 -0.0465
  793YOPS   C3A11939  17.137   6.323   6.921  0.0742 -0.0213  0.1755
  793YOPS   C4A11940  16.983   6.118   7.288 -0.0156 -0.0769 -0.0310
  793YOPS   C1B11941  16.935   5.900   6.653 -0.2862 -0.2823 -0.1167
  793YOPS   C2B11942  16.796   5.779   7.015  0.0014 -0.1095 -0.0125
  793YOPS   D3B11943  16.492   5.957   7.311  0.0725  0.1416 -0.2425
  793YOPS   C4B11944  16.672   5.906   7.654 -0.2185  0.0573  0.1435
  794YOPS   CNO11945  10.823  13.701   5.713  0.0902 -0.0833  0.3411
  794YOPS   PO411946  10.655  14.069   5.901  0.1073 -0.1084  0.0810
  794YOPS   GL111947  10.551  13.976   6.381 -0.0667 -0.2608 -0.2551
  794YOPS   GL211948  10.396  14.248   6.599  0.2045 -0.1112  0.3780
  794YOPS   C1A11949  10.641  13.848   6.815 -0.0905 -0.2838 -0.4415
  794YOPS   D2A11950  10.566  13.699   7.124  0.1074  0.4061  0.0890
  794YOPS   C3A11951  10.426  13.449   7.459  0.2481 -0.0528  0.2911
  794YOPS   C4A11952  10.800  13.370   7.850  0.1750 -0.1265 -0.3002
  794YOPS   C1B11953  10.493  14.299   7.021 -0.2294 -0.3708  0.3101
  794YOPS   C2B11954  10.419  14.253   7.401 -0.1016  0.0603 -0.0734
  794YOPS   D3B11955  10.096  14.313   7.600 -0.2747  0.1253  0.1400
  794YOPS   C4B11956   9.920  14.674   7.830 -0.0998 -0.0759 -0.2787
  795YOPS   CNO11957   3.674   6.639   5.433  0.1317  0.0020  0.0074
  795YOPS   PO411958   3.664   7.051   5.611 -0.1073 -0.1229  0.0604
  795YOPS   GL111959   3.420   7.332   5.909 -0.1217 -0.2796 -0.1405
  795YOPS   GL211960   3.691   7.222   6.046  0.0984  0.0468  0.3103
  795YOPS   C1A11961   3.213   7.217   6.286 -0.0613  0.2678  0.0131
  795YOPS   D2A11962   3.132   6.959   6.630  0.1339 -0.0612 -0.1515
  795YOPS   C3A11963   2.866   6.967   7.044  0.1566  0.1962  0.2498
  795YOPS   C4A11964   2.493   7.075   7.240 -0.0989  0.0540 -0.0851
  795YOPS   C1B11965   3.598   7.148   6.567 -0.3004  0.1013 -0.0024
  795YOPS   C2B11966   3.834   7.021   6.882 -0.0537 -0.2158  0.0349
  795YOPS   D3B11967   3.746   7.158   7.298 -0.0114  0.3305 -0.0823
  795YOPS   C4B11968   3.687   7.580   7.413  0.1924 -0.1568 -0.0171
  796YOPS   CNO11969   4.370   3.409   5.530 -0.0207 -0.1163 -0.1716
  796YOPS   PO411970   4.175   3.018   5.603 -0.1710 -0.0580  0.3810
  796YOPS   GL111971   4.023   3.136   6.071  0.2619 -0.1226  0.3424
  796YOPS   GL211972   3.658   2.968   6.252 -0.1065  0.1232 -0.3370
  796YOPS   C1A11973   4.069   3.001   6.481 -0.0553  0.1435  0.2023
  796YOPS   D2A11974   3.832   2.942   6.860  0.1262  0.0568 -0.1373
  796YOPS   C3A11975   3.844   2.846   7.290  0.2517 -0.0558 -0.0681
  796YOPS   C4A11976   3.605   3.104   7.592  0.0739 -0.1661 -0.2008
  796YOPS   C1B11977   3.377   3.214   6.514  0.0698  0.0026 -0.1979
  796YOPS   C2B11978   3.297   2.973   6.985  0.3276  0.0506  0.0689
  796YOPS   D3B11979   3.149   2.710   7.355  0.1446  0.1390 -0.0411
  796YOPS   C4B11980   2.644   2.694   7.475  0.2895  0.1607  0.0452
  797YOPS   CNO11981   9.656   0.791   5.028  0.0143  0.0548 -0.1467
  797YOPS   PO411982   9.786   0.556   5.413  0.2195 -0.0642 -0.0417
  797YOPS   GL111983   9.742   0.636   5.835 -0.1898  0.0540 -0.3147
  797YOPS   GL211984   9.524   0.356   6.040 -0.0770  0.0056  0.1866
  797YOPS   C1A11985   9.837   0.670   6.229  0.0081 -0.2914 -0.0326
  797YOPS   D2A11986   9.617   0.517   6.586  0.2142  0.0149  0.0402
  797YOPS   C3A11987   9.582   0.440   6.980  0.2079 -0.2364  0.3939
  797YOPS   C4A11988   9.294   0.449   7.393  0.3393  0.0016 -0.3156
  797YOPS   C1B11989   9.303   0.324   6.320 -0.1299  0.0289  0.0569
  797YOPS   C2B11990   9.078   0.283   6.637  0.1269  0.0088  0.0550
  797YOPS   D3B11991   8.984   0.269   7.006  0.2362  0.4816 -0.0956
  797YOPS   C4B11992   9.033  -0.023   7.350 -0.2797  0.0690  0.0511
  798YOPS   CNO11993  14.787   0.240   5.379  0.0985  0.2197  0.0952
  798YOPS   PO411994  14.486   0.167   5.712  0.3612  0.0938  0.0535
  798YOPS   GL111995  14.288   0.366   6.003  0.3991 -0.0469  0.0261
  798YOPS   GL211996  14.119   0.557   5.827  0.0562 -0.4344  0.0296
  798YOPS   C1A11997  14.294   0.418   6.479  0.5718  0.0093  0.0649
  798YOPS   D2A11998  14.281   0.556   6.833 -0.0291  0.4105  0.0965
  798YOPS   C3A11999  14.219   0.671   7.253 -0.1428 -0.1044  0.0316
  798YOPS   C4A12000  13.966   0.900   7.485  0.0329  0.0195  0.1965
  798YOPS   C1B12001  14.052   0.718   6.208  0.0544 -0.3134  0.0034
  798YOPS   C2B12002  14.350   0.890   6.490  0.2261  0.0456 -0.1113
  798YOPS   D3B12003  14.473   1.014   6.992 -0.1776  0.1001  0.4887
  798YOPS   C4B12004  14.804   0.832   7.315 -0.1903 -0.1032 -0.0444
  799YOPS   CNO12005   5.789  14.200   5.956  0.2535  0.1539  0.3550
  799YOPS   PO412006   5.501  13.838   5.945 -0.0441  0.1875  0.0633
  799YOPS   GL112007   5.620  13.456   6.252  0.2385 -0.1370 -0.1160
  799YOPS   GL212008   5.939  13.271   6.166  0.1459 -0.0165  0.2689
  799YOPS   C1A12009   5.530  13.514   6.686 -0.0775  0.1363  0.0968
  799YOPS   D2A12010   5.735  13.377   7.105 -0.1370 -0.2351  0.0876
  799YOPS   C3A12011   5.972  13.525   7.431  0.0069  0.1802 -0.0877
  799YOPS   C4A12012   5.694  13.587   7.890  0.4642  0.3084  0.0438
  799YOPS   C1B12013   6.112  13.343   6.560  0.0454 -0.2356  0.0117
  799YOPS   C2B12014   6.328  13.338   7.004  0.1550 -0.2719  0.0416
  799YOPS   D3B12015   6.368  13.262   7.466 -0.0039  0.2445 -0.1644
  799YOPS   C4B12016   6.733  13.118   7.705  0.2079 -0.0765 -0.2263
  800YOPS   CNO12017   4.953   8.108   5.650 -0.2652 -0.2204  0.1093
  800YOPS   PO412018   4.903   7.952   6.024 -0.1600 -0.1639 -0.2341
  800YOPS   GL112019   5.048   7.672   6.425  0.2512 -0.0580  0.0276
  800YOPS   GL212020   5.236   7.933   6.470  0.0736  0.0188  0.1661
  800YOPS   C1A12021   5.046   7.605   6.829 -0.0181  0.0200  0.0912
  800YOPS   D2A12022   4.884   7.410   7.239  0.1353  0.0304 -0.1370
  800YOPS   C3A12023   4.889   7.165   7.580 -0.0204 -0.3081  0.0039
  800YOPS   C4A12024   5.318   7.100   7.626 -0.1157 -0.0041 -0.2123
  800YOPS   C1B12025   4.950   8.159   6.805  0.1196  0.0205  0.1609
  800YOPS   C2B12026   4.813   8.462   7.085  0.1314  0.1758  0.2377
  800YOPS   D3B12027   4.573   8.899   7.192  0.0761  0.0958 -0.0106
  800YOPS   C4B12028   4.413   8.895   6.793 -0.2041 -0.1609  0.0130
  801YOPS   CNO12029  18.486   2.794   5.568  0.1311 -0.0200 -0.0667
  801YOPS   PO412030  18.141   2.504   5.576 -0.1196  0.0597 -0.1446
  801YOPS   GL112031  18.264   2.542   5.970  0.1541 -0.0614 -0.0541
  801YOPS   GL212032  18.695   2.509   5.939  0.1606  0.2842  0.3393
  801YOPS   C1A12033  18.297   2.686   6.413 -0.2558  0.0489  0.3114
  801YOPS   D2A12034  18.535   2.627   6.764 -0.1171  0.0139  0.1396
  801YOPS   C3A12035  18.868   2.480   7.179 -0.0240  0.0027 -0.3324
  801YOPS   C4A12036  19.010   2.089   7.271  0.0272  0.1880  0.2052
  801YOPS   C1B12037  18.801   2.720   6.224  0.0383 -0.1185 -0.2557
  801YOPS   C2B12038  19.086   2.517   6.508  0.0280  0.1438  0.0007
  801YOPS   D3B12039  19.150   2.314   6.838 -0.0041  0.3757 -0.1638
  801YOPS   C4B12040  19.484   2.384   7.079  0.1556 -0.0077  0.0328
  802YOPS   CNO12041  18.254  10.775   6.181 -0.6251 -0.0624 -0.0817
  802YOPS   PO412042  18.475  11.156   5.893 -0.2382  0.0700  0.2800
  802YOPS   GL112043  18.587  11.414   6.251 -0.0245  0.0994  0.1923
  802YOPS   GL212044  18.297  11.516   6.226  0.2507 -0.0102 -0.0990
  802YOPS   C1A12045  18.884  11.315   6.669 -0.2910 -0.2763  0.0437
  802YOPS   D2A12046  18.875  11.459   7.105 -0.2681 -0.2336 -0.1893
  802YOPS   C3A12047  19.160  11.658   7.352 -0.0835 -0.0313  0.0288
  802YOPS   C4A12048  19.193  11.404   7.791 -0.2054  0.2065 -0.3966
  802YOPS   C1B12049  18.260  11.559   6.709  0.0907 -0.1217 -0.1703
  802YOPS   C2B12050  18.366  11.522   7.146  0.0791  0.2328 -0.4029
  802YOPS   D3B12051  18.635  11.592   7.523 -0.2349 -0.4217 -0.0275
  802YOPS   C4B12052  18.659  11.550   7.955  0.2501 -0.0468  0.3080
  803YOPS   CNO12053  15.257  11.159   5.142  0.2551  0.0246  0.1757
  803YOPS   PO412054  15.618  11.169   5.500 -0.0820  0.2057 -0.2552
  803YOPS   GL112055  15.604  11.180   5.954 -0.2527 -0.0191 -0.1741
  803YOPS   GL212056  15.536  10.970   6.003 -0.0194 -0.0831  0.0753
  803YOPS   C1A12057  15.849  11.349   6.403  0.1479 -0.1962  0.3199
  803YOPS   D2A12058  15.848  11.407   6.827  0.1939 -0.2017 -0.1603
  803YOPS   C3A12059  16.083  11.515   7.175  0.1146 -0.1175 -0.0456
  803YOPS   C4A12060  15.813  11.524   7.486 -0.2783  0.1478 -0.1535
  803YOPS   C1B12061  15.704  10.903   6.391 -0.2644 -0.0443 -0.3062
  803YOPS   C2B12062  15.892  10.947   6.725 -0.2870 -0.0739  0.2006
  803YOPS   D3B12063  16.155  10.752   7.090 -0.1102  0.1884 -0.0386
  803YOPS   C4B12064  16.024  11.042   7.422 -0.2488  0.0674  0.1260
  804YOPS   CNO12065  17.682  14.264   6.106  0.2542  0.2148 -0.1468
  804YOPS   PO412066  17.444  14.505   5.980  0.0606  0.0523  0.0980
  804YOPS   GL112067  17.380  14.719   6.365  0.1821  0.3656 -0.0628
  804YOPS   GL212068  17.591  14.493   6.536 -0.0548  0.0328 -0.2864
  804YOPS   C1A12069  17.328  15.006   6.642  0.0718  0.0975  0.1969
  804YOPS   D2A12070  17.475  15.412   6.826  0.0070 -0.0970  0.1396
  804YOPS   C3A12071  17.951  15.528   6.915 -0.0881 -0.2269  0.3859
  804YOPS   C4A12072  18.335  15.258   6.839  0.1470 -0.4331  0.0824
  804YOPS   C1B12073  17.416  14.117   6.854  0.1826 -0.2715  0.0589
  804YOPS   C2B12074  17.428  13.921   7.259  0.1999  0.0588  0.2439
  804YOPS   D3B12075  17.156  13.851   7.570 -0.0273 -0.1132 -0.1784
  804YOPS   C4B12076  17.155  13.621   7.861  0.3148  0.1347  0.1194
  805YOPS   CNO12077  10.411   6.189   5.843  0.2383 -0.0272 -0.0829
  805YOPS   PO412078  10.804   6.046   6.050 -0.1922 -0.1941  0.3486
  805YOPS   GL112079  10.916   5.876   6.449  0.0043  0.0151 -0.0754
  805YOPS   GL212080  11.143   6.118   6.614 -0.2019  0.0228  0.3257
  805YOPS   C1A12081  11.137   5.661   6.865 -0.3602 -0.2312  0.0195
  805YOPS   D2A12082  10.951   5.508   7.308 -0.1605 -0.0153  0.1613
  805YOPS   C3A12083  10.802   5.527   7.752  0.0849 -0.0771 -0.1311
  805YOPS   C4A12084  10.759   5.717   8.083  0.3156  0.1050  0.0277
  805YOPS   C1B12085  11.519   6.110   6.909 -0.2278 -0.0606  0.0659
  805YOPS   C2B12086  11.748   6.014   7.261  0.1165  0.3124 -0.0371
  805YOPS   D3B12087  11.861   6.334   7.612  0.0990  0.1001 -0.1965
  805YOPS   C4B12088  11.952   6.246   7.946 -0.0260  0.1331 -0.0276
  806YOPS   CNO12089   8.002  16.046   5.617 -0.3504 -0.0052 -0.4253
  806YOPS   PO412090   7.533  16.122   5.739 -0.0755  0.1436  0.2733
  806YOPS   GL112091   7.574  15.961   6.214  0.0822  0.4383  0.4213
  806YOPS   GL212092   7.894  16.038   6.227 -0.2066 -0.0794 -0.1802
  806YOPS   C1A12093   7.559  16.025   6.612 -0.1053 -0.0978 -0.2220
  806YOPS   D2A12094   7.480  15.950   7.076  0.2322 -0.1373  0.0971
  806YOPS   C3A12095   7.471  15.759   7.368 -0.0763 -0.0577 -0.3276
  806YOPS   C4A12096   7.822  15.747   7.467 -0.3522 -0.0395 -0.0673
  806YOPS   C1B12097   8.034  16.169   6.686 -0.0935 -0.0974  0.1798
  806YOPS   C2B12098   7.923  16.175   7.121  0.0362 -0.0568  0.6230
  806YOPS   D3B12099   8.067  16.337   7.585  0.2467 -0.1352 -0.0296
  806YOPS   C4B12100   8.466  16.638   7.676  0.0732 -0.2244  0.2755
  807YOPS   CNO12101  16.053  13.953   5.784  0.1607 -0.1264 -0.1019
  807YOPS   PO412102  15.819  14.442   5.741 -0.2676  0.2231 -0.1057
  807YOPS   GL112103  15.935  14.462   6.186  0.4001  0.0270 -0.0074
  807YOPS   GL212104  15.970  14.121   6.223 -0.4092 -0.5245  0.1339
  807YOPS   C1A12105  15.874  14.787   6.422  0.0832  0.1386 -0.1003
  807YOPS   D2A12106  15.568  14.912   6.733  0.0118  0.1030  0.0307
  807YOPS   C3A12107  15.257  15.247   6.840 -0.0297 -0.5820 -0.4130
  807YOPS   C4A12108  15.333  15.267   7.255  0.1209  0.0744  0.1860
  807YOPS   C1B12109  16.086  14.386   6.636  0.2081 -0.1551 -0.1036
  807YOPS   C2B12110  15.934  14.633   6.940  0.1029 -0.3081 -0.1024
  807YOPS   D3B12111  16.080  15.053   7.003 -0.2557  0.0845  0.1548
  807YOPS   C4B12112  15.792  15.313   6.916 -0.1130 -0.5654 -0.0417
  808YOPS   CNO12113   7.783   2.817   5.514  0.0863  0.1735 -0.2730
  808YOPS   PO412114   7.438   2.529   5.612 -0.1612  0.0917 -0.0708
  808YOPS   GL112115   7.432   2.316   6.046  0.1186  0.0983 -0.1976
  808YOPS   GL212116   7.555   2.071   6.277  0.2699  0.1585 -0.2394
  808YOPS   C1A12117   7.483   2.498   6.527 -0.0761 -0.1637  0.5123
  808YOPS   D2A12118   7.267   2.755   6.934  0.0494 -0.1969 -0.0487
  808YOPS   C3A12119   7.268   2.767   7.438 -0.0470  0.1720  0.1546
  808YOPS   C4A12120   7.018   3.025   7.698 -0.1741 -0.3037 -0.1152
  808YOPS   C1B12121   7.144   2.112   6.465 -0.1742 -0.0309  0.2458
  808YOPS   C2B12122   7.051   2.225   6.921  0.4577 -0.0747 -0.4069
  808YOPS   D3B12123   6.854   2.595   7.282 -0.1591 -0.3336  0.1080
  808YOPS   C4B12124   6.847   2.563   7.721  0.3317 -0.0462 -0.1032
  809YOPS   CNO12125   6.098   6.538   5.917  0.1588 -0.0555 -0.0816
  809YOPS   PO412126   5.901   6.942   5.807 -0.0103 -0.3378  0.0179
  809YOPS   GL112127   5.643   6.719   5.982  0.0737 -0.5851  0.2451
  809YOPS   GL212128   5.660   6.376   6.105  0.0825 -0.1202 -0.1904
  809YOPS   C1A12129   5.516   6.750   6.471  0.2064  0.0189 -0.2025
  809YOPS   D2A12130   5.534   6.756   6.843  0.0720  0.0829  0.0370
  809YOPS   C3A12131   5.338   6.684   7.293  0.2323 -0.4176  0.3704
  809YOPS   C4A12132   5.482   6.520   7.670  0.1815  0.1384 -0.0585
  809YOPS   C1B12133   5.278   6.438   6.182 -0.1339  0.0103 -0.2401
  809YOPS   C2B12134   5.055   6.567   6.391 -0.0265  0.0126 -0.1703
  809YOPS   D3B12135   5.077   6.509   6.846  0.1004  0.1454 -0.1222
  809YOPS   C4B12136   5.360   6.220   7.165 -0.3174  0.1583  0.1439
  810YOPS   CNO12137   1.513  18.284   5.365 -0.0591  0.7116 -0.0870
  810YOPS   PO412138   1.201  18.196   5.289  0.2284  0.1045  0.0704
  810YOPS   GL112139   0.979  18.072   5.663 -0.0230  0.1472 -0.0062
  810YOPS   GL212140   0.669  17.876   5.604  0.0439  0.1350  0.0204
  810YOPS   C1A12141   0.855  18.118   6.094  0.0238  0.2419 -0.0124
  810YOPS   D2A12142   0.672  17.908   6.459  0.0489 -0.0069 -0.1987
  810YOPS   C3A12143   0.416  17.721   6.831  0.0764  0.0436 -0.1308
  810YOPS   C4A12144   0.726  17.435   7.083  0.0348 -0.1794  0.2624
  810YOPS   C1B12145   0.453  17.640   5.901 -0.3730  0.1080 -0.0959
  810YOPS   C2B12146   0.265  17.736   6.313  0.0336  0.0466  0.1506
  810YOPS   D3B12147  -0.070  17.700   6.483  0.2966  0.0335  0.2139
  810YOPS   C4B12148  -0.156  17.757   6.914 -0.0042  0.1954  0.1717
  811YOPS   CNO12149   7.184   2.077   5.567  0.0174  0.2616  0.1508
  811YOPS   PO412150   6.747   2.195   5.453 -0.1769 -0.0580  0.0839
  811YOPS   GL112151   6.925   2.212   5.948  0.1309  0.0506 -0.2654
  811YOPS   GL212152   7.033   2.605   5.975  0.1350 -0.0802 -0.0556
  811YOPS   C1A12153   6.757   1.842   6.227 -0.4132 -0.2621  0.3188
  811YOPS   D2A12154   6.850   1.744   6.748 -0.2947 -0.1212 -0.2127
  811YOPS   C3A12155   6.932   1.753   7.184 -0.1196  0.1727 -0.1188
  811YOPS   C4A12156   6.851   1.389   7.415  0.3688 -0.3090  0.1815
  811YOPS   C1B12157   6.991   2.676   6.452 -0.0800  0.0041  0.0851
  811YOPS   C2B12158   6.801   2.956   6.734 -0.0066  0.1468  0.0304
  811YOPS   D3B12159   6.896   3.065   7.189 -0.1065 -0.1440 -0.2293
  811YOPS   C4B12160   7.274   3.300   7.233 -0.0825  0.0648 -0.1416
  812YOPS   CNO12161   7.934   8.385   5.657 -0.1019  0.5142  0.2662
  812YOPS   PO412162   8.086   8.623   5.924  0.1366 -0.0299  0.3283
  812YOPS   GL112163   7.912   8.354   6.181  0.0519 -0.0733  0.0538
  812YOPS   GL212164   8.067   8.406   6.454 -0.2058 -0.2282  0.2402
  812YOPS   C1A12165   7.660   8.208   6.617  0.2358 -0.0635 -0.1018
  812YOPS   D2A12166   7.814   8.242   7.099  0.0789 -0.1715  0.0099
  812YOPS   C3A12167   7.757   8.476   7.467  0.2619  0.2457 -0.1267
  812YOPS   C4A12168   7.365   8.346   7.687  0.1028 -0.0265  0.0905
  812YOPS   C1B12169   8.228   8.401   6.847  0.0217 -0.0506  0.3186
  812YOPS   C2B12170   8.285   8.422   7.249  0.1088  0.1907 -0.0441
  812YOPS   D3B12171   8.541   8.279   7.561  0.1012 -0.0093  0.1454
  812YOPS   C4B12172   8.421   7.786   7.721  0.3056 -0.1890 -0.3437
  813YOPS   CNO12173  17.847  15.204   5.374 -0.0486  0.3177 -0.2842
  813YOPS   PO412174  17.956  15.534   5.748 -0.1669 -0.0472 -0.0551
  813YOPS   GL112175  18.026  15.721   6.142  0.1099 -0.0787 -0.0112
  813YOPS   GL212176  18.066  16.108   6.153 -0.0494 -0.1992  0.1203
  813YOPS   C1A12177  18.251  15.756   6.564  0.0076 -0.0583 -0.0593
  813YOPS   D2A12178  18.339  15.821   6.997  0.1588 -0.1890  0.3564
  813YOPS   C3A12179  18.485  15.791   7.488  0.2497  0.0369  0.1357
  813YOPS   C4A12180  18.364  15.706   7.890 -0.0110  0.2243  0.1528
  813YOPS   C1B12181  18.381  16.311   6.464  0.1470 -0.0428 -0.1755
  813YOPS   C2B12182  18.370  16.373   6.929  0.1345  0.1424  0.1791
  813YOPS   D3B12183  18.487  16.255   7.338  0.1591 -0.0960  0.0113
  813YOPS   C4B12184  18.221  16.302   7.657 -0.0870 -0.2293 -0.1805
  814YOPS   CNO12185   2.279   7.047   5.540 -0.1548  0.2451 -0.0570
  814YOPS   PO412186   2.260   7.220   5.984  0.0609 -0.2269 -0.2504
  814YOPS   GL112187   2.559   7.547   6.236 -0.0683  0.3581  0.0031
  814YOPS   GL212188   2.372   7.716   6.524  0.1982 -0.1454 -0.1097
  814YOPS   C1A12189   2.765   7.425   6.597 -0.0775  0.2773  0.0813
  814YOPS   D2A12190   2.810   7.516   7.069 -0.2597 -0.0014  0.1008
  814YOPS   C3A12191   2.529   7.557   7.443  0.0152  0.0661  0.1514
  814YOPS   C4A12192   2.092   7.737   7.543  0.0260  0.3915 -0.2086
  814YOPS   C1B12193   1.949   7.814   6.800  0.2235 -0.0763 -0.5101
  814YOPS   C2B12194   1.582   7.892   6.703 -0.0701  0.2447 -0.0784
  814YOPS   D3B12195   1.169   7.895   6.572 -0.1047  0.3450  0.2349
  814YOPS   C4B12196   1.060   7.622   6.176 -0.1041  0.0999  0.1600
  815YOPS   CNO12197  14.869   7.657   5.618 -0.1025 -0.0387 -0.1175
  815YOPS   PO412198  14.653   7.698   6.085  0.0111  0.0435  0.0518
  815YOPS   GL112199  14.846   7.716   6.455  0.0374 -0.0104 -0.0904
  815YOPS   GL212200  14.785   7.468   6.620 -0.1311 -0.2482 -0.1343
  815YOPS   C1A12201  14.858   7.950   6.872  0.1450  0.0484 -0.2478
  815YOPS   D2A12202  14.732   8.045   7.304  0.0808 -0.2395  0.5567
  815YOPS   C3A12203  15.139   8.251   7.369  0.0284  0.2006  0.1038
  815YOPS   C4A12204  15.176   8.601   7.270 -0.3349  0.2381  0.4190
  815YOPS   C1B12205  14.788   7.473   7.100  0.2076 -0.0830  0.0684
  815YOPS   C2B12206  14.515   7.510   7.531 -0.0189  0.0198  0.1307
  815YOPS   D3B12207  14.242   7.512   7.954 -0.2875  0.2366 -0.2170
  815YOPS   C4B12208  13.812   7.543   7.928  0.1895  0.0232  0.0677
  816YOPS   CNO12209  18.394  11.959   5.395 -0.1308 -0.2098 -0.2065
  816YOPS   PO412210  18.426  12.326   5.524  0.2872 -0.2180  0.1406
  816YOPS   GL112211  18.586  12.406   5.940  0.0517  0.0269 -0.0450
  816YOPS   GL212212  18.759  12.673   6.043 -0.2417  0.1227  0.3825
  816YOPS   C1A12213  18.765  12.451   6.435 -0.0883  0.0054 -0.2519
  816YOPS   D2A12214  18.875  12.507   6.903  0.1510  0.1985  0.1015
  816YOPS   C3A12215  18.498  12.614   7.296  0.1402 -0.1015 -0.2811
  816YOPS   C4A12216  18.345  12.428   7.612  0.0586 -0.1055 -0.0227
  816YOPS   C1B12217  18.471  12.833   6.317  0.0882  0.4059  0.1646
  816YOPS   C2B12218  18.135  13.232   6.422  0.1376  0.0360  0.2662
  816YOPS   D3B12219  18.245  13.590   6.513  0.0364  0.4366  0.2499
  816YOPS   C4B12220  18.481  13.823   6.768  0.1387  0.1740 -0.0314
  817YOPS   CNO12221  16.850   8.426   5.294  0.3600 -0.2810 -0.3224
  817YOPS   PO412222  16.922   8.293   5.639  0.2969  0.3060  0.0680
  817YOPS   GL112223  16.799   8.121   5.994 -0.0635  0.1600 -0.0249
  817YOPS   GL212224  16.821   7.794   6.115 -0.0354  0.1094 -0.0639
  817YOPS   C1A12225  16.940   8.286   6.422  0.1375 -0.0795  0.0508
  817YOPS   D2A12226  17.066   8.152   6.863  0.1340 -0.0934 -0.0306
  817YOPS   C3A12227  17.147   8.109   7.284 -0.0519  0.0624  0.4376
  817YOPS   C4A12228  17.572   8.008   7.382 -0.1913  0.2046 -0.2110
  817YOPS   C1B12229  17.245   7.744   6.373  0.1006 -0.0318 -0.0581
  817YOPS   C2B12230  17.519   7.905   6.829  0.0810 -0.4830  0.0148
  817YOPS   D3B12231  17.798   8.101   6.903  0.2166  0.0800  0.2972
  817YOPS   C4B12232  18.049   8.177   7.305 -0.0010  0.0296  0.0347
  818YOPS   CNO12233  11.298  15.394   6.103  0.3132 -0.1080 -0.0624
  818YOPS   PO412234  10.998  15.652   6.078 -0.0820 -0.1823 -0.4282
  818YOPS   GL112235  11.222  15.686   6.460  0.0977 -0.0809 -0.3765
  818YOPS   GL212236  11.298  15.437   6.738  0.4061  0.0627  0.0926
  818YOPS   C1A12237  11.070  15.877   6.862 -0.0275  0.2175  0.0677
  818YOPS   D2A12238  11.055  15.607   7.232 -0.1101  0.1412  0.3548
  818YOPS   C3A12239  11.404  15.647   7.580 -0.1738  0.3725 -0.2057
  818YOPS   C4A12240  11.408  15.418   7.943  0.1073  0.2817  0.3435
  818YOPS   C1B12241  11.560  15.653   6.998 -0.2689 -0.1421 -0.1873
  818YOPS   C2B12242  11.648  16.020   7.420  0.2261 -0.0895  0.2280
  818YOPS   D3B12243  11.576  16.180   7.848 -0.0632  0.0666  0.1881
  818YOPS   C4B12244  11.630  15.916   8.280 -0.3038 -0.1917  0.2642
  819YOPS   CNO12245   0.783  15.174   5.793  0.1975 -0.0146 -0.1703
  819YOPS   PO412246   0.777  15.525   5.553  0.1266 -0.0008 -0.2601
  819YOPS   GL112247   0.598  15.633   6.027 -0.0121  0.0066  0.3616
  819YOPS   GL212248   0.886  15.637   6.089 -0.0313 -0.1596 -0.2121
  819YOPS   C1A12249   0.579  15.598   6.433 -0.1974  0.3524  0.0958
  819YOPS   D2A12250   0.744  15.749   6.847  0.4254  0.1288 -0.1216
  819YOPS   C3A12251   0.911  15.934   7.324 -0.2425 -0.4485  0.1262
  819YOPS   C4A12252   0.609  16.268   7.491 -0.1283  0.1467 -0.0934
  819YOPS   C1B12253   1.034  15.807   6.452  0.2852 -0.2429 -0.2815
  819YOPS   C2B12254   1.243  15.684   6.837 -0.1733 -0.2189 -0.1468
  819YOPS   D3B12255   1.428  15.790   7.222 -0.0674 -0.0058 -0.2077
  819YOPS   C4B12256   1.264  15.844   7.636 -0.0871  0.2291 -0.1009
  820YOPS   CNO12257   8.188  12.323   5.874  0.0566  0.0676  0.2733
  820YOPS   PO412258   7.922  12.619   5.734 -0.0459  0.3475  0.1677
  820YOPS   GL112259   7.882  12.732   6.090  0.1677  0.0780  0.2782
  820YOPS   GL212260   7.753  13.060   6.244  0.4615 -0.0850  0.0672
  820YOPS   C1A12261   7.988  12.673   6.620 -0.2294 -0.1952  0.2142
  820YOPS   D2A12262   8.023  12.379   6.891 -0.3808 -0.1102  0.1833
  820YOPS   C3A12263   7.946  12.033   6.824 -0.2081  0.0153 -0.0026
  820YOPS   C4A12264   7.798  11.658   7.066  0.3698 -0.3057 -0.1309
  820YOPS   C1B12265   7.474  12.770   6.593 -0.1155  0.0691 -0.0834
  820YOPS   C2B12266   7.644  12.714   7.018  0.1848  0.1867 -0.0880
  820YOPS   D3B12267   7.845  12.526   7.430  0.3434 -0.4160 -0.2301
  820YOPS   C4B12268   7.966  12.727   7.806 -0.2239 -0.1238  0.1062
  821POPE   NH312269   8.565  10.743   5.914  0.1693  0.2334 -0.0993
  821POPE   PO412270   8.221  10.919   5.950 -0.0568 -0.1831  0.1727
  821POPE   GL112271   8.286  11.136   6.276  0.2753  0.1832  0.2796
  821POPE   GL212272   8.414  11.400   6.242  0.1330 -0.1101  0.2249
  821POPE   C1A12273   8.098  11.117   6.717  0.1027  0.1894 -0.3913
  821POPE   D2A12274   8.202  11.153   7.189 -0.1874 -0.0565  0.0196
  821POPE   C3A12275   7.947  11.328   7.468 -0.1060 -0.0965 -0.1053
  821POPE   C4A12276   7.775  11.447   7.801  0.1108 -0.0099  0.1588
  821POPE   C1B12277   8.585  11.335   6.668  0.2040  0.1158 -0.0515
  821POPE   C2B12278   8.598  11.051   6.871 -0.3731  0.2009 -0.1695
  821POPE   C3B12279   8.884  10.834   7.247 -0.0465  0.0667  0.0051
  821POPE   C4B12280   9.011  10.609   7.528  0.0763  0.1596 -0.1903
  822POPE   NH312281  10.641  18.139   5.775  0.0089  0.2607 -0.1244
  822POPE   PO412282  10.657  18.623   5.789 -0.0706  0.2193 -0.0660
  822POPE   GL112283  10.610  18.764   6.187 -0.3727  0.0124 -0.1760
  822POPE   GL212284  10.549  19.043   6.151  0.1979 -0.0424 -0.2319
  822POPE   C1A12285  10.638  18.693   6.678  0.0926 -0.2887 -0.2902
  822POPE   D2A12286  10.548  18.390   6.981 -0.3299  0.1980  0.0468
  822POPE   C3A12287  10.328  18.408   7.364  0.0744 -0.1480 -0.2360
  822POPE   C4A12288  10.124  18.567   7.787  0.2306 -0.2559  0.2310
  822POPE   C1B12289  10.354  19.110   6.470 -0.3399  0.0302  0.1067
  822POPE   C2B12290  10.049  19.183   6.814  0.2478  0.1147 -0.0119
  822POPE   C3B12291   9.897  19.246   7.213  0.1884 -0.3026  0.1242
  822POPE   C4B12292   9.948  19.300   7.609 -0.1927 -0.0674 -0.0014
  823POPE   NH312293  17.581   2.351   5.644 -0.0491  0.2235  0.1628
  823POPE   PO412294  17.736   1.918   5.508 -0.0390  0.0557  0.0370
  823POPE   GL112295  17.630   1.820   5.916 -0.1128  0.1874 -0.1896
  823POPE   GL212296  17.397   1.634   6.035  0.1986 -0.0464 -0.3652
  823POPE   C1A12297  17.556   1.947   6.376 -0.1666 -0.0490  0.2051
  823POPE   D2A12298  17.455   1.773   6.821 -0.3371 -0.1727 -0.2171
  823POPE   C3A12299  17.776   1.808   6.832 -0.2938  0.1410  0.0124
  823POPE   C4A12300  18.208   1.757   6.757  0.0081  0.1441  0.0155
  823POPE   C1B12301  17.283   1.448   6.366 -0.1047 -0.0567 -0.6074
  823POPE   C2B12302  17.188   1.175   6.693 -0.0784 -0.2615  0.1511
  823POPE   C3B12303  17.364   0.999   7.143  0.2215 -0.0463 -0.1242
  823POPE   C4B12304  17.600   0.667   7.428  0.1328 -0.0587  0.1910
  824POPE   NH312305  17.457  16.364   5.691 -0.0193 -0.2284  0.0603
  824POPE   PO412306  17.066  16.493   5.810  0.0793  0.0356 -0.1234
  824POPE   GL112307  17.304  16.538   6.149 -0.0500  0.1982  0.0453
  824POPE   GL212308  17.426  16.753   6.224 -0.1085  0.0517 -0.0900
  824POPE   C1A12309  17.516  16.334   6.444 -0.2292 -0.3211  0.3543
  824POPE   D2A12310  17.944  16.191   6.667  0.2245  0.2351 -0.0764
  824POPE   C3A12311  17.917  16.152   7.085 -0.0590  0.5014  0.2123
  824POPE   C4A12312  17.729  16.285   7.393  0.0850  0.0249 -0.2397
  824POPE   C1B12313  17.461  16.971   6.639  0.0035 -0.0821  0.0516
  824POPE   C2B12314  17.706  17.095   7.000 -0.0924  0.1270 -0.0702
  824POPE   C3B12315  17.899  17.538   7.121  0.1197 -0.2047  0.0677
  824POPE   C4B12316  17.913  17.981   6.878 -0.0903  0.2505 -0.0382
  825POPE   NH312317  17.451  15.354   5.661  0.4160  0.1996  0.1599
  825POPE   PO412318  17.195  15.005   5.884  0.1064 -0.1034  0.0145
  825POPE   GL112319  17.365  15.290   6.143 -0.0973 -0.0181 -0.1657
  825POPE   GL212320  17.695  15.343   6.145 -0.0886  0.2357 -0.1979
  825POPE   C1A12321  17.100  15.471   6.487 -0.0438  0.0607  0.0227
  825POPE   D2A12322  16.750  15.690   6.697 -0.0609  0.1562 -0.0209
  825POPE   C3A12323  16.596  15.769   7.140  0.0999 -0.0804  0.0966
  825POPE   C4A12324  16.460  16.012   7.527  0.3233  0.3683  0.3120
  825POPE   C1B12325  17.937  15.229   6.517 -0.2980  0.0456  0.1375
  825POPE   C2B12326  17.779  14.871   6.716  0.1849  0.3902 -0.0798
  825POPE   C3B12327  17.481  14.659   6.990  0.0465 -0.0539 -0.3163
  825POPE   C4B12328  17.225  14.400   7.189 -0.0562  0.1585  0.1525
  826POPE   NH312329   5.703  12.796   5.559  0.0732  0.1073 -0.0406
  826POPE   PO412330   6.081  12.919   5.815  0.4432  0.0120  0.1915
  826POPE   GL112331   6.283  12.733   6.113 -0.2092  0.0502  0.1594
  826POPE   GL212332   6.564  12.480   6.085 -0.4427  0.0964  0.0286
  826POPE   C1A12333   6.334  12.586   6.565  0.0679 -0.1182 -0.3804
  826POPE   D2A12334   6.212  12.411   6.961  0.2591 -0.2297  0.0166
  826POPE   C3A12335   6.354  12.309   7.334 -0.4244  0.4624 -0.2656
  826POPE   C4A12336   6.728  12.276   7.328  0.1422 -0.0410  0.1075
  826POPE   C1B12337   6.769  12.668   6.382  0.0774 -0.0662  0.0906
  826POPE   C2B12338   6.982  12.849   6.669  0.1003 -0.0623  0.0306
  826POPE   C3B12339   6.802  13.254   6.981  0.0237  0.0540  0.1613
  826POPE   C4B12340   6.848  13.442   7.317  0.2492  0.0993  0.1956
  827POPE   NH312341  10.041   5.246   6.242 -0.1688  0.2610  0.0532
  827POPE   PO412342  10.447   4.983   6.137  0.3130  0.2710  0.2769
  827POPE   GL112343  10.482   5.032   6.452 -0.1212  0.2691 -0.0880
  827POPE   GL212344  10.694   5.378   6.477  0.2033  0.1202  0.0286
  827POPE   C1A12345  10.360   5.224   6.860 -0.1560 -0.3351  0.0413
  827POPE   D2A12346  10.523   5.327   7.220  0.2637 -0.0558  0.2152
  827POPE   C3A12347  10.654   5.048   7.581  0.2377 -0.0791  0.3061
  827POPE   C4A12348  10.900   4.912   7.903 -0.2729  0.1889  0.4112
  827POPE   C1B12349  10.897   5.258   6.864 -0.2123  0.0970 -0.1766
  827POPE   C2B12350  11.158   4.980   7.047  0.3237 -0.1962  0.1057
  827POPE   C3B12351  11.127   4.663   7.213 -0.0330 -0.0008 -0.0092
  827POPE   C4B12352  11.003   4.437   7.591 -0.1877  0.1667 -0.1603
  828POPE   NH312353   3.128   3.639   5.699  0.0069 -0.3176  0.2313
  828POPE   PO412354   3.557   3.913   5.718 -0.0618 -0.1001  0.1730
  828POPE   GL112355   3.609   3.896   5.961  0.1224  0.0422 -0.1699
  828POPE   GL212356   3.780   3.554   6.147 -0.0663  0.0656  0.2349
  828POPE   C1A12357   3.568   3.870   6.430  0.0469  0.0546  0.1301
  828POPE   D2A12358   3.690   3.889   6.787 -0.2845 -0.0301  0.3619
  828POPE   C3A12359   3.512   3.927   7.113  0.0655 -0.0293 -0.0635
  828POPE   C4A12360   3.350   4.124   7.466 -0.0544 -0.1587 -0.1897
  828POPE   C1B12361   3.814   3.416   6.600 -0.2585  0.1060 -0.0597
  828POPE   C2B12362   4.100   3.412   6.884 -0.3411  0.1007  0.1224
  828POPE   C3B12363   4.216   3.221   7.282 -0.2510  0.1342 -0.2319
  828POPE   C4B12364   4.100   3.191   7.716 -0.0685  0.1196 -0.0492
  829POPE   NH312365  11.108  14.299   5.983 -0.1319 -0.2565 -0.0049
  829POPE   PO412366  10.936  14.688   5.824 -0.3331  0.0996 -0.0533
  829POPE   GL112367  10.906  14.652   6.289  0.2258  0.2067  0.1041
  829POPE   GL212368  10.684  14.437   6.261 -0.0257 -0.1727  0.1657
  829POPE   C1A12369  10.899  14.698   6.679 -0.1629 -0.0394  0.3842
  829POPE   D2A12370  11.118  14.871   6.923 -0.5001 -0.3978  0.4617
  829POPE   C3A12371  11.028  15.065   7.289  0.0821  0.2792  0.0463
  829POPE   C4A12372  11.016  15.009   7.700  0.2999  0.0309  0.0863
  829POPE   C1B12373  10.922  14.213   6.618  0.0058 -0.1090  0.5039
  829POPE   C2B12374  10.968  14.236   7.112 -0.0526 -0.1942  0.0364
  829POPE   C3B12375  10.854  13.943   7.538  0.1723 -0.0056  0.1254
  829POPE   C4B12376  10.478  13.866   7.641  0.0472 -0.0579  0.3852
  830POPE   NH312377  13.816   8.187   5.711 -0.2482 -0.1384  0.1742
  830POPE   PO412378  13.830   8.579   6.046 -0.0118  0.2170  0.1660
  830POPE   GL112379  14.105   8.481   6.361 -0.1774  0.0992  0.3425
  830POPE   GL212380  14.340   8.768   6.420  0.0707  0.5935  0.0881
  830POPE   C1A12381  14.101   8.183   6.626  0.0419  0.0354 -0.2840
  830POPE   D2A12382  14.354   8.066   6.973 -0.2042  0.1196 -0.2734
  830POPE   C3A12383  14.255   8.004   7.442  0.1851  0.2169 -0.3999
  830POPE   C4A12384  14.241   7.998   7.769 -0.1763  0.0092  0.1585
  830POPE   C1B12385  14.187   8.637   6.826 -0.3086 -0.0570  0.0234
  830POPE   C2B12386  14.153   8.481   7.214 -0.0705 -0.1912 -0.0869
  830POPE   C3B12387  14.050   8.599   7.597 -0.1132 -0.1510  0.3458
  830POPE   C4B12388  13.951   8.866   7.864 -0.2243 -0.1014  0.3103
  831POPE   NH312389   9.336  11.409   6.058 -0.0612  0.0613 -0.0893
  831POPE   PO412390   9.575  11.058   5.947  0.1930 -0.1144  0.1390
  831POPE   GL112391   9.305  10.966   6.374  0.1736 -0.1023 -0.0340
  831POPE   GL212392   9.063  11.199   6.519  0.0348  0.3705 -0.2600
  831POPE   C1A12393   9.551  11.046   6.762 -0.3064 -0.1872 -0.1557
  831POPE   D2A12394   9.651  11.248   7.033 -0.0999 -0.0292 -0.1658
  831POPE   C3A12395   9.868  11.050   7.379 -0.2315 -0.2255  0.0862
  831POPE   C4A12396  10.173  10.780   7.357  0.0071  0.2962  0.2909
  831POPE   C1B12397   9.133  11.172   6.994 -0.2897  0.1873  0.0963
  831POPE   C2B12398   9.339  11.030   7.353 -0.1411 -0.1080 -0.0046
  831POPE   C3B12399   9.428  11.155   7.766  0.3268  0.2558 -0.1003
  831POPE   C4B12400   9.746  11.335   7.776 -0.2136  0.0556  0.2377
  832POPE   NH312401   7.066  16.217   5.945  0.2834  0.0320 -0.2204
  832POPE   PO412402   6.660  16.299   5.784  0.1155  0.0386  0.2072
  832POPE   GL112403   6.725  16.438   6.245  0.3827  0.1881 -0.1067
  832POPE   GL212404   6.462  16.223   6.336 -0.1652  0.4639  0.1456
  832POPE   C1A12405   6.685  16.738   6.581  0.0746  0.1351  0.1659
  832POPE   D2A12406   6.868  16.878   6.872  0.0943 -0.3427 -0.0294
  832POPE   C3A12407   7.010  17.199   6.754  0.4040  0.2169 -0.0540
  832POPE   C4A12408   7.434  17.344   6.919 -0.2212  0.0686  0.3463
  832POPE   C1B12409   6.353  16.324   6.761  0.1747  0.2012 -0.0832
  832POPE   C2B12410   6.730  16.387   6.993  0.3505 -0.0308  0.0237
  832POPE   C3B12411   6.921  15.992   7.208  0.4674  0.1036  0.2486
  832POPE   C4B12412   6.903  15.905   7.587 -0.1646  0.6421  0.2544
  833POPE   NH312413  11.556  10.187   5.906  0.0301  0.3094  0.0572
  833POPE   PO412414  11.808   9.806   6.123  0.0664 -0.1683  0.1450
  833POPE   GL112415  11.841  10.006   6.419 -0.0028 -0.3910 -0.2842
  833POPE   GL212416  11.869  10.366   6.342 -0.2581  0.1886  0.1859
  833POPE   C1A12417  11.757  10.012   6.909 -0.3699  0.0979  0.0838
  833POPE   D2A12418  11.526   9.876   7.241 -0.1580 -0.2037  0.2225
  833POPE   C3A12419  11.688   9.535   7.520 -0.1205  0.2572  0.1572
  833POPE   C4A12420  11.548   9.379   7.916 -0.0074  0.4083  0.0769
  833POPE   C1B12421  12.158  10.564   6.704 -0.0079 -0.2857 -0.2895
  833POPE   C2B12422  12.022  10.581   7.012 -0.1894  0.4003  0.1137
  833POPE   C3B12423  12.066  10.286   7.295 -0.1040 -0.2300  0.1172
  833POPE   C4B12424  11.852   9.996   7.554  0.0383 -0.2576 -0.0828
  834POPE   NH312425  16.428  16.471   5.559 -0.1780  0.0559  0.4761
  834POPE   PO412426  16.009  16.269   5.561 -0.1837 -0.2540  0.1236
  834POPE   GL112427  15.954  16.583   5.902 -0.3278  0.3454 -0.0575
  834POPE   GL212428  15.629  16.549   6.050  0.1228  0.0578  0.2559
  834POPE   C1A12429  15.953  16.851   6.228 -0.1563 -0.2411  0.0334
  834POPE   D2A12430  16.073  17.047   6.602  0.0675 -0.2298  0.1783
  834POPE   C3A12431  15.900  16.786   6.984  0.6566  0.2245 -0.1355
  834POPE   C4A12432  15.844  16.761   7.401  0.1737 -0.2643  0.0682
  834POPE   C1B12433  15.931  16.439   6.406 -0.0160  0.1863 -0.1268
  834POPE   C2B12434  15.685  16.401   6.783  0.0668 -0.0175 -0.1756
  834POPE   C3B12435  15.866  16.308   7.157  0.0349  0.2559  0.0304
  834POPE   C4B12436  16.073  16.366   7.518  0.0055 -0.0700  0.1871
  835POPE   NH312437  18.375  14.227   6.287 -0.2656  0.1266  0.1121
  835POPE   PO412438  18.371  14.634   6.083 -0.0787  0.3705  0.3549
  835POPE   GL112439  18.365  14.722   6.470  0.2682  0.2258 -0.1679
  835POPE   GL212440  18.197  14.583   6.576 -0.0661  0.1003  0.1651
  835POPE   C1A12441  18.591  14.834   6.848 -0.2368  0.0149  0.2988
  835POPE   D2A12442  18.538  14.923   7.297  0.0512  0.0100 -0.2262
  835POPE   C3A12443  18.914  14.940   7.486  0.2710 -0.1260  0.2016
  835POPE   C4A12444  19.170  15.181   7.486  0.1692  0.0584  0.1434
  835POPE   C1B12445  18.147  14.827   7.011  0.0478  0.2659 -0.0355
  835POPE   C2B12446  17.778  14.993   7.221  0.1414  0.1410  0.0155
  835POPE   C3B12447  17.309  15.108   7.361  0.2969  0.1851 -0.0160
  835POPE   C4B12448  16.989  14.892   7.437 -0.3471 -0.1138 -0.1470
  836POPE   NH312449  13.249   1.038   5.736  0.0652 -0.2421  0.0891
  836POPE   PO412450  13.071   0.726   5.885 -0.0021  0.1706  0.1065
  836POPE   GL112451  13.201   0.856   6.301  0.4154  0.2836  0.0931
  836POPE   GL212452  13.235   1.150   6.234 -0.0314 -0.2439  0.0511
  836POPE   C1A12453  13.249   0.815   6.717  0.0011  0.6664 -0.0570
  836POPE   D2A12454  12.960   0.929   7.089 -0.0810  0.2243 -0.1247
  836POPE   C3A12455  13.134   1.179   7.390 -0.2524 -0.1994 -0.0919
  836POPE   C4A12456  12.960   1.434   7.757 -0.2431  0.1196 -0.2107
  836POPE   C1B12457  13.419   1.288   6.571  0.2159  0.1929  0.1848
  836POPE   C2B12458  13.459   1.348   7.029 -0.0348  0.0733 -0.2644
  836POPE   C3B12459  13.663   1.418   7.488  0.0731 -0.0632 -0.0285
  836POPE   C4B12460  13.907   1.312   7.867  0.1361  0.0598 -0.2172
  837POPE   NH312461   1.180  17.645   5.365  0.0928  0.1600 -0.2248
  837POPE   PO412462   1.310  17.203   5.310 -0.1289 -0.0594  0.2068
  837POPE   GL112463   1.486  16.958   5.656 -0.2291 -0.1812 -0.0430
  837POPE   GL212464   1.799  16.844   5.500 -0.0783 -0.2689 -0.0369
  837POPE   C1A12465   1.314  16.834   5.964 -0.2722  0.1624 -0.1615
  837POPE   D2A12466   1.235  16.522   6.271  0.0385  0.1002  0.0577
  837POPE   C3A12467   0.953  16.745   6.336 -0.0101 -0.0503  0.0106
  837POPE   C4A12468   0.570  16.832   6.431 -0.1338 -0.0642 -0.1540
  837POPE   C1B12469   1.893  17.005   5.933  0.0030  0.3780  0.0593
  837POPE   C2B12470   2.003  17.196   6.249 -0.0029 -0.1532  0.2692
  837POPE   C3B12471   2.299  17.392   6.431 -0.0866  0.0489  0.0158
  837POPE   C4B12472   2.567  17.209   6.703  0.1722  0.1915 -0.3436
  838POPE   NH312473   8.054   0.542   5.748  0.0359 -0.0854 -0.1305
  838POPE   PO412474   8.602   0.567   5.804  0.1575  0.3092  0.0246
  838POPE   GL112475   8.427   0.824   6.045 -0.1081 -0.1151  0.2999
  838POPE   GL212476   8.275   0.639   6.230 -0.0367 -0.0428  0.2425
  838POPE   C1A12477   8.546   0.993   6.464 -0.0471 -0.0962  0.3798
  838POPE   D2A12478   8.414   1.044   6.833  0.2375 -0.2338 -0.0279
  838POPE   C3A12479   8.055   1.351   6.994 -0.1578  0.1780 -0.1453
  838POPE   C4A12480   7.889   1.741   7.141  0.2070  0.3291  0.0877
  838POPE   C1B12481   8.129   0.690   6.693 -0.4127  0.2841 -0.0521
  838POPE   C2B12482   8.010   0.810   7.051 -0.4938  0.2117 -0.1889
  838POPE   C3B12483   7.781   1.009   7.402 -0.1061  0.1270 -0.0284
  838POPE   C4B12484   7.728   1.407   7.626 -0.1666 -0.4173 -0.1008
  839POPE   NH312485  13.369  17.185   5.961 -0.0999 -0.3625  0.0499
  839POPE   PO412486  13.130  17.576   5.788 -0.1021 -0.1385 -0.1867
  839POPE   GL112487  13.324  17.636   6.238  0.0689 -0.1032 -0.2551
  839POPE   GL212488  13.155  17.310   6.425  0.0356 -0.1493 -0.0533
  839POPE   C1A12489  13.510  17.887   6.503 -0.0401  0.1372 -0.2595
  839POPE   D2A12490  13.603  18.087   6.858 -0.2989  0.0536  0.3290
  839POPE   C3A12491  13.665  18.556   6.683 -0.2809  0.4514  0.3588
  839POPE   C4A12492  13.809  18.781   6.338 -0.1641  0.1593  0.1631
  839POPE   C1B12493  13.287  17.452   6.821 -0.2381  0.2534  0.5666
  839POPE   C2B12494  13.463  17.230   7.124 -0.1286  0.3414  0.1206
  839POPE   C3B12495  13.649  16.974   7.188 -0.1495 -0.0095 -0.0876
  839POPE   C4B12496  13.751  16.757   7.689  0.1593 -0.1107  0.0618
  840POPE   NH312497  15.134  11.144   5.588  0.1631 -0.2349 -0.1261
  840POPE   PO412498  15.361  10.717   5.607  0.1016 -0.3251 -0.1521
  840POPE   GL112499  15.096  10.733   5.899  0.3157 -0.2345 -0.3838
  840POPE   GL212500  14.809  10.558   5.976  0.2512 -0.0994  0.2027
  840POPE   C1A12501  15.244  10.596   6.312  0.0310 -0.0865 -0.0632
  840POPE   D2A12502  15.302  10.514   6.737 -0.0409  0.0148  0.1234
  840POPE   C3A12503  15.092  10.518   7.074 -0.0841 -0.0850  0.2055
  840POPE   C4A12504  15.100  10.623   7.419  0.0040 -0.2893  0.1824
  840POPE   C1B12505  14.746  10.781   6.346 -0.1646 -0.0425 -0.0561
  840POPE   C2B12506  14.774  10.726   6.740 -0.2975 -0.0267 -0.5064
  840POPE   C3B12507  14.703  10.935   7.188  0.1487 -0.0293  0.6563
  840POPE   C4B12508  14.281  11.083   7.347  0.1199 -0.0463 -0.1648
  841POPE   NH312509   0.321  12.663   5.507  0.1701  0.1219 -0.1348
  841POPE   PO412510   0.495  12.370   5.623 -0.2041 -0.2211 -0.1361
  841POPE   GL112511   0.562  12.244   6.030 -0.0969 -0.2041 -0.1114
  841POPE   GL212512   0.765  12.426   6.180 -0.1135  0.1961 -0.2274
  841POPE   C1A12513   0.546  11.948   6.380  0.1865 -0.0223 -0.1078
  841POPE   D2A12514   0.615  11.867   6.810 -0.0213 -0.0708 -0.1552
  841POPE   C3A12515   0.569  12.089   7.158  0.0793 -0.1093 -0.0688
  841POPE   C4A12516   0.777  12.228   7.524 -0.1731  0.2509  0.0171
  841POPE   C1B12517   0.841  12.358   6.662  0.0814  0.0033 -0.2917
  841POPE   C2B12518   0.825  12.503   7.063 -0.0324 -0.2276 -0.2753
  841POPE   C3B12519   0.702  12.670   7.446  0.1026 -0.2707 -0.1851
  841POPE   C4B12520   0.313  12.768   7.632 -0.0324 -0.0797 -0.2536
  842POPE   NH312521   9.073   8.281   5.706 -0.1267  0.0238  0.1301
  842POPE   PO412522   9.170   8.609   6.039 -0.0203 -0.1374  0.1559
  842POPE   GL112523   9.140   8.887   6.317  0.1559 -0.2466  0.0008
  842POPE   GL212524   9.332   9.127   6.557  0.1171 -0.0974 -0.1453
  842POPE   C1A12525   8.830   9.097   6.698 -0.0874  0.0870 -0.0590
  842POPE   D2A12526   8.976   9.157   7.109 -0.1602 -0.1903 -0.0557
  842POPE   C3A12527   8.627   9.291   7.280  0.0242  0.1520  0.2739
  842POPE   C4A12528   8.355   9.614   7.455  0.1241  0.2316 -0.3267
  842POPE   C1B12529   9.430   8.917   6.903 -0.2055 -0.0797  0.0547
  842POPE   C2B12530   9.597   8.611   7.171  0.2374 -0.2325 -0.3177
  842POPE   C3B12531   9.854   8.861   7.488  0.0723  0.0333  0.2469
  842POPE   C4B12532  10.187   8.816   7.619  0.2026  0.2625  0.3064
  843POPE   NH312533  17.726   8.677   6.016 -0.1780 -0.1481 -0.1545
  843POPE   PO412534  17.571   8.983   5.687 -0.0298 -0.0365 -0.1001
  843POPE   GL112535  17.666   9.158   6.193 -0.3738 -0.2540  0.3028
  843POPE   GL212536  17.876   9.332   6.351 -0.0025  0.1460 -0.0519
  843POPE   C1A12537  17.382   9.179   6.468  0.1664  0.2273  0.3775
  843POPE   D2A12538  17.323   9.358   6.958 -0.0183 -0.2153 -0.3092
  843POPE   C3A12539  16.909   9.580   7.091  0.1055 -0.1807 -0.0349
  843POPE   C4A12540  16.785  10.054   7.186 -0.0693  0.2660  0.0693
  843POPE   C1B12541  17.830   9.279   6.775  0.2603 -0.2938  0.3050
  843POPE   C2B12542  17.719   9.134   7.171  0.0023  0.1613 -0.1388
  843POPE   C3B12543  17.402   8.910   7.292  0.0021 -0.0334 -0.0888
  843POPE   C4B12544  17.130   8.877   7.715 -0.0499  0.4524  0.2982
  844POPE   NH312545   1.270   6.786   5.873 -0.0233  0.2096  0.1000
  844POPE   PO412546   0.869   6.664   5.829 -0.0703 -0.0108  0.2489
  844POPE   GL112547   0.848   6.719   6.234  0.2048 -0.1840  0.0251
  844POPE   GL212548   0.596   6.796   6.389  0.1439  0.1236  0.1230
  844POPE   C1A12549   0.889   6.619   6.715  0.3263 -0.0212 -0.5590
  844POPE   D2A12550   0.801   6.628   7.104 -0.5068 -0.1552 -0.3014
  844POPE   C3A12551   0.841   7.081   7.362 -0.1678 -0.2552  0.0692
  844POPE   C4A12552   1.137   7.352   7.521  0.2445  0.4744  0.0189
  844POPE   C1B12553   0.323   7.081   6.655  0.0703  0.1414 -0.2459
  844POPE   C2B12554   0.472   7.441   6.944  0.0090 -0.0136 -0.0525
  844POPE   C3B12555   0.285   7.691   7.218  0.0698 -0.0231  0.0281
  844POPE   C4B12556  -0.046   7.839   7.294  0.1514  0.0260 -0.5555
  845POPE   NH312557  17.859  10.241   5.948 -0.0484  0.2424  0.1251
  845POPE   PO412558  18.283  10.153   5.980 -0.1199 -0.0763  0.1017
  845POPE   GL112559  18.257  10.161   6.425 -0.2499 -0.1801  0.1649
  845POPE   GL212560  17.977  10.380   6.471 -0.2470  0.1177  0.0109
  845POPE   C1A12561  18.550  10.074   6.763  0.3298  0.2840 -0.1905
  845POPE   D2A12562  18.659   9.788   7.133  0.0132 -0.0435 -0.3848
  845POPE   C3A12563  18.536   9.871   7.573 -0.3342 -0.2764  0.1077
  845POPE   C4A12564  18.395   9.974   7.954  0.2470 -0.0428  0.0938
  845POPE   C1B12565  18.134  10.540   6.845  0.2722 -0.2388 -0.0669
  845POPE   C2B12566  18.052  10.621   7.242 -0.0196  0.0966  0.0046
  845POPE   C3B12567  18.106  10.838   7.686  0.1112  0.2223 -0.3079
  845POPE   C4B12568  18.014  11.038   8.067 -0.0641 -0.2204 -0.0294
  846POPE   NH312569  14.409  10.203   6.043  0.2643  0.1546 -0.1209
  846POPE   PO412570  14.359   9.782   6.123 -0.0724 -0.1254 -0.3227
  846POPE   GL112571  14.409   9.879   6.483 -0.1752 -0.0722 -0.2267
  846POPE   GL212572  14.363   9.643   6.627  0.2189 -0.2144 -0.1719
  846POPE   C1A12573  14.257  10.400   6.620  0.4820  0.0859  0.4002
  846POPE   D2A12574  14.271  10.757   6.898 -0.1762 -0.1137  0.1189
  846POPE   C3A12575  13.895  10.782   7.091 -0.0598  0.1142 -0.0017
  846POPE   C4A12576  13.439  10.813   6.981 -0.0195 -0.0008 -0.2985
  846POPE   C1B12577  14.694   9.590   7.005 -0.1385  0.2313 -0.3584
  846POPE   C2B12578  14.793   9.592   7.420  0.0740  0.0015 -0.1905
  846POPE   C3B12579  14.977   9.616   7.803  0.0273  0.2509  0.0359
  846POPE   C4B12580  15.241   9.821   7.923 -0.1907 -0.2120  0.3567
  847POPE   NH312581  15.434   7.129   5.973  0.2009 -0.1117 -0.1904
  847POPE   PO412582  15.287   6.830   5.746 -0.1545 -0.0139  0.0553
  847POPE   GL112583  15.332   6.682   6.126  0.0899  0.2630  0.0741
  847POPE   GL212584  15.634   6.681   6.169  0.1186  0.2251  0.0701
  847POPE   C1A12585  15.166   6.476   6.462 -0.1325 -0.2894  0.2123
  847POPE   D2A12586  15.326   6.304   6.824 -0.1369 -0.3132 -0.0871
  847POPE   C3A12587  15.418   6.625   7.113  0.1899  0.4710  0.0056
  847POPE   C4A12588  15.297   6.822   7.419 -0.1060 -0.0970  0.2296
  847POPE   C1B12589  15.855   6.670   6.545 -0.3704  0.2757  0.2047
  847POPE   C2B12590  15.891   6.544   7.008  0.0017  0.4469 -0.1313
  847POPE   C3B12591  16.121   6.380   7.348 -0.2566 -0.0883  0.3202
  847POPE   C4B12592  16.601   6.415   7.589 -0.1252 -0.0492  0.1653
  848POPE   NH312593   5.758  15.773   5.778  0.5036 -0.1807  0.2165
  848POPE   PO412594   6.183  15.637   5.719  0.1534 -0.0155 -0.0561
  848POPE   GL112595   6.000  15.571   6.167 -0.1953  0.0350 -0.1315
  848POPE   GL212596   5.718  15.444   6.174 -0.0559  0.3569 -0.3935
  848POPE   C1A12597   6.152  15.821   6.456 -0.0358  0.0886  0.0126
  848POPE   D2A12598   6.067  15.969   6.905 -0.3789  0.2938 -0.0108
  848POPE   C3A12599   6.377  16.162   7.230 -0.2145 -0.0681 -0.0448
  848POPE   C4A12600   6.570  16.566   7.446 -0.1017 -0.2001 -0.4030
  848POPE   C1B12601   5.621  15.247   6.578  0.4476  0.0303 -0.0228
  848POPE   C2B12602   5.521  15.093   6.977 -0.0309  0.0635 -0.0661
  848POPE   C3B12603   5.268  15.096   7.407 -0.0298 -0.0050  0.0060
  848POPE   C4B12604   5.042  15.231   7.858 -0.2501 -0.0219  0.5100
  849POPE   NH312605  14.013  10.310   5.303 -0.2103  0.0399  0.0477
  849POPE   PO412606  13.930  10.337   5.842  0.0570  0.0138 -0.2886
  849POPE   GL112607  13.877  10.375   6.223 -0.1770 -0.0837  0.0643
  849POPE   GL212608  13.552  10.252   6.239 -0.1444  0.1635 -0.2448
  849POPE   C1A12609  13.755  10.417   6.732 -0.1033  0.2838 -0.0534
  849POPE   D2A12610  13.781  10.282   7.079  0.1513  0.2977 -0.1358
  849POPE   C3A12611  14.199  10.403   7.220 -0.1634 -0.0675  0.0568
  849POPE   C4A12612  14.662  10.423   7.289  0.3274  0.0241  0.2541
  849POPE   C1B12613  13.318  10.541   6.534 -0.1335  0.1152 -0.0041
  849POPE   C2B12614  13.263  10.380   6.916 -0.1473  0.1589  0.1300
  849POPE   C3B12615  13.077  10.221   7.314  0.2336  0.3886  0.3552
  849POPE   C4B12616  13.103  10.379   7.716  0.0387 -0.2276 -0.0405
  850POPE   NH312617  14.628  14.734   5.581 -0.2614 -0.1545  0.0917
  850POPE   PO412618  14.320  14.947   5.819 -0.0424 -0.2064  0.0982
  850POPE   GL112619  14.319  14.550   6.066  0.2235  0.0491  0.5090
  850POPE   GL212620  14.132  14.687   6.169 -0.3566 -0.2785 -0.2830
  850POPE   C1A12621  14.308  14.308   6.450 -0.0028 -0.2373  0.1126
  850POPE   D2A12622  14.234  13.922   6.748  0.0923  0.0105  0.0970
  850POPE   C3A12623  14.165  13.927   7.199  0.0397 -0.1215  0.1096
  850POPE   C4A12624  14.008  14.290   7.439  0.1806 -0.2525  0.1944
  850POPE   C1B12625  14.050  14.765   6.708 -0.1774 -0.1434  0.2402
  850POPE   C2B12626  14.035  14.875   7.154 -0.2698 -0.0168  0.1706
  850POPE   C3B12627  13.894  14.817   7.548 -0.3442 -0.0424  0.1960
  850POPE   C4B12628  13.922  14.532   7.944 -0.0599  0.1047 -0.4019
  851YOPE   NH312629  12.218  15.427   5.891  0.1314 -0.0800 -0.0674
  851YOPE   PO412630  11.804  15.264   6.018  0.2506 -0.0306  0.0258
  851YOPE   GL112631  11.656  15.315   6.465 -0.0317  0.0392 -0.0473
  851YOPE   GL212632  11.530  15.017   6.600  0.2598 -0.0483  0.1420
  851YOPE   C1A12633  12.048  15.420   6.750  0.2142 -0.2390  0.0845
  851YOPE   D2A12634  12.311  15.551   7.136  0.0401  0.0661 -0.0397
  851YOPE   C3A12635  12.126  15.770   7.413 -0.0013  0.0399 -0.0978
  851YOPE   C4A12636  11.905  15.780   7.782  0.1305  0.1361  0.0762
  851YOPE   C1B12637  11.598  15.030   7.054 -0.0229  0.1206  0.1850
  851YOPE   C2B12638  11.852  15.350   7.250 -0.0351 -0.0522 -0.2788
  851YOPE   D3B12639  11.917  15.257   7.737  0.1847  0.0991 -0.1637
  851YOPE   C4B12640  12.011  14.875   8.022  0.1836 -0.3418 -0.0335
  852YOPE   NH312641  15.278   2.523   5.836  0.0593  0.0868  0.3065
  852YOPE   PO412642  14.869   2.347   5.676 -0.2475 -0.1388  0.1402
  852YOPE   GL112643  14.892   2.185   6.075  0.1376 -0.2846  0.3907
  852YOPE   GL212644  15.031   1.893   6.265 -0.1137  0.1094  0.4823
  852YOPE   C1A12645  14.779   2.291   6.529 -0.0886  0.2093 -0.0429
  852YOPE   D2A12646  14.610   2.149   6.944  0.2291 -0.2025  0.1752
  852YOPE   C3A12647  14.543   1.662   7.058 -0.0105 -0.0871 -0.1121
  852YOPE   C4A12648  14.866   1.320   7.230  0.0681  0.0721 -0.0040
  852YOPE   C1B12649  14.934   1.781   6.646 -0.1833 -0.2054 -0.1321
  852YOPE   C2B12650  15.015   1.845   7.129 -0.1282 -0.1809 -0.1845
  852YOPE   D3B12651  14.832   1.667   7.564  0.2141 -0.2811 -0.0666
  852YOPE   C4B12652  14.370   1.578   7.703 -0.1250 -0.0035  0.0277
  853YOPE   NH312653  13.614   7.340   5.810  0.1644  0.0043 -0.1104
  853YOPE   PO412654  14.003   7.129   5.984  0.0764  0.1630 -0.0956
  853YOPE   GL112655  14.074   7.003   6.452 -0.0667  0.0490 -0.0366
  853YOPE   GL212656  14.355   6.935   6.658  0.0295  0.2283 -0.1980
  853YOPE   C1A12657  13.753   6.908   6.713 -0.0682 -0.1416  0.3461
  853YOPE   D2A12658  13.702   6.609   6.996  0.2366  0.2319  0.0062
  853YOPE   C3A12659  13.388   6.723   7.135 -0.1267 -0.0017  0.2401
  853YOPE   C4A12660  13.362   7.031   7.508 -0.1968  0.1809  0.2042
  853YOPE   C1B12661  14.437   7.099   7.091 -0.1083  0.1273 -0.1348
  853YOPE   C2B12662  14.605   6.952   7.440 -0.2164 -0.0807  0.0275
  853YOPE   D3B12663  14.368   6.916   7.886  0.3809 -0.0552  0.1949
  853YOPE   C4B12664  13.958   6.676   7.955 -0.1508  0.2884 -0.2418
  854YOPE   NH312665  13.506  15.820   5.806  0.1938  0.1039  0.0641
  854YOPE   PO412666  13.933  15.999   5.655  0.0513 -0.1851 -0.0696
  854YOPE   GL112667  14.223  15.995   5.972  0.1175  0.2822  0.1795
  854YOPE   GL212668  14.509  15.772   5.899 -0.2412 -0.0360 -0.1158
  854YOPE   C1A12669  14.173  16.025   6.381 -0.0722 -0.0062  0.1780
  854YOPE   D2A12670  14.241  16.053   6.796  0.4123 -0.0220 -0.2591
  854YOPE   C3A12671  14.059  16.050   7.127 -0.0551 -0.0355 -0.0276
  854YOPE   C4A12672  14.207  15.846   7.531 -0.3893 -0.1617  0.0460
  854YOPE   C1B12673  14.455  15.615   6.248 -0.0170  0.0871 -0.0743
  854YOPE   C2B12674  14.536  15.649   6.655 -0.4665 -0.0420  0.1473
  854YOPE   D3B12675  14.674  16.023   6.975 -0.0717 -0.2945 -0.0103
  854YOPE   C4B12676  14.414  16.268   7.309  0.0652  0.3063 -0.1532
  855YOPE   NH312677   8.759  16.511   6.053 -0.3226  0.1443  0.3572
  855YOPE   PO412678   9.144  16.466   5.851 -0.1578 -0.2945  0.0254
  855YOPE   GL112679   9.262  16.449   6.294 -0.0487  0.0204 -0.2245
  855YOPE   GL212680   9.208  16.068   6.339 -0.0438  0.0502 -0.0752
  855YOPE   C1A12681   8.902  16.553   6.609 -0.0546 -0.1457  0.1583
  855YOPE   D2A12682   8.791  17.003   6.893  0.0857  0.1235  0.0041
  855YOPE   C3A12683   9.183  17.106   7.224  0.0841  0.1439 -0.2534
  855YOPE   C4A12684   9.438  17.233   7.594 -0.2973 -0.0222  0.1215
  855YOPE   C1B12685   9.077  16.108   6.741 -0.2841  0.2585  0.0158
  855YOPE   C2B12686   8.991  16.373   7.086  0.0379 -0.1554 -0.2094
  855YOPE   D3B12687   8.872  16.649   7.364 -0.1514 -0.0929  0.0574
  855YOPE   C4B12688   8.971  16.984   7.792  0.1555  0.0629  0.0821
  856YOPE   NH312689   5.348   8.227   6.033 -0.0243  0.0458  0.1402
  856YOPE   PO412690   5.570   7.840   6.066  0.3210 -0.1431  0.2856
  856YOPE   GL112691   5.829   8.142   6.217 -0.1980 -0.5281  0.0672
  856YOPE   GL212692   5.855   8.129   6.570  0.0488  0.0881  0.1215
  856YOPE   C1A12693   5.974   8.576   6.300  0.1619 -0.1201  0.1144
  856YOPE   D2A12694   5.899   8.596   6.738  0.2258 -0.0267 -0.0654
  856YOPE   C3A12695   5.826   8.786   7.095  0.1289  0.3614 -0.1191
  856YOPE   C4A12696   5.884   8.641   7.510 -0.2132  0.1571  0.0162
  856YOPE   C1B12697   5.874   8.191   6.970  0.0918 -0.0228  0.0023
  856YOPE   C2B12698   5.816   8.174   7.391  0.1370 -0.1597 -0.0506
  856YOPE   D3B12699   5.962   7.975   7.756  0.0851 -0.1177  0.0795
  856YOPE   C4B12700   6.029   7.759   8.186 -0.2816  0.1462  0.2941
  857YOPE   NH312701   3.708   2.884   5.726  0.2244 -0.0596  0.1753
  857YOPE   PO412702   3.309   3.157   5.824 -0.2487  0.1135 -0.0681
  857YOPE   GL112703   3.065   3.041   6.086 -0.0906  0.4216 -0.3284
  857YOPE   GL212704   3.161   2.719   6.407 -0.2359  0.2342  0.3594
  857YOPE   C1A12705   2.909   3.147   6.644  0.1817  0.2637  0.2436
  857YOPE   D2A12706   2.760   3.112   7.035  0.2045  0.1797  0.0570
  857YOPE   C3A12707   2.658   3.395   7.331  0.2477 -0.1773  0.0631
  857YOPE   C4A12708   2.574   3.773   7.402  0.0313 -0.1534  0.0063
  857YOPE   C1B12709   2.862   2.623   6.740  0.0795 -0.1651 -0.0039
  857YOPE   C2B12710   2.674   2.420   7.070  0.0211  0.2808  0.1627
  857YOPE   D3B12711   2.678   2.147   7.384 -0.1585  0.1844  0.1457
  857YOPE   C4B12712   2.632   1.769   7.502  0.3101 -0.0749 -0.1039
  858YOPE   NH312713  11.654  16.396   5.798  0.0892  0.2102 -0.3652
  858YOPE   PO412714  11.298  16.569   6.013 -0.0362  0.3930 -0.0641
  858YOPE   GL112715  11.186  16.486   6.389 -0.1790  0.1441 -0.0502
  858YOPE   GL212716  10.859  16.276   6.342  0.1188 -0.0688  0.0544
  858YOPE   C1A12717  11.086  16.751   6.663 -0.0390  0.1275 -0.1874
  858YOPE   D2A12718  11.093  16.721   7.116  0.0590 -0.0118 -0.0854
  858YOPE   C3A12719  11.012  16.976   7.478 -0.0907  0.1621  0.0234
  858YOPE   C4A12720  11.254  17.293   7.742 -0.2873  0.0022  0.0483
  858YOPE   C1B12721  10.780  16.359   6.798  0.0267  0.0989 -0.2348
  858YOPE   C2B12722  10.445  16.233   7.104  0.1613  0.2288  0.0278
  858YOPE   D3B12723  10.340  16.419   7.488  0.1838  0.1480 -0.1986
  858YOPE   C4B12724  10.491  16.952   7.599 -0.4121  0.0325  0.0865
  859YOPE   NH312725   9.343  13.708   5.714 -0.2588 -0.1464 -0.0443
  859YOPE   PO412726   9.657  13.657   6.025  0.3406 -0.2395 -0.1742
  859YOPE   GL112727   9.621  13.527   6.417 -0.1052  0.4240  0.0193
  859YOPE   GL212728   9.529  13.229   6.484 -0.0028  0.0425 -0.0079
  859YOPE   C1A12729   9.281  13.568   6.775  0.0453 -0.0639 -0.1539
  859YOPE   D2A12730   9.017  13.351   7.078  0.0600  0.0168 -0.1675
  859YOPE   C3A12731   9.160  13.037   7.412  0.3402 -0.2103  0.0346
  859YOPE   C4A12732   9.070  12.976   7.843 -0.0092 -0.0100 -0.0810
  859YOPE   C1B12733   9.302  13.032   6.736 -0.4719  0.0921  0.1039
  859YOPE   C2B12734   9.239  12.677   7.002  0.3509 -0.1543  0.1388
  859YOPE   D3B12735   9.173  12.535   7.359  0.0396  0.1113  0.0078
  859YOPE   C4B12736   9.424  12.562   7.572  0.0030 -0.1183  0.3342
  860YOPE   NH312737   7.139  10.368   6.013 -0.2762  0.1166  0.1408
  860YOPE   PO412738   6.738  10.191   6.049  0.0198 -0.0716 -0.2932
  860YOPE   GL112739   6.745  10.395   6.444 -0.0007 -0.0915 -0.1328
  860YOPE   GL212740   6.451  10.426   6.587 -0.0395 -0.0439 -0.1246
  860YOPE   C1A12741   6.973  10.464   6.925 -0.0896 -0.1299  0.0955
  860YOPE   D2A12742   6.936  10.363   7.431  0.2176  0.2932 -0.0906
  860YOPE   C3A12743   7.076  10.640   7.665 -0.1502 -0.0063 -0.2241
  860YOPE   C4A12744   6.993  10.722   8.073 -0.0352  0.0883 -0.1434
  860YOPE   C1B12745   6.453  10.536   6.973 -0.0513 -0.2834  0.1156
  860YOPE   C2B12746   6.783  10.773   7.265 -0.2604 -0.1243  0.1176
  860YOPE   D3B12747   6.915  11.054   7.496  0.2343 -0.3991  0.1944
  860YOPE   C4B12748   6.842  11.375   7.725 -0.2880 -0.1343 -0.1815
  861YOPE   NH312749   2.789   1.776   5.153  0.0972  0.0690  0.0326
  861YOPE   PO412750   3.094   1.476   5.285 -0.0365  0.2405  0.2386
  861YOPE   GL112751   3.165   1.432   5.729  0.0130  0.0592 -0.0472
  861YOPE   GL212752   3.241   1.109   5.907  0.1579 -0.6135 -0.2031
  861YOPE   C1A12753   3.120   1.693   6.010 -0.1772  0.0964  0.0804
  861YOPE   D2A12754   2.939   1.737   6.393 -0.1034 -0.1676 -0.0181
  861YOPE   C3A12755   2.795   2.115   6.720  0.0000  0.0659  0.0141
  861YOPE   C4A12756   3.185   2.374   6.986  0.0677 -0.0798  0.0238
  861YOPE   C1B12757   3.209   1.251   6.286 -0.0471  0.0266 -0.1183
  861YOPE   C2B12758   3.342   0.986   6.672  0.0336  0.1923  0.0701
  861YOPE   D3B12759   3.692   0.859   7.114 -0.0387 -0.3946  0.0380
  861YOPE   C4B12760   3.598   0.632   7.486 -0.2314  0.0130 -0.1318
  862YOPE   NH312761   3.285   2.652   5.861 -0.0000  0.1031  0.0215
  862YOPE   PO412762   3.611   2.349   5.709  0.0929  0.1141  0.1200
  862YOPE   GL112763   3.675   2.286   6.142  0.1765  0.3458 -0.0471
  862YOPE   GL212764   4.000   2.152   6.061  0.0312 -0.1607 -0.1756
  862YOPE   C1A12765   3.669   2.491   6.469  0.0652  0.0070  0.0097
  862YOPE   D2A12766   3.701   2.482   6.930  0.1817 -0.1437  0.0253
  862YOPE   C3A12767   3.592   2.279   7.307 -0.0907 -0.0876  0.0378
  862YOPE   C4A12768   3.559   2.147   7.713  0.2410 -0.2713 -0.0212
  862YOPE   C1B12769   4.036   1.883   6.393  0.0989  0.1715  0.3214
  862YOPE   C2B12770   3.866   1.536   6.683  0.0461 -0.0130 -0.0444
  862YOPE   D3B12771   3.653   1.349   6.950  0.3235  0.2798  0.0630
  862YOPE   C4B12772   3.266   1.170   7.156 -0.2246  0.3192  0.3264
  863YOPE   NH312773  11.399   2.985   5.535  0.0105 -0.0943 -0.1249
  863YOPE   PO412774  11.536   2.511   5.535  0.0310 -0.1324  0.2497
  863YOPE   GL112775  11.657   2.497   5.953 -0.0431 -0.0225  0.3342
  863YOPE   GL212776  11.352   2.283   6.033 -0.1185  0.0513 -0.0299
  863YOPE   C1A12777  11.675   2.611   6.441 -0.2070  0.1768  0.0358
  863YOPE   D2A12778  11.748   2.628   6.899 -0.4036 -0.1019 -0.0232
  863YOPE   C3A12779  11.468   2.776   7.189 -0.0468 -0.2625  0.2590
  863YOPE   C4A12780  11.015   2.720   7.252 -0.0705 -0.0403 -0.3597
  863YOPE   C1B12781  11.149   2.586   6.271  0.0203  0.2858  0.0058
  863YOPE   C2B12782  11.071   2.950   6.406 -0.0889  0.1625  0.0345
  863YOPE   D3B12783  11.092   3.340   6.349  0.0804  0.1272 -0.0071
  863YOPE   C4B12784  11.437   3.479   6.291 -0.1442 -0.1269  0.3930
  864YOPE   NH312785  18.238  13.603   5.760  0.1223  0.5846  0.0147
  864YOPE   PO412786  18.473  13.689   6.064 -0.1668 -0.0136 -0.4208
  864YOPE   GL112787  18.855  13.902   6.321  0.2300 -0.2708 -0.3626
  864YOPE   GL212788  19.172  13.997   6.229  0.6411 -0.0103 -0.2634
  864YOPE   C1A12789  18.878  14.204   6.749  0.4873 -0.2058  0.1359
  864YOPE   D2A12790  18.469  14.320   6.998  0.1288  0.2049 -0.3296
  864YOPE   C3A12791  18.310  14.005   7.201 -0.3047 -0.0737 -0.0617
  864YOPE   C4A12792  17.925  13.720   7.266 -0.3699  0.0824  0.1728
  864YOPE   C1B12793  19.328  14.243   6.602 -0.0715  0.4044  0.1284
  864YOPE   C2B12794  19.368  14.409   7.055  0.1830 -0.2644  0.1861
  864YOPE   D3B12795  19.212  14.087   7.438  0.2642  0.0957 -0.0604
  864YOPE   C4B12796  19.112  14.373   7.810 -0.0413 -0.0949  0.0478
  865YOPE   NH312797  17.878   7.290   5.613 -0.1488  0.3702  0.0421
  865YOPE   PO412798  17.823   6.897   5.811 -0.0984 -0.2053 -0.1722
  865YOPE   GL112799  17.616   6.908   6.261 -0.0699 -0.0041 -0.2648
  865YOPE   GL212800  17.530   6.624   6.248 -0.0058  0.1720 -0.0342
  865YOPE   C1A12801  17.390   6.896   6.679 -0.1332  0.2204 -0.0913
  865YOPE   D2A12802  17.436   6.831   7.051  0.1242  0.1764 -0.2398
  865YOPE   C3A12803  17.493   6.979   7.440  0.1299  0.0986  0.1157
  865YOPE   C4A12804  17.672   7.194   7.754 -0.0196 -0.1207 -0.0824
  865YOPE   C1B12805  17.532   6.373   6.590  0.1148 -0.0996  0.0416
  865YOPE   C2B12806  17.741   6.434   6.960  0.3362  0.0196  0.0495
  865YOPE   D3B12807  17.890   6.720   7.158  0.0511 -0.0392  0.2189
  865YOPE   C4B12808  17.998   7.090   7.411 -0.1349  0.1632  0.2438
  866YOPE   NH312809  15.609   5.561   5.694 -0.0407 -0.0492 -0.1257
  866YOPE   PO412810  15.296   5.152   5.670  0.0319 -0.1076 -0.0305
  866YOPE   GL112811  15.354   5.279   6.150 -0.3272 -0.1446  0.1252
  866YOPE   GL212812  15.445   5.638   6.213  0.1444  0.3339 -0.3401
  866YOPE   C1A12813  15.185   5.060   6.543  0.0290 -0.3971  0.2828
  866YOPE   D2A12814  15.271   5.204   6.978 -0.0071 -0.3543 -0.2100
  866YOPE   C3A12815  15.216   5.364   7.353  0.1252  0.2751  0.1705
  866YOPE   C4A12816  15.042   5.127   7.688  0.0187 -0.2642  0.2109
  866YOPE   C1B12817  15.576   5.484   6.649 -0.1998 -0.1435  0.2435
  866YOPE   C2B12818  15.690   5.440   7.148 -0.2997  0.1177  0.2397
  866YOPE   D3B12819  16.023   5.167   7.379 -0.2099 -0.0429 -0.0759
  866YOPE   C4B12820  16.373   5.088   7.623 -0.2086  0.0779 -0.0091
  867YOPE   NH312821  16.994   2.712   5.593 -0.2034  0.1678 -0.1423
  867YOPE   PO412822  17.377   2.765   5.480  0.1788 -0.2310  0.1423
  867YOPE   GL112823  17.771   2.785   5.828 -0.0550  0.1097  0.3922
  867YOPE   GL212824  18.042   2.993   5.762  0.1722  0.4055  0.3713
  867YOPE   C1A12825  17.801   2.799   6.194 -0.0147 -0.0266  0.1255
  867YOPE   D2A12826  18.017   3.066   6.391  0.1989 -0.0735 -0.3946
  867YOPE   C3A12827  17.870   2.893   6.778 -0.1272 -0.1685 -0.2102
  867YOPE   C4A12828  17.748   2.655   7.128 -0.0832 -0.1837 -0.2195
  867YOPE   C1B12829  18.374   3.056   6.004  0.2750 -0.1970  0.1412
  867YOPE   C2B12830  18.538   3.123   6.375  0.0254  0.0805 -0.2799
  867YOPE   D3B12831  18.365   3.198   6.774 -0.1774  0.3541  0.1895
  867YOPE   C4B12832  18.421   3.397   7.142  0.4103  0.0228  0.1955
  868YOPE   NH312833   4.326  14.553   5.523 -0.0791  0.3544 -0.1109
  868YOPE   PO412834   3.891  14.331   5.482  0.0730 -0.2658 -0.1229
  868YOPE   GL112835   3.882  14.228   5.915  0.0834 -0.0045  0.0839
  868YOPE   GL212836   4.258  14.286   6.109  0.2734 -0.0723 -0.3039
  868YOPE   C1A12837   3.604  14.373   6.313 -0.2024  0.2185  0.0710
  868YOPE   D2A12838   3.525  14.266   6.789  0.0027 -0.1320 -0.0437
  868YOPE   C3A12839   3.179  14.504   7.002 -0.1471  0.1195  0.1560
  868YOPE   C4A12840   3.258  14.929   7.137  0.3310  0.0750  0.4115
  868YOPE   C1B12841   4.523  14.406   6.438 -0.0065  0.1311 -0.2053
  868YOPE   C2B12842   4.680  14.524   6.876  0.0882 -0.2026  0.1088
  868YOPE   D3B12843   4.674  14.382   7.292  0.2064 -0.2742  0.0363
  868YOPE   C4B12844   4.566  14.158   7.707 -0.1735  0.2022  0.0001
  869YOPE   NH312845   5.132   7.493   5.962  0.0125 -0.1008  0.3260
  869YOPE   PO412846   5.542   7.305   5.750  0.2941 -0.2269  0.0463
  869YOPE   GL112847   5.526   7.361   6.311  0.3614  0.0978 -0.1060
  869YOPE   GL212848   5.680   7.617   6.512  0.1174 -0.1397  0.0025
  869YOPE   C1A12849   5.405   7.237   6.774 -0.1811  0.2401 -0.0489
  869YOPE   D2A12850   5.407   7.296   7.155  0.2769 -0.2313 -0.0731
  869YOPE   C3A12851   5.757   7.513   7.337  0.0383 -0.1575  0.1180
  869YOPE   C4A12852   5.988   7.422   7.675 -0.3343 -0.1557 -0.0971
  869YOPE   C1B12853   5.559   7.786   6.928  0.1124 -0.0059  0.0505
  869YOPE   C2B12854   5.264   7.771   7.296 -0.1879  0.1016  0.1462
  869YOPE   D3B12855   5.063   7.665   7.645 -0.0234  0.0281  0.0499
  869YOPE   C4B12856   5.057   7.843   8.066 -0.2208  0.2605  0.2489
  870YOPE   NH312857  15.459   9.382   5.350 -0.1733 -0.0407  0.2485
  870YOPE   PO412858  15.671   9.036   5.526 -0.0193  0.2196  0.3811
  870YOPE   GL112859  15.693   8.962   6.044 -0.2051 -0.1344  0.0454
  870YOPE   GL212860  15.689   9.124   6.383  0.0126  0.0591  0.1963
  870YOPE   C1A12861  15.672   8.642   6.381  0.0777 -0.2727 -0.3566
  870YOPE   D2A12862  15.544   8.235   6.531  0.2754 -0.1151 -0.0599
  870YOPE   C3A12863  15.283   8.154   6.903  0.0117  0.0737 -0.2155
  870YOPE   C4A12864  15.221   7.720   7.123  0.1298  0.1813  0.0534
  870YOPE   C1B12865  15.871   8.922   6.694 -0.0861  0.1706 -0.0017
  870YOPE   C2B12866  16.173   8.710   7.023 -0.2503 -0.3021 -0.2854
  870YOPE   D3B12867  16.629   8.529   7.203  0.0477 -0.1437 -0.2457
  870YOPE   C4B12868  17.014   8.584   7.318 -0.1191  0.2331  0.0994
  871YOPE   NH312869   7.619  14.019   6.068 -0.0237 -0.3862  0.0178
  871YOPE   PO412870   7.294  14.362   6.043  0.1526 -0.0844 -0.3881
  871YOPE   GL112871   7.118  14.500   6.406  0.3857 -0.2429 -0.0751
  871YOPE   GL212872   6.738  14.591   6.421  0.0121  0.1403 -0.1755
  871YOPE   C1A12873   7.182  14.398   6.831  0.3726  0.0946 -0.1237
  871YOPE   D2A12874   7.238  14.038   7.016 -0.0283 -0.2652  0.2057
  871YOPE   C3A12875   6.908  13.943   7.250 -0.1812 -0.3908 -0.1468
  871YOPE   C4A12876   6.781  13.812   7.648  0.0171 -0.1846 -0.1379
  871YOPE   C1B12877   6.720  14.656   6.798 -0.0329  0.3164  0.0693
  871YOPE   C2B12878   6.867  14.597   7.165 -0.3661 -0.3461  0.2672
  871YOPE   D3B12879   7.053  14.442   7.492  0.1351  0.1543 -0.1454
  871YOPE   C4B12880   7.092  14.184   7.884  0.2302 -0.1733  0.0481
  872YOPE   NH312881   9.548  17.684   5.179  0.3688 -0.1587 -0.1157
  872YOPE   PO412882   9.364  17.677   5.633  0.1619  0.5564 -0.0102
  872YOPE   GL112883   9.046  17.592   6.054 -0.0729 -0.1507 -0.0816
  872YOPE   GL212884   9.461  17.393   6.120 -0.0148 -0.1112  0.0859
  872YOPE   C1A12885   8.834  17.736   6.436  0.3101  0.1653  0.1954
  872YOPE   D2A12886   8.556  17.827   6.845  0.1955  0.0026 -0.0952
  872YOPE   C3A12887   8.348  17.280   6.904 -0.1843  0.2935  0.2766
  872YOPE   C4A12888   8.152  17.382   7.356 -0.4209 -0.1904  0.1270
  872YOPE   C1B12889   9.703  17.344   6.620  0.0195 -0.0914 -0.0637
  872YOPE   C2B12890   9.678  17.120   7.012 -0.0134 -0.0099  0.0498
  872YOPE   D3B12891   9.623  16.760   7.151 -0.2398 -0.3184  0.1059
  872YOPE   C4B12892   9.803  16.440   7.133 -0.2227  0.1680  0.1099
  873YOPE   NH312893  10.476  13.579   6.027  0.0512 -0.0454 -0.1492
  873YOPE   PO412894  10.750  13.231   5.899 -0.0059  0.6897 -0.0325
  873YOPE   GL112895  10.846  13.276   6.340  0.1094 -0.1941 -0.1895
  873YOPE   GL212896  10.713  13.463   6.501 -0.0964 -0.1827 -0.2817
  873YOPE   C1A12897  10.955  12.921   6.740  0.2567 -0.3862  0.1520
  873YOPE   D2A12898  11.161  12.942   7.033 -0.0872  0.1185  0.0201
  873YOPE   C3A12899  10.897  12.653   7.372 -0.0791 -0.1468 -0.2044
  873YOPE   C4A12900  10.949  12.744   7.817 -0.2844 -0.4005  0.5848
  873YOPE   C1B12901  10.922  13.436   6.909  0.1073  0.1937 -0.2940
  873YOPE   C2B12902  10.922  13.317   7.291  0.0063  0.3187 -0.1543
  873YOPE   D3B12903  11.155  13.122   7.496  0.2151 -0.3456 -0.2170
  873YOPE   C4B12904  11.507  13.294   7.762  0.1092 -0.2241 -0.0419
  874YOPE   NH312905  14.649   9.462   5.802 -0.0388  0.1327  0.0921
  874YOPE   PO412906  14.709   9.903   5.661 -0.2585  0.2446 -0.0726
  874YOPE   GL112907  14.813   9.910   6.065  0.0619 -0.1425 -0.2318
  874YOPE   GL212908  15.050  10.125   6.206 -0.1517 -0.0737  0.0276
  874YOPE   C1A12909  14.961   9.823   6.570  0.0668  0.2734  0.0982
  874YOPE   D2A12910  15.097  10.073   6.909  0.1676  0.1031 -0.1310
  874YOPE   C3A12911  14.988  10.054   7.348 -0.0810  0.0062  0.2036
  874YOPE   C4A12912  15.033  10.263   7.693 -0.1119  0.0704  0.0492
  874YOPE   C1B12913  14.786  10.281   6.525 -0.3119 -0.1540 -0.0023
  874YOPE   C2B12914  14.604  10.091   6.865  0.1221 -0.2125  0.0954
  874YOPE   D3B12915  14.421   9.929   7.352 -0.2187  0.0662 -0.2169
  874YOPE   C4B12916  14.452   9.720   7.756  0.2183  0.1787 -0.0486
  875YOPE   NH312917  11.842   5.542   6.278  0.1314 -0.1445 -0.0354
  875YOPE   PO412918  11.397   5.296   6.187  0.0379 -0.2276 -0.0299
  875YOPE   GL112919  11.369   5.250   6.676 -0.0385  0.4500 -0.2051
  875YOPE   GL212920  11.396   4.840   6.642 -0.0397  0.4056 -0.2326
  875YOPE   C1A12921  11.452   5.345   7.140  0.1165  0.2153  0.2701
  875YOPE   D2A12922  11.853   5.433   7.258  0.1249 -0.0787 -0.0903
  875YOPE   C3A12923  11.886   5.056   7.461  0.1523 -0.1467  0.1154
  875YOPE   C4A12924  12.049   4.952   7.800  0.0096 -0.3364  0.0754
  875YOPE   C1B12925  11.363   4.439   6.849 -0.2369  0.0308  0.1176
  875YOPE   C2B12926  11.283   4.103   7.127  0.2089  0.0756 -0.0731
  875YOPE   D3B12927  11.199   3.738   7.285  0.0027 -0.0077 -0.1636
  875YOPE   C4B12928  11.401   3.505   7.606  0.3538  0.0262 -0.3032
  876YOPE   NH312929   5.296   2.678   5.630  0.0331 -0.2096 -0.2376
  876YOPE   PO412930   5.639   2.607   5.402 -0.3551  0.1256  0.0990
  876YOPE   GL112931   5.688   2.455   5.839  0.0484  0.1162 -0.1546
  876YOPE   GL212932   5.872   2.163   6.040 -0.0436 -0.0641 -0.0485
  876YOPE   C1A12933   5.392   2.312   6.201  0.0878 -0.0214  0.1114
  876YOPE   D2A12934   5.359   2.159   6.669  0.2098  0.1030  0.0617
  876YOPE   C3A12935   5.040   2.233   6.927 -0.0009 -0.4663  0.0286
  876YOPE   C4A12936   4.579   2.289   7.026 -0.2937 -0.1425 -0.0622
  876YOPE   C1B12937   5.759   2.019   6.431  0.1176  0.0501  0.0781
  876YOPE   C2B12938   5.941   2.040   6.949 -0.2283  0.0910  0.2918
  876YOPE   D3B12939   5.592   2.272   7.109  0.1680  0.1697 -0.0417
  876YOPE   C4B12940   5.378   2.251   7.349 -0.0553  0.0517  0.4719
  877YOPE   NH312941   0.891   4.265   5.740  0.0898 -0.1162  0.1334
  877YOPE   PO412942   0.462   4.393   5.517  0.0572  0.0280  0.3419
  877YOPE   GL112943   0.447   4.377   5.971 -0.1384 -0.1124  0.0914
  877YOPE   GL212944   0.223   4.486   6.044  0.0465  0.0707 -0.0910
  877YOPE   C1A12945   0.382   4.414   6.516 -0.1174  0.1888 -0.0016
  877YOPE   D2A12946   0.470   4.516   6.930  0.1932  0.1339 -0.2663
  877YOPE   C3A12947   0.631   4.348   7.359  0.0230  0.0022 -0.0225
  877YOPE   C4A12948   0.867   4.417   7.730  0.1693 -0.1600 -0.1034
  877YOPE   C1B12949  -0.053   4.088   6.273 -0.0722  0.0468  0.0978
  877YOPE   C2B12950  -0.169   4.113   6.710 -0.1815  0.0223  0.1135
  877YOPE   D3B12951  -0.028   4.018   7.077 -0.1419 -0.2201  0.0786
  877YOPE   C4B12952  -0.162   3.862   7.491 -0.1646  0.3837 -0.0735
  878YOPE   NH312953   0.622   2.095   5.477 -0.2279  0.1235  0.1171
  878YOPE   PO412954   0.253   1.813   5.285  0.0273  0.1064  0.0913
  878YOPE   GL112955   0.092   1.627   5.678 -0.4880  0.1364  0.2387
  878YOPE   GL212956  -0.161   1.387   5.719  0.0029 -0.5554  0.3053
  878YOPE   C1A12957   0.028   1.550   6.117  0.0874 -0.1637 -0.1788
  878YOPE   D2A12958  -0.038   1.433   6.530  0.2706 -0.2822 -0.1863
  878YOPE   C3A12959   0.147   1.372   6.888 -0.1064  0.2020  0.1192
  878YOPE   C4A12960   0.469   1.457   7.022 -0.1660 -0.5077  0.2231
  878YOPE   C1B12961  -0.288   1.170   6.194 -0.0983  0.1437  0.0538
  878YOPE   C2B12962  -0.491   1.133   6.638  0.2349  0.0060  0.0808
  878YOPE   D3B12963  -0.818   1.302   6.825 -0.1416 -0.3315 -0.1414
  878YOPE   C4B12964  -1.028   1.464   7.202 -0.3071 -0.1175  0.0225
  879YOPE   NH312965   6.012   8.686   5.520 -0.3317  0.1596 -0.0649
  879YOPE   PO412966   6.487   8.680   5.711  0.1233 -0.1008  0.0198
  879YOPE   GL112967   6.566   8.572   6.203 -0.0545 -0.2912 -0.1363
  879YOPE   GL212968   6.447   8.235   6.350  0.1328 -0.2776 -0.2886
  879YOPE   C1A12969   6.697   8.556   6.686  0.0578 -0.0758 -0.1388
  879YOPE   D2A12970   6.752   8.743   7.053 -0.0092 -0.2953  0.0575
  879YOPE   C3A12971   6.999   8.649   7.329  0.0301 -0.0764 -0.1715
  879YOPE   C4A12972   7.350   8.806   7.490 -0.1745  0.0707 -0.2692
  879YOPE   C1B12973   6.299   8.295   6.715 -0.1521 -0.0291  0.0274
  879YOPE   C2B12974   6.339   8.370   7.071  0.1827 -0.1329 -0.0770
  879YOPE   D3B12975   6.430   8.632   7.509  0.1299  0.0924  0.0279
  879YOPE   C4B12976   6.776   9.058   7.568 -0.3593 -0.3574  0.2716
  880YOPE   NH312977   8.125   3.696   5.892  0.0097 -0.0420  0.1504
  880YOPE   PO412978   8.351   3.325   5.802 -0.0136  0.1910  0.0780
  880YOPE   GL112979   8.483   3.219   6.252  0.0825  0.1399  0.0591
  880YOPE   GL212980   8.597   3.527   6.353  0.3090  0.0342  0.0809
  880YOPE   C1A12981   8.618   2.954   6.647 -0.1554  0.3347 -0.1859
  880YOPE   D2A12982   8.472   2.537   6.833 -0.1151 -0.1138  0.1038
  880YOPE   C3A12983   8.162   2.391   7.093  0.0721 -0.0655  0.0228
  880YOPE   C4A12984   7.888   2.153   7.408 -0.1374  0.2660 -0.1260
  880YOPE   C1B12985   8.701   3.452   6.699  0.2769 -0.4166 -0.0503
  880YOPE   C2B12986   8.794   3.212   7.113 -0.0742  0.1141 -0.2384
  880YOPE   D3B12987   9.056   3.146   7.454  0.1418  0.1449 -0.2718
  880YOPE   C4B12988   9.030   2.936   7.916 -0.0305  0.0457  0.0456
  881YOPE   NH312989  10.497   7.454   6.000  0.1545 -0.0329 -0.4268
  881YOPE   PO412990  10.177   7.690   5.828  0.0053  0.1838  0.0173
  881YOPE   GL112991   9.845   7.776   6.167  0.1868  0.0339  0.2218
  881YOPE   GL212992   9.948   7.421   6.198  0.1667  0.3089 -0.0892
  881YOPE   C1A12993   9.644   7.903   6.532 -0.3955  0.0760  0.2172
  881YOPE   D2A12994   9.472   8.025   6.901 -0.4216  0.1133  0.1025
  881YOPE   C3A12995   9.191   8.306   6.930 -0.0503 -0.0704  0.0086
  881YOPE   C4A12996   9.034   8.662   6.784  0.1495 -0.1424  0.1834
  881YOPE   C1B12997   9.867   7.424   6.611 -0.0345 -0.0871  0.3389
  881YOPE   C2B12998   9.607   7.507   7.023  0.0655  0.3589 -0.1413
  881YOPE   D3B12999   9.431   7.680   7.332 -0.3076  0.3057 -0.0770
  881YOPE   C4B13000   9.337   7.378   7.657  0.0956  0.1466 -0.3342
  882YOPE   NH313001   2.796   9.180   5.892 -0.3128  0.0410  0.1552
  882YOPE   PO413002   2.348   9.040   5.886 -0.1825 -0.0416  0.0727
  882YOPE   GL113003   2.395   8.682   6.160 -0.0460  0.1693  0.1811
  882YOPE   GL213004   2.451   8.951   6.421  0.0346 -0.0251 -0.0878
  882YOPE   C1A13005   2.284   8.521   6.496 -0.1094  0.1903  0.2609
  882YOPE   D2A13006   2.287   8.561   6.955  0.1681  0.3456  0.1949
  882YOPE   C3A13007   2.169   8.911   7.077  0.1110  0.0961  0.0854
  882YOPE   C4A13008   1.876   9.246   6.942  0.2936  0.0443  0.0546
  882YOPE   C1B13009   2.248   9.284   6.694  0.0545 -0.1687 -0.1228
  882YOPE   C2B13010   2.374   9.415   7.149  0.2639  0.1596  0.2217
  882YOPE   D3B13011   2.275   9.640   7.593  0.0362 -0.0845 -0.0654
  882YOPE   C4B13012   2.319   9.748   7.973  0.3786 -0.1123 -0.4131
  883YOPE   NH313013  17.377  11.241   5.830  0.4824 -0.1254 -0.3079
  883YOPE   PO413014  16.929  11.142   5.873 -0.3414  0.1826  0.0092
  883YOPE   GL113015  17.009  11.423   6.160 -0.3699 -0.0068 -0.0215
  883YOPE   GL213016  16.888  11.365   6.378 -0.2136 -0.1880 -0.0042
  883YOPE   C1A13017  17.119  11.805   6.298 -0.0531  0.0819  0.3427
  883YOPE   D2A13018  17.518  12.047   6.376 -0.0493 -0.0906 -0.0616
  883YOPE   C3A13019  17.564  11.927   6.815 -0.1803 -0.2101 -0.0361
  883YOPE   C4A13020  17.236  12.010   7.053 -0.0510 -0.0127  0.0111
  883YOPE   C1B13021  16.693  11.184   6.679  0.0840  0.3623  0.0552
  883YOPE   C2B13022  16.496  11.187   7.099  0.1198 -0.1824 -0.1716
  883YOPE   D3B13023  16.550  11.378   7.463  0.0719  0.0675 -0.0189
  883YOPE   C4B13024  16.957  11.267   7.674  0.0931  0.3389  0.3620
  884YOPE   NH313025   4.163   7.168   5.710  0.0849  0.0881  0.0272
  884YOPE   PO413026   4.598   7.173   5.864 -0.1923  0.0692  0.2683
  884YOPE   GL113027   4.723   7.260   6.240 -0.0121 -0.3382 -0.2048
  884YOPE   GL213028   5.114   7.153   6.375 -0.3461 -0.1788  0.0150
  884YOPE   C1A13029   4.592   7.280   6.632  0.3533 -0.3054 -0.4145
  884YOPE   D2A13030   4.352   7.004   6.934  0.2328  0.0633 -0.0662
  884YOPE   C3A13031   4.425   7.125   7.374 -0.0378 -0.0429 -0.3544
  884YOPE   C4A13032   4.487   6.866   7.694 -0.1180 -0.3227 -0.0506
  884YOPE   C1B13033   4.943   7.065   6.847  0.1761 -0.1083  0.0057
  884YOPE   C2B13034   4.751   6.810   7.139  0.0219 -0.1086 -0.3245
  884YOPE   D3B13035   4.897   6.624   7.523  0.3154 -0.0261  0.0147
  884YOPE   C4B13036   4.800   6.407   7.982  0.0420 -0.3277  0.1406
  885YOPE   NH313037   1.903   9.293   5.758  0.0873  0.1217 -0.0790
  885YOPE   PO413038   1.588   9.043   5.965 -0.3658  0.1533 -0.4052
  885YOPE   GL113039   1.361   9.153   6.302  0.1499 -0.2878 -0.3524
  885YOPE   GL213040   1.038   9.218   6.219  0.0708 -0.3552 -0.1519
  885YOPE   C1A13041   1.286   9.241   6.829 -0.2370 -0.1341  0.2920
  885YOPE   D2A13042   1.454   9.196   7.221 -0.0118  0.0232  0.0542
  885YOPE   C3A13043   1.984   9.247   7.423  0.5424 -0.0675 -0.4068
  885YOPE   C4A13044   2.064   9.229   7.900 -0.1361 -0.0472 -0.0354
  885YOPE   C1B13045   0.838   9.284   6.654  0.8989 -0.0956 -0.3322
  885YOPE   C2B13046   0.800   9.260   7.014 -0.2010 -0.2802  0.0777
  885YOPE   D3B13047   0.739   9.168   7.297  0.0848 -0.1511  0.0307
  885YOPE   C4B13048   0.541   9.156   7.538 -0.2223 -0.2181 -0.3328
  886YOPE   NH313049   8.823   3.317   5.906  0.0063  0.1350 -0.0311
  886YOPE   PO413050   8.819   2.891   5.903  0.1276  0.1631  0.0560
  886YOPE   GL113051   8.956   3.062   6.276 -0.1294 -0.0339 -0.4570
  886YOPE   GL213052   9.102   3.433   6.275  0.2149 -0.2955  0.2131
  886YOPE   C1A13053   9.119   3.049   6.697  0.3199  0.0076 -0.0802
  886YOPE   D2A13054   9.383   3.030   7.065  0.0102 -0.1741  0.0211
  886YOPE   C3A13055   9.517   3.381   7.323 -0.0408  0.1977  0.0467
  886YOPE   C4A13056   9.929   3.577   7.188  0.0541 -0.4531  0.3755
  886YOPE   C1B13057   9.297   3.653   6.616 -0.1950  0.1860  0.1776
  886YOPE   C2B13058   9.148   3.604   6.999  0.1741 -0.4030  0.0251
  886YOPE   D3B13059   9.019   3.698   7.486 -0.1594 -0.0531  0.0865
  886YOPE   C4B13060   8.716   3.938   7.682 -0.1102  0.1642  0.0087
  887YOPE   NH313061   9.057  18.076   5.775  0.1755  0.1024  0.2428
  887YOPE   PO413062   9.263  18.436   5.710 -0.0830 -0.2166 -0.2232
  887YOPE   GL113063   9.185  18.392   6.199 -0.4001  0.0225 -0.0054
  887YOPE   GL213064   9.067  18.137   6.366  0.1942  0.0920 -0.3191
  887YOPE   C1A13065   9.523  18.398   6.524 -0.1060 -0.0519  0.1401
  887YOPE   D2A13066   9.428  18.533   6.832  0.0516  0.0477  0.1308
  887YOPE   C3A13067   9.452  18.271   7.183 -0.0385 -0.0181 -0.1675
  887YOPE   C4A13068   9.299  18.087   7.451 -0.2003 -0.0553 -0.0299
  887YOPE   C1B13069   9.032  18.220   6.834  0.5222 -0.1164  0.0238
  887YOPE   C2B13070   8.877  17.989   7.205 -0.1494  0.0559 -0.0249
  887YOPE   D3B13071   8.611  17.901   7.670  0.1345  0.0392  0.0220
  887YOPE   C4B13072   8.679  17.883   8.102 -0.0571 -0.0950 -0.1401
  888YOPE   NH313073   2.910  18.280   5.304 -0.0276  0.1775  0.1049
  888YOPE   PO413074   3.391  18.053   5.419  0.3506 -0.1369  0.2310
  888YOPE   GL113075   3.137  18.291   5.801  0.3244 -0.0431 -0.0402
  888YOPE   GL213076   2.904  18.497   5.789 -0.1838 -0.2221  0.2147
  888YOPE   C1A13077   3.152  18.562   6.191 -0.4101 -0.2115 -0.1374
  888YOPE   D2A13078   3.185  18.896   6.548 -0.3139 -0.0978  0.0104
  888YOPE   C3A13079   2.993  18.752   6.955 -0.1261 -0.2037  0.0338
  888YOPE   C4A13080   2.745  18.651   7.349  0.3216 -0.5030 -0.0313
  888YOPE   C1B13081   2.485  18.524   6.059  0.0804  0.2634 -0.0455
  888YOPE   C2B13082   2.676  18.604   6.470  0.3968  0.2125 -0.0753
  888YOPE   D3B13083   2.612  18.418   6.832  0.2679 -0.1358  0.0796
  888YOPE   C4B13084   2.978  18.272   7.112 -0.1296 -0.0576 -0.2385
  889YOPE   NH313085   4.374  15.085   5.599  0.2086 -0.2485  0.1529
  889YOPE   PO413086   4.727  14.781   5.546  0.0379 -0.1114  0.3271
  889YOPE   GL113087   4.917  14.897   6.024 -0.0193 -0.4510 -0.0530
  889YOPE   GL213088   4.914  14.606   6.282 -0.3195 -0.0736 -0.1254
  889YOPE   C1A13089   4.976  15.059   6.426  0.2082 -0.1637  0.3988
  889YOPE   D2A13090   5.160  15.344   6.719  0.1433 -0.1020 -0.1012
  889YOPE   C3A13091   4.989  15.721   7.012  0.1060 -0.0495 -0.1812
  889YOPE   C4A13092   4.753  16.007   7.139  0.1660 -0.0222 -0.0918
  889YOPE   C1B13093   4.985  14.234   6.530  0.3339 -0.1559  0.1539
  889YOPE   C2B13094   5.072  14.236   6.881 -0.3107 -0.0693  0.0942
  889YOPE   D3B13095   5.299  14.044   7.260  0.0281 -0.2784 -0.1063
  889YOPE   C4B13096   5.398  13.682   7.356 -0.0367  0.1878  0.1928
  890YOPE   NH313097   1.330   3.539   5.778  0.1741 -0.0794 -0.4107
  890YOPE   PO413098   1.375   3.955   5.809 -0.1755  0.0195 -0.1345
  890YOPE   GL113099   1.029   3.857   6.087  0.3155  0.0066  0.0156
  890YOPE   GL213100   1.073   3.501   6.229  0.0149 -0.0346  0.0706
  890YOPE   C1A13101   0.639   3.923   6.221 -0.4261  0.2357  0.1170
  890YOPE   D2A13102   0.333   3.913   6.506 -0.1615 -0.0934 -0.1269
  890YOPE   C3A13103   0.553   4.010   6.933  0.3722  0.0545  0.0738
  890YOPE   C4A13104   0.674   3.855   7.377  0.5049 -0.1714  0.2467
  890YOPE   C1B13105   1.094   3.625   6.546 -0.1167  0.0224 -0.2163
  890YOPE   C2B13106   0.990   3.616   6.920 -0.0049 -0.1879 -0.2450
  890YOPE   D3B13107   1.152   3.720   7.394  0.2083  0.3001  0.0163
  890YOPE   C4B13108   1.037   3.824   7.783  0.1490  0.2434  0.2099
  891YOPE   NH313109  16.463   8.531   5.902 -0.2118  0.0155  0.0044
  891YOPE   PO413110  16.181   8.381   5.796  0.1325  0.1917 -0.0243
  891YOPE   GL113111  16.210   8.202   6.183  0.4497 -0.0227 -0.2221
  891YOPE   GL213112  15.947   8.251   6.241  0.0827  0.2372  0.0949
  891YOPE   C1A13113  16.528   8.045   6.429 -0.2985 -0.1489  0.1663
  891YOPE   D2A13114  16.789   7.704   6.642  0.0515 -0.1900 -0.1595
  891YOPE   C3A13115  16.670   7.270   6.730  0.0277 -0.0674 -0.2855
  891YOPE   C4A13116  16.946   7.082   7.070  0.0574  0.2341  0.2149
  891YOPE   C1B13117  15.971   8.313   6.789  0.0171  0.0911  0.0164
  891YOPE   C2B13118  16.188   8.241   7.264 -0.0467 -0.1393 -0.1158
  891YOPE   D3B13119  16.074   8.331   7.702 -0.2860  0.0824 -0.0875
  891YOPE   C4B13120  16.296   8.537   8.051 -0.1527 -0.1516 -0.0164
  892YOPE   NH313121  12.102  14.899   5.809  0.1392  0.2953 -0.1544
  892YOPE   PO413122  12.513  14.690   5.649  0.1231 -0.0967  0.1194
  892YOPE   GL113123  12.527  14.656   5.998  0.0477  0.4420  0.2418
  892YOPE   GL213124  12.812  14.582   6.007 -0.4827 -0.1188 -0.0013
  892YOPE   C1A13125  12.535  14.748   6.500 -0.3188  0.0014  0.0169
  892YOPE   D2A13126  12.460  15.109   6.779 -0.2597 -0.2403  0.0040
  892YOPE   C3A13127  12.409  15.044   7.168  0.0938  0.2796  0.1728
  892YOPE   C4A13128  12.335  14.825   7.587  0.1341 -0.0095 -0.2556
  892YOPE   C1B13129  13.184  14.564   6.256  0.1792 -0.1215 -0.2175
  892YOPE   C2B13130  13.459  14.455   6.692  0.1730 -0.0497  0.0817
  892YOPE   D3B13131  13.905  14.351   6.780 -0.0632  0.0313  0.1506
  892YOPE   C4B13132  14.328  14.388   6.916 -0.1000  0.0455 -0.1381
  893YOPE   NH313133  16.919  14.570   5.985 -0.1547 -0.2977 -0.1293
  893YOPE   PO413134  16.755  14.215   5.927 -0.0697 -0.4658 -0.3443
  893YOPE   GL113135  16.965  14.049   6.328  0.2085 -0.0447  0.2859
  893YOPE   GL213136  17.199  14.265   6.400  0.3045 -0.2196 -0.1426
  893YOPE   C1A13137  16.927  13.863   6.750 -0.1541 -0.2209 -0.0403
  893YOPE   D2A13138  16.936  13.823   7.129 -0.1801  0.1243 -0.0433
  893YOPE   C3A13139  16.963  13.358   7.399 -0.0692  0.1170  0.0772
  893YOPE   C4A13140  16.702  13.339   7.830 -0.1838 -0.2428  0.0194
  893YOPE   C1B13141  17.104  14.502   6.659  0.0078  0.1001  0.0493
  893YOPE   C2B13142  16.967  14.745   6.945 -0.1728  0.1833  0.1164
  893YOPE   D3B13143  16.546  14.798   7.059 -0.0934  0.2175  0.0023
  893YOPE   C4B13144  16.272  14.645   7.361 -0.0919  0.1172  0.1657
  894YOPE   NH313145  12.777  13.691   5.619  0.1958  0.0971 -0.0201
  894YOPE   PO413146  13.125  13.831   5.966 -0.5655  0.0728  0.1043
  894YOPE   GL113147  12.967  14.135   6.193  0.0808 -0.1296 -0.0240
  894YOPE   GL213148  12.643  14.090   6.167 -0.0054 -0.0163 -0.1486
  894YOPE   C1A13149  12.880  14.317   6.615  0.1164 -0.4615 -0.0941
  894YOPE   D2A13150  13.068  14.201   6.925  0.0604  0.0617  0.2331
  894YOPE   C3A13151  12.944  14.046   7.270  0.0747  0.3530 -0.0820
  894YOPE   C4A13152  13.114  14.053   7.670  0.0581  0.0423 -0.1524
  894YOPE   C1B13153  12.651  13.877   6.562 -0.0728 -0.3966  0.0286
  894YOPE   C2B13154  12.320  13.959   6.964  0.0066  0.3085  0.1075
  894YOPE   D3B13155  12.418  13.945   7.387  0.0335 -0.1392  0.2382
  894YOPE   C4B13156  12.618  14.010   7.830 -0.0146 -0.1148  0.1005
  895YOPE   NH313157  10.155   6.906   6.017  0.1608 -0.2155  0.0429
  895YOPE   PO413158   9.737   6.900   5.956 -0.3027  0.0130  0.1752
  895YOPE   GL113159   9.608   6.951   6.378  0.1626 -0.1420 -0.0714
  895YOPE   GL213160   9.936   6.824   6.482  0.3503 -0.0850  0.1485
  895YOPE   C1A13161   9.344   7.171   6.761 -0.0485  0.3981 -0.1012
  895YOPE   D2A13162   9.136   7.284   7.168 -0.0586 -0.1312 -0.1153
  895YOPE   C3A13163   8.727   7.374   7.219  0.1153  0.4408 -0.2091
  895YOPE   C4A13164   8.402   7.411   7.406  0.0008 -0.3165 -0.1955
  895YOPE   C1B13165  10.018   7.042   6.854  0.1915 -0.0403 -0.1340
  895YOPE   C2B13166  10.087   7.409   7.149  0.4046  0.0861  0.4197
  895YOPE   D3B13167   9.906   7.870   7.227 -0.1419  0.0869  0.2625
  895YOPE   C4B13168   9.712   8.233   7.441  0.2814 -0.0845 -0.2513
  896YOPE   NH313169   6.881   4.975   5.793  0.0010  0.0242 -0.0893
  896YOPE   PO413170   7.062   4.653   5.977 -0.1114 -0.1216 -0.0928
  896YOPE   GL113171   6.919   4.438   6.409  0.1006 -0.0293 -0.2450
  896YOPE   GL213172   6.685   4.174   6.351  0.0193  0.1084 -0.3136
  896YOPE   C1A13173   6.907   4.529   6.869 -0.0231 -0.4728  0.0196
  896YOPE   D2A13174   6.675   4.588   7.282 -0.1892  0.1643  0.1093
  896YOPE   C3A13175   6.703   4.517   7.720  0.1256  0.2246 -0.1772
  896YOPE   C4A13176   6.986   4.606   7.982 -0.2544 -0.1085  0.1042
  896YOPE   C1B13177   6.389   4.309   6.729 -0.0804 -0.1112  0.0927
  896YOPE   C2B13178   6.298   4.273   7.235 -0.1922  0.0265 -0.1987
  896YOPE   D3B13179   6.271   4.319   7.703 -0.0012 -0.3902  0.1958
  896YOPE   C4B13180   5.991   4.468   8.047  0.0447 -0.1111 -0.1961
  897YOPE   NH313181  10.185  10.437   6.087  0.0588 -0.1916  0.3840
  897YOPE   PO413182  10.084  10.867   5.892 -0.2820  0.0554  0.0552
  897YOPE   GL113183   9.920  11.029   6.347 -0.1172  0.1102 -0.0982
  897YOPE   GL213184   9.817  10.717   6.476 -0.0340  0.1263 -0.1051
  897YOPE   C1A13185   9.887  11.531   6.634  0.1518  0.0544  0.1689
  897YOPE   D2A13186   9.755  11.705   7.007  0.1802 -0.0824  0.1326
  897YOPE   C3A13187   9.955  11.607   7.399 -0.1925  0.1828 -0.3553
  897YOPE   C4A13188  10.249  11.393   7.610 -0.1160  0.0535 -0.2242
  897YOPE   C1B13189   9.977  10.859   6.883  0.0757 -0.0428 -0.1912
  897YOPE   C2B13190  10.191  11.281   7.004  0.2668 -0.3106 -0.0378
  897YOPE   D3B13191  10.257  11.683   6.887 -0.1724 -0.0041 -0.0045
  897YOPE   C4B13192  10.521  12.035   6.822 -0.3528  0.0639  0.4033
  898YOPE   NH313193   1.255   4.967   5.858 -0.0519 -0.1127  0.1111
  898YOPE   PO413194   1.383   5.326   5.640 -0.0847  0.0857 -0.2275
  898YOPE   GL113195   1.402   5.511   6.011  0.0680  0.2534 -0.1174
  898YOPE   GL213196   1.589   5.366   6.209 -0.1594 -0.1485 -0.1824
  898YOPE   C1A13197   1.194   5.801   6.270  0.1104  0.3133 -0.0359
  898YOPE   D2A13198   1.192   6.281   6.473  0.3113 -0.0485 -0.1706
  898YOPE   C3A13199   1.511   6.367   6.789 -0.0345 -0.2049 -0.2589
  898YOPE   C4A13200   1.846   6.297   6.993 -0.0315 -0.1901 -0.0701
  898YOPE   C1B13201   1.454   5.467   6.596  0.3149  0.0202  0.1011
  898YOPE   C2B13202   1.024   5.380   6.735 -0.0723 -0.1862 -0.1732
  898YOPE   D3B13203   0.569   5.505   6.665 -0.0037  0.1254  0.2143
  898YOPE   C4B13204   0.152   5.509   6.888  0.4512  0.2802  0.1989
  899YOPE   NH313205  10.831  12.008   5.667 -0.0549  0.1809 -0.3172
  899YOPE   PO413206  10.414  12.155   5.791 -0.0938 -0.1209  0.2191
  899YOPE   GL113207  10.550  12.353   6.229  0.1808  0.5256 -0.2769
  899YOPE   GL213208  10.431  12.099   6.331 -0.1540  0.2465 -0.3827
  899YOPE   C1A13209  10.704  12.469   6.655  0.1789 -0.2910 -0.0958
  899YOPE   D2A13210  11.035  12.378   6.921 -0.0001  0.0857  0.1543
  899YOPE   C3A13211  10.846  12.209   7.227  0.1776  0.1411 -0.1266
  899YOPE   C4A13212  11.160  11.800   7.498  0.0223  0.0396  0.2862
  899YOPE   C1B13213  10.336  11.763   6.343  0.4586  0.0293  0.0864
  899YOPE   C2B13214  10.343  11.346   6.499 -0.1488 -0.2641  0.2772
  899YOPE   D3B13215  10.583  11.026   6.757 -0.1430  0.2018 -0.2051
  899YOPE   C4B13216  10.621  10.729   7.139  0.2804  0.1378  0.0387
  900YOPE   NH313217   7.217   8.013   5.658 -0.1134 -0.3210  0.0877
  900YOPE   PO413218   7.624   7.935   5.853  0.1698 -0.1334 -0.1335
  900YOPE   GL113219   7.340   8.048   6.176 -0.0915 -0.1169 -0.0432
  900YOPE   GL213220   7.369   8.290   6.236 -0.2617 -0.2314 -0.3411
  900YOPE   C1A13221   7.259   7.920   6.651  0.1577  0.2191 -0.0495
  900YOPE   D2A13222   7.504   7.859   6.990 -0.1980 -0.0450  0.0464
  900YOPE   C3A13223   7.704   7.432   6.972 -0.0179 -0.4624 -0.0156
  900YOPE   C4A13224   8.079   7.317   6.957 -0.1129 -0.0237 -0.1014
  900YOPE   C1B13225   7.164   8.372   6.699 -0.0803  0.3718 -0.0291
  900YOPE   C2B13226   7.296   8.241   7.180  0.1125 -0.0148 -0.0860
  900YOPE   D3B13227   7.600   7.946   7.464 -0.3834 -0.2523 -0.1188
  900YOPE   C4B13228   7.605   7.956   7.907 -0.1666  0.2270 -0.2705
  901YOPE   NH313229  15.928  10.758   5.697 -0.0685  0.0428  0.0335
  901YOPE   PO413230  16.075  11.195   5.744  0.3646  0.1866  0.0352
  901YOPE   GL113231  16.108  10.973   6.162  0.0336  0.0942 -0.2958
  901YOPE   GL213232  16.245  11.183   6.435 -0.1258  0.3583  0.0676
  901YOPE   C1A13233  16.183  10.642   6.393 -0.0071 -0.0074 -0.2567
  901YOPE   D2A13234  16.536  10.659   6.688 -0.3223 -0.0315  0.0108
  901YOPE   C3A13235  16.674  10.751   7.154  0.0371 -0.2919  0.0079
  901YOPE   C4A13236  16.643  10.871   7.540  0.3178 -0.3454  0.1739
  901YOPE   C1B13237  16.323  11.490   6.754  0.0248  0.2326 -0.1682
  901YOPE   C2B13238  16.614  11.723   7.110 -0.0581  0.2337 -0.1357
  901YOPE   D3B13239  16.981  11.616   7.300  0.1545 -0.0399  0.0527
  901YOPE   C4B13240  17.412  11.470   7.536 -0.1575  0.1717 -0.0480
  902YOPE   NH313241   8.559   8.751   5.867 -0.1711 -0.4184  0.0638
  902YOPE   PO413242   8.552   9.162   5.629  0.1577  0.1596 -0.1584
  902YOPE   GL113243   8.426   9.219   6.102 -0.0178 -0.3431 -0.0870
  902YOPE   GL213244   8.407   8.928   6.282  0.3121  0.3306  0.0944
  902YOPE   C1A13245   8.644   9.443   6.354 -0.0731  0.3504  0.0069
  902YOPE   D2A13246   8.722   9.624   6.745 -0.1469 -0.1064 -0.1454
  902YOPE   C3A13247   8.581   9.915   7.067 -0.1908 -0.1331 -0.1693
  902YOPE   C4A13248   8.745  10.384   7.040 -0.0139 -0.2128  0.0153
  902YOPE   C1B13249   8.536   8.744   6.648 -0.0433 -0.2354  0.0351
  902YOPE   C2B13250   8.514   8.871   7.091 -0.1946 -0.3507  0.2890
  902YOPE   D3B13251   8.551   8.824   7.509  0.1777 -0.2705 -0.0613
  902YOPE   C4B13252   8.283   8.612   7.818 -0.1037 -0.1124  0.0561
  903YOPE   NH313253  11.239   1.952   5.599 -0.0208  0.0191  0.2616
  903YOPE   PO413254  10.918   2.080   5.730 -0.2081  0.1724  0.1522
  903YOPE   GL113255  10.917   2.057   6.143  0.1788 -0.2156 -0.2185
  903YOPE   GL213256  10.916   1.754   6.284  0.1991 -0.0792  0.2135
  903YOPE   C1A13257  10.895   2.213   6.587 -0.1045  0.0079 -0.0994
  903YOPE   D2A13258  11.072   2.306   7.003 -0.0809  0.0475 -0.0060
  903YOPE   C3A13259  11.487   2.162   7.184  0.1031 -0.1955  0.0766
  903YOPE   C4A13260  11.728   2.124   7.593  0.0582 -0.2868  0.1051
  903YOPE   C1B13261  10.972   1.722   6.728 -0.6505  0.0225  0.4801
  903YOPE   C2B13262  11.114   1.647   7.116 -0.0730  0.1489  0.1139
  903YOPE   D3B13263  11.355   1.407   7.435  0.2972 -0.0802 -0.0433
  903YOPE   C4B13264  11.551   1.330   7.806 -0.0849  0.0362 -0.0363
  904YOPE   NH313265  16.067  13.028   5.754  0.1274 -0.1510  0.1215
  904YOPE   PO413266  15.919  13.493   5.812 -0.0118  0.1065 -0.0120
  904YOPE   GL113267  15.755  13.349   6.190 -0.0212 -0.1795  0.0241
  904YOPE   GL213268  15.406  13.389   6.192 -0.1849  0.0895  0.1575
  904YOPE   C1A13269  15.812  13.120   6.556  0.1897  0.0413 -0.1268
  904YOPE   D2A13270  15.796  12.869   6.934  0.2875  0.0730  0.1237
  904YOPE   C3A13271  15.433  12.885   7.233 -0.4839  0.0869  0.1354
  904YOPE   C4A13272  14.980  13.031   7.399 -0.1372  0.0828  0.1722
  904YOPE   C1B13273  15.257  13.318   6.554 -0.1657 -0.3422 -0.1451
  904YOPE   C2B13274  15.209  13.224   6.953 -0.0909 -0.0368 -0.0894
  904YOPE   D3B13275  15.291  13.469   7.327  0.2831  0.0915 -0.2439
  904YOPE   C4B13276  15.304  13.713   7.609  0.2223 -0.1210 -0.0813
  905YOPE   NH313277  12.510  18.370   5.541 -0.2183  0.0108 -0.1189
  905YOPE   PO413278  12.009  18.134   5.636 -0.2038  0.1122 -0.1073
  905YOPE   GL113279  12.023  18.152   6.062  0.1869 -0.0262  0.0337
  905YOPE   GL213280  11.918  17.929   6.267 -0.2253  0.0808  0.0186
  905YOPE   C1A13281  12.199  18.388   6.400  0.0567  0.3131 -0.2643
  905YOPE   D2A13282  12.033  18.609   6.832 -0.0913  0.2075  0.0915
  905YOPE   C3A13283  11.983  18.365   7.132  0.0119  0.1273  0.0368
  905YOPE   C4A13284  12.073  18.092   7.494 -0.1135 -0.0186  0.1997
  905YOPE   C1B13285  12.037  17.944   6.664  0.1314  0.1513 -0.3405
  905YOPE   C2B13286  11.904  17.871   7.029  0.0637  0.2130  0.0320
  905YOPE   D3B13287  11.815  17.607   7.356 -0.2281 -0.2006  0.2807
  905YOPE   C4B13288  11.774  17.278   7.607  0.0803 -0.1134 -0.0286
  906YOPE   NH313289   0.291   1.266   5.369  0.4853 -0.0151  0.0394
  906YOPE   PO413290   0.678   1.423   5.288  0.2147 -0.1558  0.0280
  906YOPE   GL113291   0.674   1.596   5.712  0.1393  0.3081  0.0169
  906YOPE   GL213292   1.028   1.743   5.777 -0.1390  0.2226  0.1414
  906YOPE   C1A13293   0.633   1.756   6.052  0.0080  0.4970  0.1580
  906YOPE   D2A13294   0.487   1.496   6.492  0.7474  0.2228 -0.1642
  906YOPE   C3A13295   0.459   0.979   6.579 -0.0428  0.0244 -0.1500
  906YOPE   C4A13296   0.421   0.500   6.534 -0.0267  0.0124  0.1758
  906YOPE   C1B13297   1.034   1.405   6.008 -0.0697  0.0188 -0.1014
  906YOPE   C2B13298   1.029   1.523   6.406 -0.1347 -0.0691  0.2880
  906YOPE   D3B13299   0.851   1.328   6.760 -0.0718 -0.2226  0.0129
  906YOPE   C4B13300   0.907   1.205   7.215  0.0427 -0.1686 -0.2420
  907YOPE   NH313301  18.061   9.450   5.892 -0.3784  0.1277 -0.0751
  907YOPE   PO413302  18.176   9.722   6.215 -0.0116  0.1417  0.1574
  907YOPE   GL113303  18.182   9.731   6.639 -0.0853 -0.4575 -0.0184
  907YOPE   GL213304  18.023   9.977   6.870  0.3334  0.1072 -0.3089
  907YOPE   C1A13305  18.178   9.545   7.045  0.1487  0.2156  0.0940
  907YOPE   D2A13306  18.265   9.478   7.418 -0.0621  0.0142  0.0460
  907YOPE   C3A13307  18.174   8.992   7.506  0.0761  0.0545  0.1059
  907YOPE   C4A13308  18.276   8.561   7.708  0.0993  0.0608  0.0546
  907YOPE   C1B13309  18.181  10.135   7.205  0.1470  0.1133 -0.0635
  907YOPE   C2B13310  18.261  10.292   7.604  0.2893 -0.4490  0.1885
  907YOPE   D3B13311  17.862  10.411   7.744  0.2620  0.2073 -0.1699
  907YOPE   C4B13312  17.741  10.244   8.124  0.0749  0.1880 -0.0574
  908YOPE   NH313313   9.798   8.094   5.753 -0.2639 -0.3363 -0.3391
  908YOPE   PO413314   9.422   7.851   5.694 -0.2574 -0.3268 -0.0816
  908YOPE   GL113315   9.297   7.686   6.077 -0.1631  0.2616  0.1133
  908YOPE   GL213316   9.097   7.957   6.149  0.1570 -0.0812  0.1814
  908YOPE   C1A13317   9.209   7.588   6.623 -0.0536 -0.1463 -0.1276
  908YOPE   D2A13318   9.045   7.816   7.002 -0.0027  0.2018 -0.2587
  908YOPE   C3A13319   9.106   8.197   7.427  0.0750 -0.3324  0.1488
  908YOPE   C4A13320   9.349   8.383   7.791  0.0703 -0.3945 -0.4723
  908YOPE   C1B13321   9.165   8.136   6.462 -0.2126 -0.1882 -0.1109
  908YOPE   C2B13322   9.538   8.438   6.618 -0.1138  0.3987 -0.0822
  908YOPE   D3B13323   9.861   8.762   6.561  0.0658 -0.3249  0.0950
  908YOPE   C4B13324   9.838   9.226   6.565  0.0303 -0.0397  0.0732
  909YOPE   NH313325   7.388   0.678   5.048 -0.2427  0.2462 -0.0945
  909YOPE   PO413326   7.367   0.514   5.522  0.1256  0.0710 -0.0937
  909YOPE   GL113327   7.187   0.565   5.895  0.2258 -0.2698  0.2828
  909YOPE   GL213328   6.875   0.370   5.991  0.0199  0.0712 -0.1297
  909YOPE   C1A13329   7.070   0.916   6.133  0.2762 -0.2217 -0.2072
  909YOPE   D2A13330   6.903   1.307   6.234 -0.0421 -0.0084 -0.0216
  909YOPE   C3A13331   7.216   1.552   6.471  0.0930 -0.0224 -0.0913
  909YOPE   C4A13332   7.367   1.765   6.827 -0.0492  0.0858  0.1755
  909YOPE   C1B13333   6.780   0.112   6.358 -0.5788 -0.1210  0.1400
  909YOPE   C2B13334   6.389   0.076   6.450 -0.1046  0.1671  0.0824
  909YOPE   D3B13335   6.179   0.167   6.865  0.2047 -0.0456  0.0643
  909YOPE   C4B13336   5.875   0.057   7.090  0.1983  0.2669  0.0907
  910YOPE   NH313337   3.658  16.340   5.607 -0.4805  0.2913 -0.0945
  910YOPE   PO413338   3.515  16.194   5.956 -0.1242  0.0294 -0.3739
  910YOPE   GL113339   3.377  16.179   6.367  0.0918  0.1055  0.3154
  910YOPE   GL213340   3.077  16.284   6.581 -0.1321 -0.1253 -0.2074
  910YOPE   C1A13341   3.311  15.892   6.701  0.1624  0.4061  0.0263
  910YOPE   D2A13342   3.400  15.938   7.125  0.0908  0.2687 -0.1528
  910YOPE   C3A13343   3.498  16.362   7.252  0.1336 -0.0773 -0.0940
  910YOPE   C4A13344   3.596  16.675   7.540  0.1801 -0.1678 -0.1329
  910YOPE   C1B13345   2.836  16.481   6.626  0.3329 -0.3284  0.0431
  910YOPE   C2B13346   2.649  16.777   6.806 -0.0141  0.1152  0.0924
  910YOPE   D3B13347   2.388  16.942   7.136  0.0057  0.1139 -0.0605
  910YOPE   C4B13348   2.260  17.341   7.200  0.3354  0.0911 -0.0790
  911YOPE   NH313349   8.293  17.222   5.708  0.2163  0.0703  0.0345
  911YOPE   PO413350   8.253  16.878   5.941  0.3311 -0.1985  0.5068
  911YOPE   GL113351   7.920  16.905   6.171 -0.2064 -0.1148 -0.0481
  911YOPE   GL213352   7.649  16.957   6.083 -0.3555  0.0505 -0.0110
  911YOPE   C1A13353   7.928  16.917   6.602 -0.2524 -0.1984 -0.1776
  911YOPE   D2A13354   7.856  17.062   7.069  0.0565  0.1409  0.2946
  911YOPE   C3A13355   7.654  17.363   7.341  0.1035  0.2146  0.0390
  911YOPE   C4A13356   7.295  17.615   7.563  0.0060  0.1505 -0.0453
  911YOPE   C1B13357   7.454  16.992   6.474  0.1466  0.1182 -0.0693
  911YOPE   C2B13358   7.357  16.850   6.816 -0.1639 -0.0144  0.0042
  911YOPE   D3B13359   7.225  16.987   7.198  0.2025 -0.1482  0.0443
  911YOPE   C4B13360   7.049  17.387   7.270 -0.1378 -0.2196 -0.2852
  912YOPE   NH313361  13.366   6.288   6.090 -0.0043  0.1577 -0.2216
  912YOPE   PO413362  12.962   6.020   6.120  0.0193  0.0886 -0.1850
  912YOPE   GL113363  12.818   5.928   6.485  0.0093 -0.2884  0.0492
  912YOPE   GL213364  12.523   6.088   6.562 -0.2235  0.0139 -0.0671
  912YOPE   C1A13365  12.795   5.583   6.827 -0.2201 -0.0463  0.1754
  912YOPE   D2A13366  12.539   5.449   7.075  0.0481 -0.0717  0.0669
  912YOPE   C3A13367  12.387   5.034   7.048  0.2453 -0.4550  0.2336
  912YOPE   C4A13368  12.252   4.768   7.388  0.2028  0.0576  0.2024
  912YOPE   C1B13369  12.793   6.101   6.998 -0.2035  0.2466  0.2337
  912YOPE   C2B13370  12.973   5.855   7.263 -0.1102 -0.1845  0.3893
  912YOPE   D3B13371  13.174   5.537   7.448 -0.3653 -0.0161  0.0055
  912YOPE   C4B13372  13.027   5.218   7.784 -0.0098  0.3208 -0.0247
  913YOPE   NH313373  14.641  13.699   5.404  0.1649 -0.0896  0.1120
  913YOPE   PO413374  14.503  13.772   5.776 -0.1622  0.1384  0.2045
  913YOPE   GL113375  14.593  13.931   6.149 -0.1720 -0.0036  0.0079
  913YOPE   GL213376  14.397  13.745   6.337 -0.3700  0.0309 -0.1675
  913YOPE   C1A13377  14.754  14.029   6.575  0.2433 -0.0699 -0.0272
  913YOPE   D2A13378  14.827  14.419   6.823  0.1170 -0.0949  0.0048
  913YOPE   C3A13379  14.966  14.396   7.265  0.2489 -0.1315 -0.0089
  913YOPE   C4A13380  14.964  14.028   7.534 -0.0510 -0.0223  0.0155
  913YOPE   C1B13381  14.681  13.495   6.431 -0.2588  0.0862  0.0406
  913YOPE   C2B13382  14.722  13.585   6.791 -0.1154 -0.1727  0.2076
  913YOPE   D3B13383  14.806  13.514   7.194 -0.1150 -0.1307  0.2420
  913YOPE   C4B13384  14.875  13.482   7.649  0.0341 -0.0536  0.3410
  914YOPE   NH313385   3.194  10.615   5.567 -0.0518  0.0997 -0.1105
  914YOPE   PO413386   3.387  10.370   5.838 -0.1785  0.2702  0.1272
  914YOPE   GL113387   3.326  10.545   6.212  0.2164  0.3346 -0.2242
  914YOPE   GL213388   3.268  10.799   6.408  0.1008 -0.0373 -0.3072
  914YOPE   C1A13389   3.091  10.387   6.577  0.1770 -0.1549 -0.2023
  914YOPE   D2A13390   3.044  10.194   6.953 -0.0188  0.2121 -0.0521
  914YOPE   C3A13391   3.143  10.281   7.372 -0.0543  0.2199  0.0068
  914YOPE   C4A13392   3.193  10.102   7.707 -0.0566  0.2225 -0.2196
  914YOPE   C1B13393   3.153  11.033   6.737 -0.1828 -0.1385  0.1033
  914YOPE   C2B13394   2.822  11.315   6.856  0.1238  0.1258  0.1083
  914YOPE   D3B13395   2.571  11.570   7.029  0.1554 -0.1403  0.0599
  914YOPE   C4B13396   2.562  11.597   7.525 -0.3705  0.2354 -0.2743
  915YOPE   NH313397   5.196  14.946   5.577  0.1590 -0.0607 -0.1308
  915YOPE   PO413398   5.588  15.220   5.701 -0.2433  0.0299  0.1128
  915YOPE   GL113399   5.689  14.908   6.029 -0.0202 -0.0191 -0.0399
  915YOPE   GL213400   6.051  15.056   6.285  0.0305  0.1320  0.4868
  915YOPE   C1A13401   5.453  14.772   6.324  0.2208 -0.0981  0.0186
  915YOPE   D2A13402   5.243  14.680   6.658  0.2729 -0.0406 -0.1773
  915YOPE   C3A13403   4.957  14.973   6.947 -0.2985 -0.0075  0.2945
  915YOPE   C4A13404   4.809  15.263   7.105 -0.4129 -0.0611  0.1243
  915YOPE   C1B13405   6.069  14.957   6.728  0.1508  0.1850 -0.0276
  915YOPE   C2B13406   6.059  14.978   7.186  0.0434  0.2704 -0.0192
  915YOPE   D3B13407   5.738  14.961   7.544 -0.1219 -0.0293 -0.2541
  915YOPE   C4B13408   5.407  14.877   7.850 -0.0498  0.0830 -0.0377
  916YOPE   NH313409   4.413  12.464   5.769 -0.1296 -0.0721  0.2342
  916YOPE   PO413410   4.242  12.730   5.956 -0.1220 -0.0816 -0.1118
  916YOPE   GL113411   4.060  12.639   6.418  0.2696  0.2401  0.3869
  916YOPE   GL213412   3.711  12.397   6.416 -0.1941 -0.2789  0.0187
  916YOPE   C1A13413   4.125  12.920   6.719  0.1312  0.0237  0.0493
  916YOPE   D2A13414   4.235  12.770   7.107  0.2352  0.0648 -0.3843
  916YOPE   C3A13415   4.217  12.896   7.515 -0.0802  0.0238  0.1518
  916YOPE   C4A13416   4.321  13.210   7.744 -0.2213  0.1772  0.2299
  916YOPE   C1B13417   3.776  12.489   6.898  0.0646 -0.3802 -0.4152
  916YOPE   C2B13418   3.749  12.591   7.325  0.1579 -0.0124  0.2709
  916YOPE   D3B13419   3.677  12.885   7.698  0.2130 -0.0016  0.1250
  916YOPE   C4B13420   3.521  13.268   7.813 -0.5823 -0.2305 -0.1123
  917YOPE   NH313421  18.354   0.449   5.561  0.3352 -0.0018 -0.1450
  917YOPE   PO413422  18.495   0.001   5.482  0.2755  0.0803  0.0254
  917YOPE   GL113423  18.405   0.147   5.958 -0.2401  0.0556 -0.0484
  917YOPE   GL213424  18.660   0.239   6.067 -0.0127 -0.1206  0.0347
  917YOPE   C1A13425  18.104   0.238   6.358  0.0315 -0.0202 -0.0514
  917YOPE   D2A13426  17.934   0.317   6.739  0.1521  0.2001  0.0118
  917YOPE   C3A13427  17.873   0.077   7.131 -0.0929 -0.1518  0.2040
  917YOPE   C4A13428  17.978  -0.075   7.585 -0.1230  0.1886 -0.3742
  917YOPE   C1B13429  18.597   0.146   6.586 -0.3829 -0.3091 -0.0688
  917YOPE   C2B13430  18.749   0.266   6.979 -0.1820 -0.1556 -0.2659
  917YOPE   D3B13431  19.017   0.133   7.274 -0.1556 -0.0818  0.0343
  917YOPE   C4B13432  19.177  -0.124   7.589  0.0841 -0.1348 -0.0078
  918YOPE   NH313433   1.462   9.502   5.857 -0.0499 -0.2131 -0.2203
  918YOPE   PO413434   1.440   9.857   5.703 -0.2360 -0.2277 -0.0266
  918YOPE   GL113435   1.281   9.894   6.156  0.0342 -0.0450 -0.4162
  918YOPE   GL213436   1.540   9.796   6.296  0.0685 -0.0777  0.1866
  918YOPE   C1A13437   1.117   9.721   6.517  0.2078 -0.0916 -0.0107
  918YOPE   D2A13438   1.100   9.918   6.801 -0.1823  0.0794 -0.0285
  918YOPE   C3A13439   1.122   9.625   7.202  0.0702 -0.5771  0.4776
  918YOPE   C4A13440   1.181   9.508   7.649 -0.0270  0.0343  0.2869
  918YOPE   C1B13441   1.609   9.553   6.593 -0.1700  0.5314 -0.6225
  918YOPE   C2B13442   1.568   9.599   6.934 -0.1166 -0.2273 -0.1217
  918YOPE   D3B13443   1.618   9.609   7.395  0.0819  0.1033  0.0468
  918YOPE   C4B13444   1.653   9.492   7.862  0.1827 -0.1992 -0.2114
  919YOPE   NH313445   0.356   0.292   5.549 -0.2640 -0.0061 -0.2184
  919YOPE   PO413446   0.286   0.717   5.327  0.0456 -0.1258 -0.1385
  919YOPE   GL113447   0.284   0.803   5.769 -0.0860  0.2461  0.0213
  919YOPE   GL213448   0.319   1.131   5.796 -0.2334 -0.1535 -0.1813
  919YOPE   C1A13449   0.545   0.674   6.078 -0.0920  0.1301 -0.1569
  919YOPE   D2A13450   0.850   0.418   6.299 -0.1581  0.0913 -0.0024
  919YOPE   C3A13451   0.775   0.004   6.408  0.1672 -0.0114  0.0072
  919YOPE   C4A13452   0.425  -0.263   6.303  0.0744  0.0388  0.1509
  919YOPE   C1B13453   0.556   1.224   5.990 -0.3147  0.2395 -0.0297
  919YOPE   C2B13454   0.916   0.947   6.301  0.2549 -0.1859  0.0723
  919YOPE   D3B13455   0.912   0.742   6.744  0.3120  0.1681  0.1678
  919YOPE   C4B13456   0.661   0.514   7.023 -0.1527 -0.1249 -0.1928
  920YOPE   NH313457  13.858   9.861   6.055  0.1173 -0.0335  0.1185
  920YOPE   PO413458  13.990   9.431   5.950 -0.1490 -0.3543  0.1383
  920YOPE   GL113459  14.294   9.274   6.264  0.0480  0.1808  0.1770
  920YOPE   GL213460  14.678   9.451   6.350  0.1462  0.1457  0.1134
  920YOPE   C1A13461  14.242   9.147   6.765 -0.1403 -0.0635  0.2830
  920YOPE   D2A13462  14.446   9.028   7.140 -0.2754  0.3751 -0.0674
  920YOPE   C3A13463  14.763   9.104   7.295  0.0129  0.1607 -0.2904
  920YOPE   C4A13464  15.153   9.209   7.497 -0.3298  0.2194  0.3010
  920YOPE   C1B13465  14.745   9.162   6.704  0.0635 -0.2093  0.1576
  920YOPE   C2B13466  14.990   8.893   6.878  0.1721  0.0272  0.0483
  920YOPE   D3B13467  15.373   9.046   7.083 -0.2348 -0.0746 -0.0618
  920YOPE   C4B13468  15.797   8.960   7.243  0.0805 -0.2318  0.1252
  921POPC   NC313469  15.587  12.041   5.275 -0.1324 -0.0083  0.2255
  921POPC   PO413470  15.253  12.112   5.625  0.0373  0.4313 -0.3177
  921POPC   GL113471  15.150  11.905   6.149  0.1377 -0.0820  0.2177
  921POPC   GL213472  15.435  11.744   6.149 -0.1781  0.1458  0.1526
  921POPC   C1A13473  14.979  11.792   6.520 -0.0135  0.0061 -0.0261
  921POPC   D2A13474  14.980  11.862   6.957 -0.1108  0.0280  0.1041
  921POPC   C3A13475  14.737  12.119   7.214  0.1387 -0.1895  0.3665
  921POPC   C4A13476  14.535  12.384   7.387  0.0822 -0.0521  0.1990
  921POPC   C1B13477  15.465  11.671   6.594 -0.3014 -0.0577  0.0372
  921POPC   C2B13478  15.404  11.617   7.035  0.1289 -0.1717  0.0086
  921POPC   C3B13479  14.995  11.599   7.385 -0.4392 -0.2745 -0.1110
  921POPC   C4B13480  14.948  11.583   7.867  0.2198  0.3186  0.1318
  922POPC   NC313481   9.810   3.667   5.402  0.2740  0.3723  0.1176
  922POPC   PO413482  10.013   3.258   5.704  0.0678  0.2799 -0.0353
  922POPC   GL113483   9.976   3.222   6.057  0.0756 -0.3779 -0.0199
  922POPC   GL213484  10.177   3.442   6.275 -0.1898  0.1810 -0.0331
  922POPC   C1A13485   9.765   3.231   6.419 -0.1039 -0.2754  0.1153
  922POPC   D2A13486   9.629   3.345   6.834  0.1619  0.1006 -0.0060
  922POPC   C3A13487   9.946   3.110   7.072 -0.1921  0.2295  0.0197
  922POPC   C4A13488  10.051   2.762   7.332 -0.1372  0.0196  0.2207
  922POPC   C1B13489  10.093   3.427   6.749 -0.4635 -0.0374 -0.0690
  922POPC   C2B13490  10.359   3.367   7.023  0.0495  0.1770  0.3394
  922POPC   C3B13491  10.489   2.997   7.188  0.0101 -0.2324 -0.2284
  922POPC   C4B13492  10.580   2.770   7.584  0.1715  0.4387 -0.0401
  923POPC   NC313493   1.018  10.125   5.674 -0.0241 -0.2443  0.1667
  923POPC   PO413494   0.829  10.147   6.112  0.1581 -0.0057 -0.0513
  923POPC   GL113495   0.668   9.876   6.272  0.3101 -0.1564  0.1230
  923POPC   GL213496   0.614   9.961   6.547 -0.1057 -0.2999 -0.0201
  923POPC   C1A13497   0.494   9.429   6.278  0.1660  0.2200 -0.2274
  923POPC   D2A13498   0.033   9.305   6.258 -0.4176  0.0249 -0.1308
  923POPC   C3A13499  -0.159   9.257   6.562  0.0481 -0.3111  0.0802
  923POPC   C4A13500  -0.323   9.085   6.999  0.1505 -0.0201  0.0649
  923POPC   C1B13501   0.682   9.770   6.947 -0.1065  0.2157  0.0233
  923POPC   C2B13502   0.546   9.645   7.345 -0.0556 -0.3438 -0.0460
  923POPC   C3B13503   0.553   9.750   7.727  0.0811  0.1437 -0.0920
  923POPC   C4B13504   0.405  10.016   7.998 -0.1847  0.1845 -0.0090
  924POPC   NC313505   0.361   4.857   5.778 -0.1072  0.2671  0.1484
  924POPC   PO413506   0.452   5.282   5.773 -0.0679  0.1063 -0.1596
  924POPC   GL113507   0.334   5.182   6.167  0.5427 -0.2092 -0.0790
  924POPC   GL213508   0.373   4.893   6.318  0.0651 -0.3425 -0.0738
  924POPC   C1A13509  -0.081   5.240   6.403 -0.2768  0.0075  0.0370
  924POPC   D2A13510  -0.411   5.477   6.500  0.2325 -0.2198 -0.3586
  924POPC   C3A13511  -0.496   5.498   6.996 -0.2198 -0.1746  0.1326
  924POPC   C4A13512  -0.505   5.703   7.345 -0.1337  0.2385 -0.1013
  924POPC   C1B13513   0.212   4.951   6.727  0.3194  0.1797 -0.0879
  924POPC   C2B13514   0.049   5.047   7.097  0.1459  0.0610  0.0825
  924POPC   C3B13515  -0.095   5.334   7.309 -0.0351  0.1484  0.0537
  924POPC   C4B13516  -0.373   5.323   7.730 -0.1130  0.1121  0.2130
  925POPC   NC313517  15.962   2.705   5.478 -0.1691  0.0821  0.2977
  925POPC   PO413518  16.427   2.683   5.652  0.0355 -0.0999 -0.0318
  925POPC   GL113519  16.641   2.815   6.020  0.0242 -0.0793 -0.2295
  925POPC   GL213520  16.885   2.694   6.057  0.2154  0.0787  0.2138
  925POPC   C1A13521  16.465   3.045   6.353 -0.1775 -0.0211 -0.2322
  925POPC   D2A13522  16.235   3.296   6.641 -0.5126  0.1568  0.0937
  925POPC   C3A13523  16.427   3.511   7.022  0.0231 -0.2835 -0.0201
  925POPC   C4A13524  16.377   3.411   7.436 -0.0366  0.1781  0.0444
  925POPC   C1B13525  16.582   2.434   6.416  0.0134  0.0321  0.0545
  925POPC   C2B13526  16.216   2.402   6.575  0.1041  0.0616  0.0503
  925POPC   C3B13527  15.817   2.189   6.466  0.1129  0.1450  0.0406
  925POPC   C4B13528  15.362   1.992   6.656 -0.0617  0.0391 -0.1701
  926POPC   NC313529  18.502  14.511   5.493  0.3505  0.3130 -0.0240
  926POPC   PO413530  18.809  14.769   5.740  0.1538 -0.0160  0.0141
  926POPC   GL113531  18.691  14.994   6.155 -0.0955  0.3112  0.2290
  926POPC   GL213532  18.869  15.258   6.045 -0.3051  0.0125  0.2347
  926POPC   C1A13533  18.740  15.230   6.509 -0.1237 -0.1486 -0.1384
  926POPC   D2A13534  18.790  15.569   6.834  0.1624 -0.1405  0.1395
  926POPC   C3A13535  18.814  15.522   7.148  0.1405  0.0106  0.0839
  926POPC   C4A13536  18.699  15.387   7.541  0.2699 -0.1169 -0.0096
  926POPC   C1B13537  19.175  15.021   6.199 -0.5281 -0.5437  0.0087
  926POPC   C2B13538  19.489  14.691   6.388  0.1979 -0.2691 -0.1364
  926POPC   C3B13539  19.668  14.793   6.770  0.4280  0.1989  0.1934
  926POPC   C4B13540  19.614  14.907   7.263 -0.0218 -0.2613  0.0600
  927POPC   NC313541  13.334  17.271   5.409  0.0653  0.0648 -0.3400
  927POPC   PO413542  12.986  16.992   5.662  0.0647 -0.2505 -0.1952
  927POPC   GL113543  12.789  16.818   6.107  0.4111 -0.0488 -0.0769
  927POPC   GL213544  12.620  16.463   6.328  0.0756  0.1257 -0.3475
  927POPC   C1A13545  12.795  16.965   6.500 -0.1638  0.0162 -0.3006
  927POPC   D2A13546  12.798  17.273   6.949  0.2760  0.1076 -0.0714
  927POPC   C3A13547  12.969  17.463   7.282  0.2230 -0.0033  0.0887
  927POPC   C4A13548  12.860  17.858   7.249 -0.0021 -0.0827 -0.0738
  927POPC   C1B13549  12.511  16.475   6.813 -0.0864 -0.1732  0.0204
  927POPC   C2B13550  12.578  16.521   7.280  0.2383  0.0724 -0.0282
  927POPC   C3B13551  12.469  16.220   7.637  0.1065  0.1159  0.0145
  927POPC   C4B13552  12.621  15.824   7.433 -0.0605 -0.3642 -0.2174
  928POPC   NC313553   7.422  14.868   6.203  0.0003  0.0533  0.2980
  928POPC   PO413554   7.622  15.117   5.883  0.1185 -0.1026 -0.2064
  928POPC   GL113555   7.988  14.958   6.232  0.0642 -0.1313 -0.1544
  928POPC   GL213556   7.768  14.764   6.519  0.3243  0.3572  0.2430
  928POPC   C1A13557   7.928  15.172   6.692 -0.0465  0.1991  0.0502
  928POPC   D2A13558   8.055  15.152   7.060 -0.1556  0.2036 -0.4352
  928POPC   C3A13559   8.096  15.294   7.512 -0.4821 -0.1014 -0.0263
  928POPC   C4A13560   8.124  15.114   7.956  0.0791 -0.2092  0.1652
  928POPC   C1B13561   7.678  14.666   6.839 -0.1304  0.3734  0.1593
  928POPC   C2B13562   7.495  14.448   7.298 -0.1618 -0.3725 -0.0960
  928POPC   C3B13563   7.373  14.066   7.515 -0.2948 -0.0944 -0.0453
  928POPC   C4B13564   7.564  13.887   7.831 -0.0958  0.3021  0.0084
  929POPC   NC313565   3.788   4.832   5.677  0.2826  0.0701  0.1992
  929POPC   PO413566   3.896   4.355   5.801 -0.2975  0.0126  0.2202
  929POPC   GL113567   4.193   4.318   6.206  0.0045 -0.0592 -0.0521
  929POPC   GL213568   4.054   4.000   6.162 -0.0440  0.1410  0.1492
  929POPC   C1A13569   4.409   4.328   6.544 -0.1104 -0.1755  0.0988
  929POPC   D2A13570   4.592   4.128   6.995 -0.2615 -0.2639 -0.0414
  929POPC   C3A13571   5.042   4.209   7.256  0.2220  0.0521  0.2519
  929POPC   C4A13572   5.290   4.444   7.125 -0.3454 -0.1852  0.1099
  929POPC   C1B13573   4.160   3.764   6.537 -0.1405  0.0403  0.0391
  929POPC   C2B13574   4.150   3.893   6.972 -0.0546 -0.0198  0.3643
  929POPC   C3B13575   4.343   3.847   7.354  0.1715  0.1849  0.0866
  929POPC   C4B13576   4.460   3.543   7.609 -0.0123  0.2535 -0.1806
  930POPC   NC313577  13.628  11.205   5.726  0.0129  0.0038  0.3156
  930POPC   PO413578  13.301  10.860   5.770 -0.0499  0.0494  0.0741
  930POPC   GL113579  13.415  10.905   6.153  0.1138  0.2027 -0.0876
  930POPC   GL213580  13.062  10.924   6.257  0.1389  0.2374  0.1598
  930POPC   C1A13581  13.639  10.894   6.536 -0.1410 -0.0712 -0.2462
  930POPC   D2A13582  13.770  11.230   6.760 -0.2348  0.0072  0.2408
  930POPC   C3A13583  13.722  11.217   7.264  0.1912  0.0211 -0.0655
  930POPC   C4A13584  13.683  10.911   7.630 -0.1885  0.0010 -0.2303
  930POPC   C1B13585  13.249  11.148   6.510 -0.2525 -0.2594  0.0168
  930POPC   C2B13586  13.414  11.584   6.534 -0.2592  0.0035  0.0984
  930POPC   C3B13587  13.861  11.777   6.630  0.1383 -0.1867  0.2799
  930POPC   C4B13588  14.143  11.530   6.453  0.0493 -0.1199  0.0725
  931POPC   NC313589  10.778   6.547   5.863  0.0137 -0.3564 -0.0576
  931POPC   PO413590  11.065   6.516   6.281  0.1724  0.4125 -0.0688
  931POPC   GL113591  10.961   6.625   6.687 -0.2123 -0.3645  0.0635
  931POPC   GL213592  10.819   6.444   6.891 -0.3787  0.0534  0.3456
  931POPC   C1A13593  11.310   6.537   6.971 -0.1503 -0.0999 -0.2068
  931POPC   D2A13594  11.429   6.389   7.377 -0.0516 -0.0150  0.2389
  931POPC   C3A13595  11.393   6.653   7.655 -0.0597  0.1175  0.3676
  931POPC   C4A13596  11.246   6.867   7.931 -0.1203 -0.3138  0.0642
  931POPC   C1B13597  11.016   6.154   7.094  0.1542 -0.0680  0.0018
  931POPC   C2B13598  11.199   5.920   7.396  0.0183  0.2804 -0.1305
  931POPC   C3B13599  11.260   5.728   7.998 -0.1705  0.0609 -0.0191
  931POPC   C4B13600  11.207   5.237   8.121 -0.0873 -0.0060 -0.3546
  932POPC   NC313601   6.255  16.138   5.482  0.1224 -0.0354 -0.1373
  932POPC   PO413602   5.809  16.315   5.719  0.2031 -0.2480  0.0169
  932POPC   GL113603   5.791  16.456   6.194  0.0222 -0.0722  0.0560
  932POPC   GL213604   5.494  16.754   6.188  0.0616 -0.0724 -0.0427
  932POPC   C1A13605   5.948  16.306   6.485 -0.0479  0.3820 -0.1043
  932POPC   D2A13606   5.889  16.430   6.937  0.0681  0.1517  0.1732
  932POPC   C3A13607   5.730  16.154   7.276 -0.5272 -0.0178 -0.2375
  932POPC   C4A13608   5.769  15.908   7.703  0.1232  0.2319 -0.2415
  932POPC   C1B13609   5.611  16.741   6.654 -0.0308  0.2116 -0.1050
  932POPC   C2B13610   5.528  16.730   7.077  0.0036 -0.0208 -0.1283
  932POPC   C3B13611   5.525  16.551   7.518  0.3116 -0.2847  0.1117
  932POPC   C4B13612   5.535  16.438   7.853  0.0280 -0.0331  0.0706
  933POPC   NC313613   8.695   5.151   6.104 -0.0343 -0.3577 -0.1630
  933POPC   PO413614   8.347   4.946   5.931  0.1248 -0.0856 -0.1342
  933POPC   GL113615   8.122   4.937   6.336 -0.0877 -0.1099  0.1258
  933POPC   GL213616   8.269   5.081   6.521  0.4285 -0.2149  0.1065
  933POPC   C1A13617   7.718   5.013   6.548 -0.1539  0.1530 -0.0354
  933POPC   D2A13618   7.721   4.686   6.769 -0.2360  0.0898 -0.0656
  933POPC   C3A13619   7.444   4.782   7.067 -0.0764 -0.1399 -0.0805
  933POPC   C4A13620   7.085   4.844   7.310  0.3077  0.0392  0.0591
  933POPC   C1B13621   8.205   4.852   6.925  0.0372 -0.0913 -0.1627
  933POPC   C2B13622   8.361   4.793   7.298  0.0234 -0.1819  0.0584
  933POPC   C3B13623   8.511   4.767   7.761  0.0192  0.1809  0.0122
  933POPC   C4B13624   8.843   4.952   8.066  0.1431 -0.1831  0.1200
  934POPC   NC313625  10.555  15.960   6.179  0.2543  0.0458  0.1787
  934POPC   PO413626  10.422  15.585   5.953 -0.0333  0.0129  0.0242
  934POPC   GL113627  10.501  15.337   6.309 -0.0466 -0.0105 -0.3858
  934POPC   GL213628  10.701  15.401   6.475 -0.1814 -0.2576  0.1178
  934POPC   C1A13629  10.318  15.398   6.784 -0.3023  0.3002  0.1842
  934POPC   D2A13630  10.385  15.562   7.147 -0.1195  0.1347  0.0114
  934POPC   C3A13631  10.660  15.747   7.450  0.0672 -0.1040 -0.1013
  934POPC   C4A13632  10.949  15.619   7.734  0.1040 -0.1536  0.1658
  934POPC   C1B13633  10.805  15.333   6.905 -0.0468  0.3290 -0.0779
  934POPC   C2B13634  10.575  15.231   7.402  0.2325  0.1257 -0.1561
  934POPC   C3B13635  10.249  15.130   7.744 -0.1209 -0.4204 -0.1602
  934POPC   C4B13636  10.323  15.580   7.953  0.0570  0.0844  0.1296
  935POPC   NC313637   6.974   8.502   5.865  0.0531  0.1050  0.1236
  935POPC   PO413638   7.431   8.513   5.764  0.1378 -0.0479  0.0243
  935POPC   GL113639   7.455   8.777   6.207 -0.0311 -0.0158 -0.1124
  935POPC   GL213640   7.068   8.720   6.331  0.0121  0.2831 -0.1942
  935POPC   C1A13641   7.543   8.657   6.571  0.1416  0.0288  0.1759
  935POPC   D2A13642   7.481   8.648   7.016 -0.0966 -0.3173  0.1687
  935POPC   C3A13643   7.595   9.112   7.132 -0.0411  0.1330 -0.2458
  935POPC   C4A13644   7.451   9.605   7.142  0.2026  0.2792 -0.2713
  935POPC   C1B13645   6.813   9.076   6.502  0.0962 -0.0855  0.2782
  935POPC   C2B13646   6.553   9.174   6.849  0.1677 -0.1014  0.1546
  935POPC   C3B13647   6.211   9.033   7.158  0.0394  0.1646 -0.1022
  935POPC   C4B13648   6.217   9.038   7.642 -0.1595  0.0207  0.0932
  936POPC   NC313649   7.865   4.979   5.721 -0.0024  0.1726 -0.1916
  936POPC   PO413650   7.716   4.694   5.899 -0.0317 -0.0621 -0.0268
  936POPC   GL113651   7.827   4.505   6.320  0.0865 -0.1175  0.1610
  936POPC   GL213652   7.485   4.424   6.384  0.0183 -0.0030 -0.0671
  936POPC   C1A13653   8.164   4.426   6.581 -0.1792 -0.1359  0.2621
  936POPC   D2A13654   8.352   4.222   6.936 -0.1929 -0.2249 -0.3569
  936POPC   C3A13655   8.823   4.396   7.048 -0.0236 -0.0327  0.3921
  936POPC   C4A13656   8.966   4.129   7.257  0.0205 -0.0954  0.1104
  936POPC   C1B13657   7.234   4.808   6.594  0.0231  0.0239 -0.1362
  936POPC   C2B13658   6.938   5.030   6.839 -0.1252  0.0997  0.0077
  936POPC   C3B13659   6.676   5.087   7.199  0.4234 -0.0898 -0.0398
  936POPC   C4B13660   6.570   5.127   7.575 -0.1620 -0.0497 -0.0278
  937POPC   NC313661   9.005  14.600   5.814  0.2146  0.1920  0.1267
  937POPC   PO413662   9.190  14.158   5.917  0.0834 -0.5307  0.1102
  937POPC   GL113663   9.348  13.966   6.246 -0.0247  0.1748  0.1038
  937POPC   GL213664   9.152  13.811   6.338 -0.2013  0.5122  0.0627
  937POPC   C1A13665   9.466  13.987   6.668  0.2211  0.1152 -0.0763
  937POPC   D2A13666   9.271  14.049   7.097 -0.0621 -0.1288  0.2499
  937POPC   C3A13667   9.213  14.390   7.397 -0.0290 -0.0548 -0.0198
  937POPC   C4A13668   9.371  14.537   7.773  0.0229  0.0050  0.2416
  937POPC   C1B13669   9.070  14.285   6.590  0.2148 -0.1258  0.1035
  937POPC   C2B13670   9.135  14.584   6.935  0.1721  0.2207  0.1313
  937POPC   C3B13671   8.998  14.811   7.216  0.2790 -0.1646  0.1388
  937POPC   C4B13672   9.090  14.919   7.658 -0.1762  0.0453  0.2005
  938POPC   NC313673  16.671   5.615   5.858 -0.1243  0.1803 -0.1133
  938POPC   PO413674  17.125   5.440   5.915  0.2790  0.2070 -0.0757
  938POPC   GL113675  17.056   5.531   6.351  0.0956  0.1560 -0.2209
  938POPC   GL213676  16.912   5.249   6.445 -0.0118  0.1955  0.0850
  938POPC   C1A13677  17.141   5.456   6.802  0.0209  0.1164  0.1876
  938POPC   D2A13678  17.185   5.506   7.194  0.0080 -0.3158 -0.0750
  938POPC   C3A13679  17.204   5.137   7.331  0.2382 -0.2560 -0.0410
  938POPC   C4A13680  17.219   4.784   7.236 -0.3524 -0.1240  0.0101
  938POPC   C1B13681  16.940   4.916   6.739 -0.0318  0.1484 -0.1688
  938POPC   C2B13682  16.846   4.558   7.006  0.2131  0.1022 -0.1289
  938POPC   C3B13683  16.866   4.316   7.410 -0.1444 -0.1420  0.0432
  938POPC   C4B13684  16.778   4.473   7.704  0.1145  0.2232 -0.0613
  939POPC   NC313685  12.023  12.494   5.458  0.1920 -0.0397  0.1581
  939POPC   PO413686  11.858  12.781   5.767 -0.0890 -0.1911 -0.0785
  939POPC   GL113687  11.640  13.053   6.116  0.0891 -0.0190  0.0663
  939POPC   GL213688  11.310  12.929   6.279 -0.1089  0.2508  0.1716
  939POPC   C1A13689  11.855  13.136   6.481 -0.1504 -0.0603 -0.0969
  939POPC   D2A13690  11.933  13.191   6.920  0.2416  0.0392 -0.0353
  939POPC   C3A13691  11.600  13.054   7.286 -0.1107  0.0579  0.1743
  939POPC   C4A13692  11.489  12.751   7.595 -0.0477  0.0193 -0.1172
  939POPC   C1B13693  11.528  12.825   6.648  0.1448  0.0248  0.0320
  939POPC   C2B13694  11.798  12.681   6.905 -0.1709 -0.1006  0.2709
  939POPC   C3B13695  11.926  12.399   7.152  0.2524 -0.2215 -0.0416
  939POPC   C4B13696  12.207  12.111   7.502 -0.3986 -0.0502 -0.0672
  940POPC   NC313697   3.047  11.258   6.043 -0.1027  0.2207 -0.0130
  940POPC   PO413698   2.707  11.448   6.162  0.0727  0.4132 -0.1512
  940POPC   GL113699   2.921  11.617   6.370 -0.3262 -0.3029  0.0454
  940POPC   GL213700   3.163  11.518   6.450  0.1371  0.1074 -0.2496
  940POPC   C1A13701   2.919  11.928   6.597 -0.0623 -0.1273  0.0116
  940POPC   D2A13702   2.898  11.924   7.003  0.2110 -0.0044  0.0041
  940POPC   C3A13703   3.081  11.583   7.268  0.1706  0.0254  0.3118
  940POPC   C4A13704   3.081  11.211   7.351  0.3267  0.0300 -0.0215
  940POPC   C1B13705   3.464  11.428   6.770 -0.1204 -0.0658 -0.0369
  940POPC   C2B13706   3.898  11.274   6.795  0.1087  0.1605  0.4095
  940POPC   C3B13707   4.273  11.057   6.721  0.0615  0.0808 -0.0533
  940POPC   C4B13708   4.672  11.183   6.872 -0.1241  0.5149  0.0079
  941POPC   NC313709  12.248  13.108   5.700 -0.1237 -0.1401  0.0547
  941POPC   PO413710  12.729  13.124   5.617 -0.0462  0.2946 -0.0488
  941POPC   GL113711  12.603  12.993   6.033  0.2012  0.0491 -0.0333
  941POPC   GL213712  12.818  13.274   6.174  0.0108 -0.0061 -0.0958
  941POPC   C1A13713  12.819  12.768   6.282 -0.1293  0.3206 -0.1436
  941POPC   D2A13714  12.832  12.631   6.544 -0.1276 -0.0269 -0.3051
  941POPC   C3A13715  12.975  12.504   6.911  0.2758 -0.1918  0.2116
  941POPC   C4A13716  12.894  12.438   7.250  0.3116 -0.0527 -0.0996
  941POPC   C1B13717  12.816  13.192   6.583 -0.0755  0.2694  0.1657
  941POPC   C2B13718  12.949  12.972   6.911 -0.0253  0.1839 -0.0882
  941POPC   C3B13719  13.211  12.865   7.313  0.0354 -0.1317  0.0110
  941POPC   C4B13720  13.625  13.029   7.537  0.0226 -0.1299  0.0506
  942POPC   NC313721   2.921  14.637   5.619  0.0815  0.0554  0.0968
  942POPC   PO413722   3.106  15.002   5.406  0.1122 -0.0678 -0.1486
  942POPC   GL113723   2.776  15.180   5.773  0.4936 -0.0931 -0.1899
  942POPC   GL213724   2.831  15.509   5.852 -0.0452  0.4196  0.1881
  942POPC   C1A13725   2.879  14.908   6.179 -0.2434  0.1236  0.1457
  942POPC   D2A13726   3.189  14.636   6.363 -0.3673 -0.2861 -0.0073
  942POPC   C3A13727   3.469  14.781   6.701 -0.0809  0.1782  0.0534
  942POPC   C4A13728   3.708  15.035   6.992  0.0900  0.2038 -0.2094
  942POPC   C1B13729   3.188  15.238   6.112 -0.1582 -0.1525 -0.2885
  942POPC   C2B13730   3.561  15.008   6.298 -0.1144  0.1253  0.1101
  942POPC   C3B13731   4.018  15.148   6.540  0.0253 -0.2424 -0.1355
  942POPC   C4B13732   4.404  15.030   6.424 -0.0668 -0.0388 -0.0368
  943POPC   NC313733  14.354   6.010   5.633 -0.0959 -0.2113  0.2116
  943POPC   PO413734  14.299   6.377   5.678  0.1552 -0.0489 -0.0509
  943POPC   GL113735  14.269   6.191   6.105 -0.0629 -0.0604  0.0668
  943POPC   GL213736  14.333   5.905   6.145  0.0771 -0.1712 -0.0481
  943POPC   C1A13737  14.096   6.279   6.481 -0.1693  0.0395 -0.2633
  943POPC   D2A13738  13.680   6.318   6.626  0.3079  0.2867 -0.0551
  943POPC   C3A13739  13.317   6.610   6.712  0.1885  0.1008  0.1850
  943POPC   C4A13740  12.929   6.716   6.933  0.0134 -0.3641  0.0728
  943POPC   C1B13741  14.198   5.838   6.628 -0.2626  0.0446  0.4003
  943POPC   C2B13742  14.066   6.077   6.962 -0.0513  0.0086 -0.0185
  943POPC   C3B13743  13.883   6.283   7.347 -0.1579 -0.4056  0.0486
  943POPC   C4B13744  13.791   6.239   7.833  0.4260 -0.3520 -0.3010
  944POPC   NC313745   8.469   6.859   5.986  0.1944 -0.3621  0.0597
  944POPC   PO413746   8.888   6.601   5.800 -0.2050 -0.3012 -0.1072
  944POPC   GL113747   9.078   6.635   6.212 -0.5304 -0.1811  0.0040
  944POPC   GL213748   8.994   6.880   6.412 -0.0870  0.0714 -0.1947
  944POPC   C1A13749   9.330   6.467   6.597 -0.0037 -0.2302 -0.1739
  944POPC   D2A13750   9.331   6.315   6.980  0.1332  0.1246 -0.2797
  944POPC   C3A13751   9.550   5.885   7.202 -0.2543  0.0837  0.1042
  944POPC   C4A13752   9.501   5.578   7.073 -0.2096 -0.0354  0.6174
  944POPC   C1B13753   8.783   6.464   6.624 -0.0472 -0.4336  0.0115
  944POPC   C2B13754   8.846   6.403   7.061 -0.0383  0.1846  0.0091
  944POPC   C3B13755   9.148   6.367   7.451 -0.0792 -0.0431 -0.2705
  944POPC   C4B13756   9.089   6.124   7.788 -0.0514 -0.0303 -0.2228
  945POPC   NC313757  12.900   3.191   5.842 -0.0290  0.2403 -0.1158
  945POPC   PO413758  13.142   2.868   5.944  0.0484  0.0908 -0.1273
  945POPC   GL113759  13.194   2.871   6.293  0.1911 -0.2140  0.1717
  945POPC   GL213760  13.077   3.211   6.353 -0.2048  0.2606 -0.1956
  945POPC   C1A13761  13.041   2.678   6.642  0.1399  0.1195  0.2107
  945POPC   D2A13762  12.892   2.679   7.019  0.1714 -0.5084 -0.1498
  945POPC   C3A13763  13.055   2.644   7.402  0.1671  0.0497 -0.1908
  945POPC   C4A13764  13.489   2.687   7.509 -0.1222 -0.0832  0.1815
  945POPC   C1B13765  13.026   3.191   6.754 -0.2275  0.1127 -0.1218
  945POPC   C2B13766  13.060   3.159   7.168 -0.1077  0.3346  0.0776
  945POPC   C3B13767  13.105   3.252   7.534 -0.2515  0.0514 -0.0122
  945POPC   C4B13768  13.219   3.420   7.971  0.0829 -0.0149 -0.0190
  946POPC   NC313769   2.442   1.278   5.329  0.1198 -0.1054  0.0110
  946POPC   PO413770   2.925   1.004   5.447 -0.0767 -0.1321  0.0419
  946POPC   GL113771   2.690   1.009   5.866 -0.1051  0.1328 -0.1735
  946POPC   GL213772   2.378   1.044   5.787  0.0282  0.0337  0.0970
  946POPC   C1A13773   2.688   1.258   6.278 -0.3012  0.1740  0.1686
  946POPC   D2A13774   2.927   1.275   6.770  0.2184  0.0931 -0.1367
  946POPC   C3A13775   2.675   1.340   6.966  0.0544  0.0850  0.1006
  946POPC   C4A13776   2.540   1.761   7.021  0.0765 -0.0516 -0.0973
  946POPC   C1B13777   2.415   0.812   6.307  0.3251 -0.1131 -0.1371
  946POPC   C2B13778   2.450   0.518   6.636 -0.1115 -0.2119 -0.3404
  946POPC   C3B13779   2.347   0.346   7.055 -0.0241 -0.4873  0.1979
  946POPC   C4B13780   2.234   0.416   7.481 -0.0734 -0.0955 -0.2356
  947POPC   NC313781   3.895  13.136   5.428  0.1051 -0.2813  0.5443
  947POPC   PO413782   3.494  12.855   5.566  0.0907  0.4722  0.2611
  947POPC   GL113783   3.674  12.940   6.018 -0.0060 -0.1229 -0.0861
  947POPC   GL213784   3.906  13.231   6.110  0.0901  0.0362  0.0036
  947POPC   C1A13785   3.679  12.945   6.472  0.2731  0.0462 -0.1149
  947POPC   D2A13786   3.665  13.004   6.937 -0.1872  0.0609  0.1642
  947POPC   C3A13787   3.545  13.141   7.287 -0.2302  0.1246 -0.1835
  947POPC   C4A13788   3.146  13.288   7.172 -0.1921 -0.1838 -0.1970
  947POPC   C1B13789   3.933  13.453   6.485  0.0246 -0.4094  0.1931
  947POPC   C2B13790   4.243  13.696   6.757  0.2226 -0.1914  0.1180
  947POPC   C3B13791   4.236  13.802   7.215  0.0235 -0.1931  0.0116
  947POPC   C4B13792   4.224  13.868   7.672  0.2780  0.2614 -0.5504
  948POPC   NC313793   4.281   0.414   5.476  0.2204  0.0819 -0.2082
  948POPC   PO413794   3.879   0.182   5.430  0.0991  0.0907  0.2501
  948POPC   GL113795   3.804   0.443   5.751 -0.0820 -0.1411  0.0508
  948POPC   GL213796   3.946   0.658   5.942  0.3490  0.2461  0.2381
  948POPC   C1A13797   3.480   0.374   5.910 -0.1705 -0.1444  0.0630
  948POPC   D2A13798   3.387   0.708   6.234 -0.1948  0.3920 -0.0195
  948POPC   C3A13799   3.711   1.026   6.250  0.1343  0.0879 -0.2308
  948POPC   C4A13800   3.704   1.406   6.147 -0.2616  0.0451  0.2815
  948POPC   C1B13801   4.188   0.857   6.311 -0.0507  0.0156 -0.1342
  948POPC   C2B13802   4.069   0.975   6.819  0.2039 -0.0064  0.3911
  948POPC   C3B13803   4.177   1.159   7.151 -0.1020 -0.1598 -0.1035
  948POPC   C4B13804   4.240   1.425   7.422  0.1252  0.1610 -0.2470
  949POPC   NC313805   4.466   7.703   5.849 -0.0256  0.2862  0.2276
  949POPC   PO413806   4.033   7.597   5.891 -0.2508 -0.0517 -0.2458
  949POPC   GL113807   4.141   7.301   6.173 -0.0718  0.1099  0.2282
  949POPC   GL213808   4.108   7.391   6.459  0.0744  0.0269 -0.1231
  949POPC   C1A13809   3.999   6.888   6.401  0.0623 -0.1049 -0.1404
  949POPC   D2A13810   4.113   6.615   6.737  0.1687  0.1334 -0.0879
  949POPC   C3A13811   4.202   6.586   7.161 -0.0473  0.0572  0.0182
  949POPC   C4A13812   3.982   6.452   7.665  0.2262 -0.0264 -0.0949
  949POPC   C1B13813   4.132   7.483   6.886 -0.1843  0.0334 -0.2463
  949POPC   C2B13814   4.246   7.541   7.236  0.0108 -0.1394 -0.2665
  949POPC   C3B13815   4.203   7.551   7.567 -0.1798 -0.0164  0.0003
  949POPC   C4B13816   4.454   7.314   7.874 -0.4204  0.1514  0.1648
  950POPC   NC313817   3.933  18.189   5.481 -0.1337 -0.0343 -0.1171
  950POPC   PO413818   4.184  18.015   5.662 -0.1725 -0.1838 -0.0594
  950POPC   GL113819   4.099  18.135   6.069 -0.3435 -0.0016 -0.2922
  950POPC   GL213820   3.923  17.970   6.246  0.2367  0.3143  0.0345
  950POPC   C1A13821   4.210  18.422   6.344 -0.2632 -0.0760  0.0369
  950POPC   D2A13822   4.173  18.502   6.779 -0.0252 -0.1146 -0.0299
  950POPC   C3A13823   3.983  18.253   7.045 -0.0084  0.0381  0.1168
  950POPC   C4A13824   3.515  18.161   7.303  0.2405  0.1104  0.1945
  950POPC   C1B13825   3.724  18.241   6.596  0.2937  0.1055  0.0258
  950POPC   C2B13826   3.564  18.507   6.929  0.1975 -0.0658  0.3148
  950POPC   C3B13827   3.332  18.614   7.281  0.0421 -0.0397 -0.2807
  950POPC   C4B13828   3.438  18.508   7.655 -0.0041 -0.3167 -0.0653
  951POPC   NC313829   4.887   1.876   5.309  0.1859  0.2849 -0.0660
  951POPC   PO413830   4.504   1.951   5.664  0.1692  0.0686 -0.2901
  951POPC   GL113831   4.714   2.190   5.988 -0.1545 -0.3038 -0.1425
  951POPC   GL213832   4.423   2.344   6.202  0.1571  0.1119  0.3435
  951POPC   C1A13833   4.881   2.206   6.403 -0.0054  0.0189  0.0576
  951POPC   D2A13834   5.032   2.573   6.576  0.0932 -0.3407 -0.1908
  951POPC   C3A13835   4.805   2.810   6.890 -0.1879  0.1179 -0.2475
  951POPC   C4A13836   4.462   3.065   6.798 -0.0522 -0.0778 -0.1011
  951POPC   C1B13837   4.481   2.579   6.555  0.1347 -0.4903  0.0176
  951POPC   C2B13838   4.182   2.597   6.807  0.0727  0.0839 -0.2069
  951POPC   C3B13839   4.103   2.414   7.238 -0.0059 -0.0560  0.2094
  951POPC   C4B13840   4.065   1.964   7.358 -0.1940 -0.3091 -0.0294
  952POPC   NC313841  10.527  16.889   5.711  0.2236  0.0801  0.2216
  952POPC   PO413842  10.129  16.732   5.885  0.0988  0.3043 -0.1913
  952POPC   GL113843  10.362  16.881   6.181 -0.1515  0.1352  0.0353
  952POPC   GL213844  10.424  17.224   6.135  0.5434 -0.3321 -0.3153
  952POPC   C1A13845  10.564  16.741   6.548  0.2238  0.2250  0.1178
  952POPC   D2A13846  10.592  16.901   7.044  0.0910 -0.0962 -0.2610
  952POPC   C3A13847  10.147  16.809   7.185 -0.2772 -0.0894  0.2014
  952POPC   C4A13848   9.969  16.800   7.533  0.3774  0.0615  0.1146
  952POPC   C1B13849  10.257  17.137   6.583 -0.0459  0.5210  0.0643
  952POPC   C2B13850  10.185  17.235   7.001  0.3645  0.1269  0.0493
  952POPC   C3B13851  10.217  17.395   7.342 -0.1120 -0.1863  0.3682
  952POPC   C4B13852  10.277  17.373   7.813  0.1353 -0.1763 -0.0959
  953POPC   NC313853   8.221  11.324   5.729  0.0902 -0.3855 -0.2319
  953POPC   PO413854   7.789  11.587   5.736 -0.2213 -0.1182  0.0620
  953POPC   GL113855   7.727  11.687   6.185 -0.4799  0.2840 -0.1641
  953POPC   GL213856   7.845  11.421   6.273  0.0120  0.1172 -0.0495
  953POPC   C1A13857   7.552  11.878   6.549 -0.2975 -0.0774 -0.2506
  953POPC   D2A13858   7.349  11.835   7.026 -0.4268 -0.0209 -0.0586
  953POPC   C3A13859   7.112  11.972   7.205  0.0309  0.0449  0.2474
  953POPC   C4A13860   7.268  12.174   7.507  0.0724  0.1096  0.0316
  953POPC   C1B13861   8.044  11.572   6.571  0.4214  0.0707 -0.1206
  953POPC   C2B13862   8.244  11.584   6.967 -0.0301 -0.4215 -0.1923
  953POPC   C3B13863   8.355  11.672   7.440 -0.1026  0.0399 -0.0594
  953POPC   C4B13864   8.468  11.526   7.781 -0.0399 -0.2147  0.1235
  954POPC   NC313865   4.297  13.504   5.552  0.1688 -0.0258  0.0125
  954POPC   PO413866   4.744  13.764   5.546 -0.0076  0.2686  0.0360
  954POPC   GL113867   4.702  13.737   5.922 -0.1131 -0.3873  0.0063
  954POPC   GL213868   5.043  13.939   6.111  0.4527 -0.0265 -0.1600
  954POPC   C1A13869   4.607  13.766   6.336  0.2480  0.0171 -0.0473
  954POPC   D2A13870   4.648  13.970   6.831 -0.3051 -0.0067 -0.1097
  954POPC   C3A13871   4.817  13.879   7.242  0.1778 -0.1332 -0.0552
  954POPC   C4A13872   5.043  13.923   7.662 -0.1178 -0.0365 -0.1940
  954POPC   C1B13873   5.144  13.778   6.573  0.4555  0.1860  0.1499
  954POPC   C2B13874   5.153  13.693   6.927  0.0645 -0.0576 -0.1706
  954POPC   C3B13875   5.025  13.367   7.266  0.1922  0.0866 -0.0589
  954POPC   C4B13876   4.677  13.117   7.393  0.0620  0.2434  0.0043
  955POPC   NC313877   5.762   4.537   5.702 -0.0988 -0.1969  0.1606
  955POPC   PO413878   5.310   4.579   5.906  0.0848  0.0483 -0.1514
  955POPC   GL113879   5.250   4.568   6.326  0.2032 -0.2620 -0.2398
  955POPC   GL213880   4.875   4.464   6.398 -0.0080  0.2361 -0.0305
  955POPC   C1A13881   5.507   4.470   6.695 -0.0087 -0.0333 -0.1533
  955POPC   D2A13882   5.921   4.503   6.873  0.0571  0.0388 -0.0022
  955POPC   C3A13883   5.842   4.357   7.255 -0.0532 -0.0814 -0.0440
  955POPC   C4A13884   5.746   4.303   7.663 -0.0963 -0.0265  0.0432
  955POPC   C1B13885   4.861   4.588   6.792 -0.1264 -0.3053  0.2712
  955POPC   C2B13886   4.942   4.824   7.121 -0.3514  0.1865 -0.2467
  955POPC   C3B13887   5.335   5.149   7.381 -0.1136  0.2810  0.1115
  955POPC   C4B13888   5.626   5.268   7.638 -0.2210  0.0667  0.4754
  956POPC   NC313889  15.723   5.872   5.261  0.2071 -0.0637  0.3827
  956POPC   PO413890  15.826   6.012   5.730  0.1272 -0.1350  0.0057
  956POPC   GL113891  15.942   5.757   6.133  0.1528  0.0309 -0.0593
  956POPC   GL213892  16.242   5.699   6.109 -0.0213 -0.1001  0.4109
  956POPC   C1A13893  16.059   5.670   6.538  0.1374  0.1553  0.3312
  956POPC   D2A13894  16.180   5.790   6.990 -0.2825 -0.1135  0.1158
  956POPC   C3A13895  16.346   5.470   7.238 -0.1709  0.0009 -0.1590
  956POPC   C4A13896  16.695   5.468   7.410  0.1290 -0.0258 -0.1524
  956POPC   C1B13897  16.552   5.629   6.490  0.4900  0.2126 -0.0255
  956POPC   C2B13898  16.475   5.416   6.781 -0.0840 -0.1864  0.0580
  956POPC   C3B13899  16.549   5.087   6.983  0.1928 -0.3723 -0.0093
  956POPC   C4B13900  16.790   4.962   7.419  0.1501  0.0068 -0.0106
  957POPC   NC313901   0.472   9.951   5.857  0.0651  0.5030  0.0966
  957POPC   PO413902   0.605  10.440   5.786 -0.1541 -0.1530  0.2252
  957POPC   GL113903   0.512  10.719   6.162 -0.0700  0.0944  0.0296
  957POPC   GL213904   0.646  10.495   6.436  0.1198 -0.0473  0.0759
  957POPC   C1A13905   0.195  10.904   6.399 -0.0924 -0.0120 -0.1003
  957POPC   D2A13906   0.025  10.594   6.624 -0.1598 -0.1362  0.1085
  957POPC   C3A13907   0.333  10.512   6.854 -0.1362  0.2414  0.5264
  957POPC   C4A13908   0.438  10.173   7.307  0.1087 -0.1495 -0.0077
  957POPC   C1B13909   0.833  10.327   6.895  0.1198  0.2482  0.1024
  957POPC   C2B13910   0.964  10.156   7.274  0.1261 -0.0632 -0.0545
  957POPC   C3B13911   0.891  10.294   7.708  0.2292  0.1083  0.2579
  957POPC   C4B13912   0.906  10.319   8.095 -0.0626 -0.2278 -0.1015
  958POPC   NC313913   7.939  16.514   5.818  0.1134  0.1105  0.1009
  958POPC   PO413914   7.455  16.637   5.664 -0.0866  0.3209  0.1478
  958POPC   GL113915   7.431  16.489   6.096  0.0155 -0.2516 -0.2287
  958POPC   GL213916   7.654  16.496   6.344 -0.0065 -0.0795  0.2348
  958POPC   C1A13917   7.180  16.456   6.544  0.0508  0.5919 -0.0098
  958POPC   D2A13918   7.234  16.328   6.955  0.1711  0.0950 -0.0652
  958POPC   C3A13919   7.099  16.498   7.306 -0.3111  0.1875 -0.1340
  958POPC   C4A13920   7.055  16.537   7.749  0.0135  0.1023 -0.2247
  958POPC   C1B13921   7.696  16.515   6.772  0.1619 -0.1717 -0.1839
  958POPC   C2B13922   7.651  16.554   7.249 -0.0813  0.1376 -0.2112
  958POPC   C3B13923   7.518  16.697   7.599 -0.1714 -0.0305 -0.1167
  958POPC   C4B13924   7.524  16.529   8.005 -0.0425  0.1763  0.0243
  959POPC   NC313925  13.000  18.063   5.662 -0.1695  0.0741  0.2833
  959POPC   PO413926  12.933  18.297   6.029 -0.1289  0.1571 -0.1779
  959POPC   GL113927  12.712  18.234   6.439 -0.0186 -0.0455  0.2080
  959POPC   GL213928  12.686  18.486   6.513  0.0419 -0.0809 -0.0365
  959POPC   C1A13929  12.562  18.022   6.850 -0.0536 -0.1502  0.0481
  959POPC   D2A13930  12.468  17.624   7.078 -0.0290  0.2969 -0.0689
  959POPC   C3A13931  12.525  17.673   7.512 -0.0332  0.0172  0.0274
  959POPC   C4A13932  12.135  17.737   7.894  0.1912 -0.3085 -0.1039
  959POPC   C1B13933  12.521  18.544   6.816  0.1455 -0.0701 -0.0070
  959POPC   C2B13934  12.470  18.446   7.141  0.1765 -0.3447  0.2043
  959POPC   C3B13935  12.535  18.221   7.435  0.0858  0.0727  0.1690
  959POPC   C4B13936  12.568  18.097   7.802 -0.1528  0.0580 -0.1775
  960POPC   NC313937  14.804   8.579   5.970  0.2129  0.1706  0.1889
  960POPC   PO413938  14.742   8.962   5.965 -0.4091 -0.1092  0.2584
  960POPC   GL113939  14.968   9.067   6.265  0.1238  0.0610  0.2393
  960POPC   GL213940  15.132   9.333   6.116 -0.0445 -0.0540  0.0642
  960POPC   C1A13941  15.224   9.169   6.600  0.2176  0.1124 -0.3351
  960POPC   D2A13942  15.217   9.464   6.937 -0.1185 -0.2540 -0.0239
  960POPC   C3A13943  15.311   9.641   7.265  0.2644  0.0662  0.0643
  960POPC   C4A13944  15.545   9.893   7.523 -0.1948 -0.0110 -0.0474
  960POPC   C1B13945  15.379   9.620   6.401 -0.0944 -0.1688 -0.3629
  960POPC   C2B13946  15.439   9.848   6.704 -0.2586  0.0653 -0.2110
  960POPC   C3B13947  15.585  10.094   7.057  0.0111  0.1457  0.1881
  960POPC   C4B13948  15.975  10.111   7.330 -0.1617  0.0624  0.0131
  961YOPC   NC313949   8.322  12.587   5.446 -0.0142  0.2263 -0.3020
  961YOPC   PO413950   8.480  12.923   5.654  0.1023 -0.1851 -0.3203
  961YOPC   GL113951   8.369  12.893   6.092  0.0544 -0.1802  0.0573
  961YOPC   GL213952   8.241  13.166   6.291  0.1032  0.0562 -0.2940
  961YOPC   C1A13953   8.450  12.749   6.473 -0.0062  0.0961 -0.0115
  961YOPC   D2A13954   8.495  12.524   6.908 -0.2292 -0.2931 -0.3150
  961YOPC   C3A13955   8.464  12.043   6.834  0.1255  0.3168  0.1808
  961YOPC   C4A13956   8.467  11.806   6.504 -0.1123 -0.0465  0.0214
  961YOPC   C1B13957   8.298  13.031   6.812 -0.0552 -0.2895 -0.2074
  961YOPC   C2B13958   8.271  12.886   7.157 -0.3656 -0.1124  0.3512
  961YOPC   D3B13959   8.206  13.167   7.384 -0.1084  0.2739 -0.1409
  961YOPC   C4B13960   7.972  13.471   7.492 -0.0502  0.1359 -0.0199
  962YOPC   NC313961  17.450   8.117   5.381 -0.3505 -0.0275 -0.3916
  962YOPC   PO413962  17.658   7.878   5.777  0.1685 -0.0645  0.0082
  962YOPC   GL113963  17.757   7.911   6.192  0.1412  0.0547 -0.0318
  962YOPC   GL213964  17.443   8.191   6.315 -0.2703  0.1819 -0.1012
  962YOPC   C1A13965  18.167   8.078   6.359  0.1379  0.0557  0.4512
  962YOPC   D2A13966  18.626   8.220   6.377 -0.1709 -0.1757  0.1053
  962YOPC   C3A13967  18.893   8.475   6.138  0.3474 -0.0896  0.1609
  962YOPC   C4A13968  19.262   8.406   5.857 -0.0351  0.0839 -0.2852
  962YOPC   C1B13969  17.656   8.495   6.605 -0.1357  0.0503  0.2458
  962YOPC   C2B13970  17.585   8.833   6.795 -0.6548 -0.1321 -0.0517
  962YOPC   D3B13971  17.169   8.899   6.846 -0.1280 -0.0740  0.2492
  962YOPC   C4B13972  16.815   8.749   6.660 -0.1764 -0.1316  0.3163
  963YOPC   NC313973   5.011  17.400   5.609 -0.0495 -0.2462  0.1125
  963YOPC   PO413974   4.616  17.691   5.709  0.2043  0.1849 -0.0488
  963YOPC   GL113975   4.912  17.803   6.017  0.0789 -0.1603  0.0107
  963YOPC   GL213976   4.918  18.049   6.172  0.0084  0.1195  0.0763
  963YOPC   C1A13977   5.071  17.725   6.433  0.2376 -0.0106 -0.1105
  963YOPC   D2A13978   5.243  17.770   6.871  0.1107 -0.2973 -0.2384
  963YOPC   C3A13979   5.309  17.616   7.275  0.1726 -0.3633 -0.0927
  963YOPC   C4A13980   4.981  17.626   7.694 -0.1172  0.0785 -0.0229
  963YOPC   C1B13981   4.576  18.097   6.452 -0.3195 -0.0022 -0.1481
  963YOPC   C2B13982   4.247  18.003   6.741  0.0165 -0.1522 -0.3232
  963YOPC   D3B13983   4.319  17.700   7.113 -0.2311 -0.0612 -0.0924
  963YOPC   C4B13984   4.510  17.625   7.476 -0.3271 -0.0047  0.1112
  964YOPC   NC313985   4.181   9.188   5.474  0.1287 -0.0383 -0.2688
  964YOPC   PO413986   4.235   9.197   5.827  0.0077 -0.0345 -0.2248
  964YOPC   GL113987   3.831   9.228   6.291  0.3040  0.1359 -0.1099
  964YOPC   GL213988   3.606   9.576   6.149 -0.1780 -0.2161 -0.4237
  964YOPC   C1A13989   3.662   9.328   6.792  0.0649 -0.1455 -0.3644
  964YOPC   D2A13990   3.443   9.289   7.101 -0.1539 -0.1695  0.3322
  964YOPC   C3A13991   3.304   9.307   7.440 -0.1850  0.1138  0.1782
  964YOPC   C4A13992   3.091   9.130   7.805 -0.1992 -0.1336  0.0764
  964YOPC   C1B13993   3.337   9.276   6.404 -0.0506  0.1126 -0.4142
  964YOPC   C2B13994   2.884   9.209   6.577  0.0062 -0.3084 -0.0354
  964YOPC   D3B13995   2.766   9.034   6.947  0.0455 -0.3258 -0.0902
  964YOPC   C4B13996   3.039   8.868   7.302 -0.0232 -0.0178  0.1439
  965YOPC   NC313997  15.420  16.940   5.723 -0.0088 -0.2075 -0.1450
  965YOPC   PO413998  15.058  16.839   5.478 -0.1414 -0.3410 -0.2587
  965YOPC   GL113999  15.133  16.537   5.802  0.3122 -0.1946 -0.2078
  965YOPC   GL214000  14.977  16.719   6.096 -0.0772  0.0682  0.2599
  965YOPC   C1A14001  15.220  16.182   6.088  0.0253 -0.3081 -0.1627
  965YOPC   D2A14002  15.545  16.126   6.415  0.1083 -0.2307 -0.1963
  965YOPC   C3A14003  15.234  16.218   6.619 -0.3028 -0.0234  0.0634
  965YOPC   C4A14004  15.123  16.170   6.933 -0.0721 -0.0590  0.1073
  965YOPC   C1B14005  15.305  16.668   6.430  0.1381 -0.1386  0.0732
  965YOPC   C2B14006  15.573  16.921   6.605 -0.4572  0.0261 -0.0325
  965YOPC   D3B14007  15.493  17.103   7.004  0.4482  0.4301  0.5679
  965YOPC   C4B14008  15.576  17.293   7.370  0.0764 -0.0894  0.2996
  966YOPC   NC314009  14.257   8.016   5.978 -0.0496  0.0009  0.0798
  966YOPC   PO414010  13.934   7.735   5.854 -0.2751  0.2949  0.0630
  966YOPC   GL114011  13.899   7.503   6.263 -0.1992  0.0046  0.1478
  966YOPC   GL214012  13.669   7.281   6.386  0.2086 -0.1081  0.1264
  966YOPC   C1A14013  13.977   7.343   6.790 -0.1286  0.0128 -0.2096
  966YOPC   D2A14014  14.158   7.620   7.113  0.0925  0.0768 -0.1537
  966YOPC   C3A14015  13.825   7.648   7.405  0.1018  0.1228 -0.2565
  966YOPC   C4A14016  13.359   7.530   7.615  0.1321 -0.0379  0.1365
  966YOPC   C1B14017  13.291   7.112   6.705  0.0155  0.0084  0.2067
  966YOPC   C2B14018  13.071   7.170   7.107 -0.4099 -0.0839 -0.0279
  966YOPC   D3B14019  12.912   7.431   7.353 -0.1807 -0.1271  0.2577
  966YOPC   C4B14020  12.883   7.566   7.790 -0.1209 -0.0582 -0.2354
  967YOPC   NC314021   9.685  14.155   5.883  0.1051 -0.1330  0.2596
  967YOPC   PO414022   9.628  14.611   5.872  0.0698  0.1205 -0.0210
  967YOPC   GL114023   9.616  14.387   6.288  0.1930  0.0747  0.1880
  967YOPC   GL214024   9.958  14.406   6.404  0.0540 -0.1998  0.1494
  967YOPC   C1A14025   9.593  14.456   6.824  0.0860  0.0843 -0.0640
  967YOPC   D2A14026   9.779  14.360   7.214 -0.2887 -0.0384 -0.2655
  967YOPC   C3A14027   9.603  14.141   7.626 -0.0365  0.0697  0.0892
  967YOPC   C4A14028   9.220  14.026   7.867 -0.0130 -0.0885 -0.0335
  967YOPC   C1B14029  10.115  14.561   6.810  0.2151  0.1289 -0.2301
  967YOPC   C2B14030  10.161  14.701   7.243 -0.0934 -0.1794  0.1839
  967YOPC   D3B14031  10.066  15.193   7.274  0.0684  0.0675 -0.1755
  967YOPC   C4B14032   9.759  15.475   7.057 -0.3078 -0.1978  0.0483
  968YOPC   NC314033   9.647   5.461   5.935  0.1334  0.1941 -0.2432
  968YOPC   PO414034   9.222   5.355   6.055 -0.0574 -0.0861  0.0959
  968YOPC   GL114035   9.137   5.112   6.396  0.3539 -0.2206 -0.0856
  968YOPC   GL214036   8.887   5.023   6.585 -0.1264  0.2003  0.2916
  968YOPC   C1A14037   9.358   5.088   6.868 -0.2219 -0.2598  0.2032
  968YOPC   D2A14038   9.297   5.158   7.255  0.2005 -0.2918  0.2432
  968YOPC   C3A14039   9.468   4.967   7.569 -0.0481 -0.0543 -0.0955
  968YOPC   C4A14040   9.263   4.732   7.837  0.1157  0.1228  0.3199
  968YOPC   C1B14041   8.810   4.889   7.014  0.0996 -0.0935 -0.2787
  968YOPC   C2B14042   8.859   4.879   7.435 -0.1955  0.0175 -0.2502
  968YOPC   D3B14043   8.717   5.304   7.478  0.1151  0.1626 -0.1071
  968YOPC   C4B14044   8.491   5.552   7.817 -0.0341  0.2895  0.1301
  969YOPC   NC314045  10.049  15.173   6.066 -0.1396 -0.3846  0.1122
  969YOPC   PO414046   9.650  15.493   5.981 -0.2291 -0.0446  0.2067
  969YOPC   GL114047   9.742  15.830   6.303  0.1648  0.1300 -0.1874
  969YOPC   GL214048  10.072  15.757   6.446  0.2897  0.3640  0.0157
  969YOPC   C1A14049   9.630  16.212   6.505  0.0078  0.1571  0.0222
  969YOPC   D2A14050   9.437  16.415   6.776 -0.1281  0.2657 -0.0665
  969YOPC   C3A14051   9.293  16.846   6.748  0.3380 -0.1657 -0.0252
  969YOPC   C4A14052   9.229  17.174   6.632  0.0309  0.0567 -0.0569
  969YOPC   C1B14053  10.042  15.929   6.909  0.1239 -0.1825 -0.2319
  969YOPC   C2B14054   9.979  15.950   7.338  0.2952 -0.1546 -0.0468
  969YOPC   D3B14055   9.947  15.585   7.575 -0.2319 -0.0940 -0.2281
  969YOPC   C4B14056   9.838  15.471   7.932  0.1884  0.2463 -0.0200
  970YOPC   NC314057   2.435  16.722   5.191 -0.1276 -0.0481  0.1874
  970YOPC   PO414058   2.791  16.978   5.375 -0.0078  0.0066 -0.1149
  970YOPC   GL114059   2.663  16.952   5.908 -0.1244  0.1704  0.3591
  970YOPC   GL214060   2.891  16.855   5.959  0.0104 -0.1274  0.0870
  970YOPC   C1A14061   2.427  16.879   6.221  0.1346 -0.3504 -0.0027
  970YOPC   D2A14062   2.172  16.730   6.527 -0.0583 -0.1224 -0.0592
  970YOPC   C3A14063   1.952  17.036   6.768 -0.0197 -0.0061 -0.2569
  970YOPC   C4A14064   1.602  17.038   6.750 -0.0536 -0.0243 -0.1336
  970YOPC   C1B14065   2.836  17.009   6.369 -0.2685 -0.2312  0.1405
  970YOPC   C2B14066   3.088  16.980   6.671 -0.1191 -0.2037  0.0907
  970YOPC   D3B14067   3.070  16.651   7.033 -0.1627 -0.0182 -0.3427
  970YOPC   C4B14068   2.646  16.510   7.230  0.0124  0.2348  0.0292
  971YOPC   NC314069  15.811  11.675   5.708 -0.1754  0.0926 -0.4867
  971YOPC   PO414070  15.747  12.077   5.774 -0.0965  0.2017  0.0362
  971YOPC   GL114071  15.893  11.969   6.152 -0.2255 -0.0134  0.1981
  971YOPC   GL214072  16.105  11.660   6.123 -0.2237 -0.1483 -0.0046
  971YOPC   C1A14073  16.031  12.152   6.476  0.1203 -0.2951 -0.1424
  971YOPC   D2A14074  15.925  11.914   6.911 -0.0769  0.0029 -0.1169
  971YOPC   C3A14075  15.744  11.948   7.261  0.0916 -0.2674 -0.0075
  971YOPC   C4A14076  15.742  12.134   7.696  0.0883  0.0496 -0.1734
  971YOPC   C1B14077  16.431  11.858   6.361 -0.2811  0.2370  0.1016
  971YOPC   C2B14078  16.798  11.964   6.679 -0.2692  0.0714 -0.1294
  971YOPC   D3B14079  17.027  11.673   6.771  0.0972  0.0286 -0.0871
  971YOPC   C4B14080  17.372  11.517   7.034  0.0365  0.0825 -0.0066
  972YOPC   NC314081  13.528   5.337   5.919 -0.2825 -0.0295 -0.0230
  972YOPC   PO414082  13.260   5.571   6.070 -0.0368  0.0267  0.1913
  972YOPC   GL114083  13.354   5.723   6.464  0.4789 -0.0053 -0.0390
  972YOPC   GL214084  13.309   5.983   6.470 -0.3611 -0.3478  0.0924
  972YOPC   C1A14085  13.286   5.536   6.968  0.2203 -0.1024 -0.0598
  972YOPC   D2A14086  13.686   5.295   7.174  0.1758  0.2380 -0.1625
  972YOPC   C3A14087  13.635   5.068   7.504 -0.1332  0.1775  0.0191
  972YOPC   C4A14088  13.376   4.869   7.942 -0.0217  0.3042  0.1300
  972YOPC   C1B14089  13.287   6.187   6.969  0.0575  0.0030 -0.0188
  972YOPC   C2B14090  13.365   6.220   7.315  0.1255 -0.0712  0.3885
  972YOPC   D3B14091  13.448   5.927   7.656  0.2016  0.2748  0.1689
  972YOPC   C4B14092  13.121   5.704   7.927  0.0237  0.0090  0.0088
  973YOPC   NC314093  15.149   4.323   5.959 -0.2989 -0.0116  0.1598
  973YOPC   PO414094  14.872   4.265   5.690 -0.0817 -0.0092  0.0744
  973YOPC   GL114095  14.593   4.416   5.956 -0.2015  0.0587  0.0168
  973YOPC   GL214096  14.547   4.745   6.116 -0.1119  0.0002 -0.0932
  973YOPC   C1A14097  14.636   4.376   6.390 -0.1700 -0.1137 -0.1997
  973YOPC   D2A14098  14.910   4.320   6.783 -0.3198  0.0713 -0.2429
  973YOPC   C3A14099  14.701   4.330   7.199 -0.0917  0.0853 -0.0501
  973YOPC   C4A14100  14.785   4.373   7.631  0.1607 -0.0736 -0.0220
  973YOPC   C1B14101  14.611   4.839   6.581  0.0202  0.3057  0.0380
  973YOPC   C2B14102  14.795   4.894   7.021 -0.3644 -0.1211 -0.1562
  973YOPC   D3B14103  14.551   4.807   7.391  0.0319  0.1292 -0.1876
  973YOPC   C4B14104  14.325   4.986   7.818 -0.0965 -0.2490  0.0936
  974YOPC   NC314105   1.328   0.219   5.396  0.1852  0.0768  0.0310
  974YOPC   PO414106   1.763   0.235   5.538  0.0576  0.2314  0.0159
  974YOPC   GL114107   1.527   0.290   5.908  0.0472 -0.0978 -0.1704
  974YOPC   GL214108   1.220   0.041   5.830  0.0209 -0.6580 -0.0614
  974YOPC   C1A14109   1.683   0.285   6.386 -0.1853 -0.0717  0.1676
  974YOPC   D2A14110   1.691   0.306   6.749 -0.0184  0.0657 -0.0219
  974YOPC   C3A14111   1.490  -0.082   7.038  0.1907 -0.4708 -0.0394
  974YOPC   C4A14112   1.229  -0.229   7.391 -0.1941 -0.1453 -0.1608
  974YOPC   C1B14113   1.224   0.043   6.223 -0.2289 -0.2166 -0.0493
  974YOPC   C2B14114   1.279   0.067   6.620  0.1567 -0.4135 -0.2482
  974YOPC   D3B14115   0.901   0.107   6.957  0.0474 -0.0735 -0.0171
  974YOPC   C4B14116   0.997   0.229   7.381  0.1481  0.5719  0.0438
  975YOPC   NC314117   9.349  12.858   5.490  0.4236  0.0729 -0.4505
  975YOPC   PO414118   9.867  12.842   5.504 -0.0677 -0.0193  0.5081
  975YOPC   GL114119   9.907  12.643   5.903 -0.1400 -0.3705 -0.0638
  975YOPC   GL214120  10.142  12.566   5.963 -0.0579 -0.3295  0.3126
  975YOPC   C1A14121   9.823  12.837   6.301  0.0309 -0.0944  0.0912
  975YOPC   D2A14122  10.010  13.157   6.585 -0.2085 -0.2942  0.0831
  975YOPC   C3A14123   9.752  13.240   6.924  0.2575 -0.1165  0.1822
  975YOPC   C4A14124   9.532  13.125   7.162 -0.1859 -0.1733  0.0114
  975YOPC   C1B14125  10.142  12.492   6.465 -0.2679 -0.0267  0.0669
  975YOPC   C2B14126  10.242  12.470   6.830  0.0970  0.2369  0.1817
  975YOPC   D3B14127  10.399  12.430   7.247 -0.1817 -0.1490  0.1853
  975YOPC   C4B14128  10.481  12.469   7.664  0.2762  0.1648  0.0068
  976YOPC   NC314129   2.057  13.231   5.752  0.2468 -0.3649  0.2867
  976YOPC   PO414130   2.418  13.472   5.571 -0.1646  0.0743 -0.1520
  976YOPC   GL114131   2.444  13.249   5.977  0.0399 -0.1736 -0.1588
  976YOPC   GL214132   2.178  13.591   6.081 -0.2079 -0.1024 -0.0129
  976YOPC   C1A14133   2.562  13.187   6.431 -0.0570 -0.2176 -0.3316
  976YOPC   D2A14134   2.655  12.814   6.594 -0.1380 -0.0663 -0.0524
  976YOPC   C3A14135   2.814  12.765   6.963 -0.4332  0.0947  0.4772
  976YOPC   C4A14136   2.932  12.423   7.185 -0.0603  0.1309  0.0104
  976YOPC   C1B14137   2.053  13.815   6.448 -0.1173 -0.0503  0.0135
  976YOPC   C2B14138   1.989  13.972   6.877 -0.1999  0.0715 -0.2801
  976YOPC   D3B14139   2.324  13.866   7.305 -0.0902 -0.0565  0.1970
  976YOPC   C4B14140   2.662  13.571   7.269  0.1589  0.0832 -0.0620
  977YOPC   NC314141   2.557   6.251   5.657  0.1177 -0.0547 -0.1084
  977YOPC   PO414142   2.239   6.079   5.946  0.2860 -0.2290  0.1033
  977YOPC   GL114143   1.990   5.908   6.187  0.1228 -0.3423  0.1704
  977YOPC   GL214144   2.163   5.969   6.460 -0.0718 -0.3321 -0.0944
  977YOPC   C1A14145   1.955   5.525   6.558 -0.0153  0.0877  0.3662
  977YOPC   D2A14146   1.881   5.049   6.600 -0.1090 -0.0943  0.1677
  977YOPC   C3A14147   1.689   4.973   6.948  0.2986 -0.0831 -0.1537
  977YOPC   C4A14148   1.489   4.951   7.422 -0.0086  0.0789  0.2468
  977YOPC   C1B14149   2.195   5.874   6.842 -0.0553 -0.1321 -0.1333
  977YOPC   C2B14150   2.312   5.898   7.248  0.1059  0.3187  0.3583
  977YOPC   D3B14151   1.991   6.152   7.515 -0.0914  0.0558 -0.1726
  977YOPC   C4B14152   1.733   5.970   7.827  0.3430  0.1285 -0.1122
  978YOPC   NC314153  10.235  14.029   5.640  0.1861  0.2444  0.2134
  978YOPC   PO414154  10.134  13.923   6.056 -0.0645  0.3220  0.1021
  978YOPC   GL114155   9.961  13.887   6.425 -0.1766 -0.2156  0.0988
  978YOPC   GL214156  10.219  13.613   6.548 -0.3189 -0.2777 -0.1626
  978YOPC   C1A14157   9.996  14.042   6.784  0.1728  0.0603 -0.2828
  978YOPC   D2A14158  10.181  13.962   7.100 -0.0465 -0.1339  0.3768
  978YOPC   C3A14159  10.011  13.820   7.487  0.0472 -0.1323  0.0490
  978YOPC   C4A14160  10.074  13.920   7.936 -0.1034  0.2446  0.0724
  978YOPC   C1B14161  10.164  13.486   6.952 -0.0903  0.0472  0.1234
  978YOPC   C2B14162   9.941  13.256   7.365 -0.3568 -0.0052  0.0320
  978YOPC   D3B14163   9.952  13.350   7.737  0.2543 -0.0791  0.3798
  978YOPC   C4B14164  10.303  13.430   7.931 -0.1696  0.2120 -0.2865
  979YOPC   NC314165   5.251  12.107   5.424  0.0481 -0.2977 -0.0404
  979YOPC   PO414166   5.633  12.263   5.662  0.1357 -0.0355 -0.0109
  979YOPC   GL114167   5.717  12.322   6.073  0.0259 -0.1107 -0.0200
  979YOPC   GL214168   5.824  12.555   6.111  0.0119  0.0459  0.0556
  979YOPC   C1A14169   5.719  11.967   6.334  0.1158 -0.0989 -0.0546
  979YOPC   D2A14170   6.027  11.559   6.387  0.0393 -0.2339 -0.1571
  979YOPC   C3A14171   6.298  11.671   6.777  0.1658 -0.1977 -0.1496
  979YOPC   C4A14172   6.211  11.849   7.150 -0.1408 -0.0138 -0.1860
  979YOPC   C1B14173   5.706  12.432   6.546  0.1294 -0.1105 -0.3553
  979YOPC   C2B14174   5.698  12.335   7.035  0.1242 -0.1120  0.0768
  979YOPC   D3B14175   5.618  12.645   7.336  0.0501  0.1646  0.0837
  979YOPC   C4B14176   5.606  12.748   7.767 -0.0380  0.0399  0.3333
  980YOPC   NC314177   6.492  17.963   5.737 -0.0219  0.1349 -0.1190
  980YOPC   PO414178   6.859  18.080   5.572 -0.0908  0.0655 -0.0103
  980YOPC   GL114179   7.157  18.235   5.914 -0.0021  0.0682 -0.2078
  980YOPC   GL214180   7.216  18.503   6.118 -0.1310 -0.0334 -0.0870
  980YOPC   C1A14181   7.096  18.132   6.462 -0.0246 -0.2435 -0.1557
  980YOPC   D2A14182   7.101  18.296   6.931 -0.1187 -0.0239 -0.0448
  980YOPC   C3A14183   6.844  18.306   7.299 -0.0641 -0.0332  0.1001
  980YOPC   C4A14184   6.722  18.611   7.588  0.0571 -0.0796  0.1656
  980YOPC   C1B14185   7.313  18.808   6.386 -0.0107  0.0018 -0.0884
  980YOPC   C2B14186   7.351  19.186   6.479 -0.0626  0.2416 -0.0708
  980YOPC   D3B14187   7.038  19.497   6.657  0.0325 -0.1008 -0.2152
  980YOPC   C4B14188   6.747  19.715   6.689  0.0642 -0.1721  0.0234
  981YOPC   NC314189  18.416  18.239   5.085 -0.1812  0.0260  0.2067
  981YOPC   PO414190  18.147  17.850   5.302  0.1784 -0.2590  0.1100
  981YOPC   GL114191  18.453  17.813   5.674 -0.2490  0.1460 -0.1858
  981YOPC   GL214192  18.459  17.604   5.799  0.1502 -0.1260 -0.0409
  981YOPC   C1A14193  18.446  18.119   6.043  0.2593 -0.0960 -0.0657
  981YOPC   D2A14194  18.345  18.196   6.378 -0.1897  0.1893  0.0383
  981YOPC   C3A14195  18.631  18.151   6.739  0.0382 -0.1399 -0.3029
  981YOPC   C4A14196  19.114  18.306   6.791 -0.1790  0.1186 -0.1432
  981YOPC   C1B14197  18.312  17.423   6.088  0.1715  0.0014 -0.2963
  981YOPC   C2B14198  18.268  17.015   6.317 -0.0939 -0.2373  0.1033
  981YOPC   D3B14199  18.590  16.894   6.592 -0.2042  0.2360 -0.0482
  981YOPC   C4B14200  18.808  16.479   6.678  0.0904 -0.2350  0.2176
  982YOPC   NC314201  15.109   1.157   5.719  0.0197 -0.3345 -0.1514
  982YOPC   PO414202  15.383   1.518   5.516 -0.3170 -0.0549 -0.3301
  982YOPC   GL114203  15.426   1.480   5.980 -0.0153  0.1564  0.3065
  982YOPC   GL214204  15.271   1.322   6.224  0.0467 -0.0019 -0.0910
  982YOPC   C1A14205  15.636   1.624   6.252 -0.1971  0.0996  0.0286
  982YOPC   D2A14206  15.838   1.687   6.676  0.0993  0.1395  0.3221
  982YOPC   C3A14207  15.974   2.065   6.958 -0.1920 -0.1765  0.0944
  982YOPC   C4A14208  16.180   2.479   7.165 -0.0634  0.3838 -0.4384
  982YOPC   C1B14209  15.364   1.487   6.620  0.0625  0.1825 -0.0075
  982YOPC   C2B14210  15.367   1.483   7.044 -0.1786 -0.0905 -0.1496
  982YOPC   D3B14211  15.597   1.849   7.194 -0.0631  0.1359  0.2709
  982YOPC   C4B14212  15.761   2.247   7.408 -0.3157  0.3164 -0.1009
  983YOPC   NC314213  10.658   6.313   6.468 -0.1036  0.2314  0.2743
  983YOPC   PO414214  10.384   6.491   6.226 -0.1393 -0.1234 -0.0115
  983YOPC   GL114215  10.134   6.382   6.686 -0.0654 -0.3103  0.0827
  983YOPC   GL214216  10.340   6.224   6.859 -0.0258  0.0148 -0.2363
  983YOPC   C1A14217   9.891   6.513   6.820  0.2530  0.0311 -0.1502
  983YOPC   D2A14218   9.511   6.780   7.014 -0.1664 -0.1569  0.1365
  983YOPC   C3A14219   9.358   6.830   7.416 -0.1271 -0.1205 -0.1781
  983YOPC   C4A14220   8.964   6.806   7.669  0.0755  0.0783  0.1694
  983YOPC   C1B14221  10.416   6.379   7.240  0.0320 -0.1848  0.0072
  983YOPC   C2B14222  10.085   6.722   7.295 -0.0743 -0.2180  0.1294
  983YOPC   D3B14223   9.970   7.092   7.575  0.1130 -0.0835  0.0583
  983YOPC   C4B14224   9.818   7.496   7.605  0.1551 -0.2626  0.1163
  984YOPC   NC314225  12.929  15.037   5.662  0.2627  0.2398 -0.1419
  984YOPC   PO414226  12.571  15.207   5.628  0.0633 -0.1267 -0.2786
  984YOPC   GL114227  12.594  15.182   6.132 -0.0247 -0.4094 -0.0711
  984YOPC   GL214228  12.293  15.090   6.252 -0.0394  0.2226 -0.0918
  984YOPC   C1A14229  12.843  15.274   6.511  0.1529  0.0134  0.1634
  984YOPC   D2A14230  13.218  15.409   6.814 -0.2816  0.1543  0.0509
  984YOPC   C3A14231  13.240  15.057   7.147  0.3566  0.0025  0.1203
  984YOPC   C4A14232  13.389  14.909   7.488 -0.1204 -0.0070  0.1264
  984YOPC   C1B14233  12.445  15.581   6.474 -0.0350  0.1948  0.1186
  984YOPC   C2B14234  12.380  16.021   6.576  0.2095  0.0079  0.0568
  984YOPC   D3B14235  12.347  16.080   7.069 -0.1437 -0.2530 -0.2260
  984YOPC   C4B14236  12.056  16.277   7.383 -0.0574 -0.0724  0.0948
  985YOPC   NC314237   6.676  14.753   5.976  0.0417  0.1029  0.0737
  985YOPC   PO414238   6.991  15.093   6.160 -0.2257 -0.2363  0.2761
  985YOPC   GL114239   7.072  15.109   6.507  0.2829  0.0800  0.1887
  985YOPC   GL214240   7.227  14.896   6.642  0.0138  0.1790 -0.0397
  985YOPC   C1A14241   6.762  15.200   6.859 -0.0484 -0.2513 -0.0952
  985YOPC   D2A14242   6.532  14.997   7.089 -0.0597  0.1408  0.1219
  985YOPC   C3A14243   6.616  14.850   7.496  0.1148 -0.0912  0.0378
  985YOPC   C4A14244   6.662  15.031   7.909  0.0049 -0.3058  0.1486
  985YOPC   C1B14245   7.293  14.974   7.020  0.1613  0.1027  0.0774
  985YOPC   C2B14246   7.115  15.030   7.449 -0.3157 -0.1652  0.2163
  985YOPC   D3B14247   7.048  14.755   7.849 -0.0018 -0.0407 -0.1582
  985YOPC   C4B14248   7.283  14.562   8.152 -0.0003  0.2848 -0.2562
  986YOPC   NC314249  10.972   1.148   5.558  0.0089 -0.0432 -0.0914
  986YOPC   PO414250  11.185   0.920   5.934  0.1048  0.0474  0.0820
  986YOPC   GL114251  11.162   0.838   6.375  0.1285  0.0268  0.1246
  986YOPC   GL214252  10.897   0.781   6.362  0.2466 -0.1317 -0.0840
  986YOPC   C1A14253  11.395   0.729   6.754  0.2407 -0.1382  0.2825
  986YOPC   D2A14254  11.309   0.589   7.225  0.1226 -0.0417 -0.3038
  986YOPC   C3A14255  11.586   0.739   7.527 -0.0592  0.1089  0.0217
  986YOPC   C4A14256  11.735   0.867   7.824 -0.2148  0.3342 -0.0651
  986YOPC   C1B14257  10.868   1.100   6.625  0.2120  0.5637 -0.1002
  986YOPC   C2B14258  10.705   1.311   7.072  0.1129  0.0584  0.1268
  986YOPC   D3B14259  10.856   1.323   7.479 -0.1453 -0.1652  0.3128
  986YOPC   C4B14260  11.040   1.462   7.986  0.0141  0.1450  0.2716
  987YOPC   NC314261   4.204   4.745   5.903  0.0074 -0.1359 -0.0323
  987YOPC   PO414262   4.577   4.702   6.050  0.2159  0.1699 -0.0251
  987YOPC   GL114263   4.366   4.879   6.444 -0.4905  0.1903  0.0535
  987YOPC   GL214264   4.208   5.126   6.321  0.0027  0.0121 -0.0088
  987YOPC   C1A14265   4.439   4.833   6.914 -0.0664 -0.0838  0.2962
  987YOPC   D2A14266   4.593   4.558   7.265  0.3254  0.0584 -0.1640
  987YOPC   C3A14267   4.180   4.608   7.430  0.1795  0.4602 -0.1547
  987YOPC   C4A14268   3.922   5.004   7.555  0.0105  0.3990  0.0601
  987YOPC   C1B14269   3.918   5.117   6.650 -0.1697  0.1298 -0.0963
  987YOPC   C2B14270   3.647   5.337   6.890 -0.1450 -0.1174  0.0730
  987YOPC   D3B14271   3.532   5.134   7.262  0.1366 -0.0850 -0.2640
  987YOPC   C4B14272   3.270   4.930   7.168 -0.1814  0.1175  0.2679
  988YOPC   NC314273   3.301   8.919   5.476 -0.0844  0.1225  0.2557
  988YOPC   PO414274   3.095   8.701   5.760 -0.1376  0.0580  0.0850
  988YOPC   GL114275   3.152   8.571   6.171 -0.3123  0.1532  0.2155
  988YOPC   GL214276   2.928   8.750   6.321  0.1344 -0.0972 -0.1231
  988YOPC   C1A14277   3.432   8.787   6.461 -0.1028  0.1829  0.3611
  988YOPC   D2A14278   3.249   8.824   6.846  0.0022  0.0071 -0.1242
  988YOPC   C3A14279   3.568   8.793   7.171  0.0411  0.3161  0.1834
  988YOPC   C4A14280   3.937   8.731   7.485  0.2585 -0.2586  0.2008
  988YOPC   C1B14281   2.765   8.505   6.725 -0.1905 -0.4104  0.3235
  988YOPC   C2B14282   2.706   8.492   7.176 -0.0951 -0.3916  0.3417
  988YOPC   D3B14283   2.456   8.594   7.447 -0.1540  0.0280  0.1652
  988YOPC   C4B14284   1.988   8.658   7.452  0.0205 -0.0445 -0.1686
  989YOPC   NC314285   8.858   1.616   5.598 -0.3815  0.1258 -0.3931
  989YOPC   PO414286   8.617   1.786   5.954  0.0809  0.1239  0.0870
  989YOPC   GL114287   8.362   1.764   6.329  0.0015 -0.1430 -0.1357
  989YOPC   GL214288   8.528   1.511   6.479 -0.0361  0.3807  0.1077
  989YOPC   C1A14289   8.409   1.906   6.796  0.2084 -0.0691 -0.1076
  989YOPC   D2A14290   8.410   1.920   7.279 -0.2304 -0.2384  0.0801
  989YOPC   C3A14291   8.831   2.204   7.381  0.1845  0.0504  0.1712
  989YOPC   C4A14292   8.980   2.555   7.622  0.1490  0.2598 -0.2043
  989YOPC   C1B14293   8.825   1.439   6.725  0.2840  0.0825  0.0254
  989YOPC   C2B14294   8.607   1.342   7.187 -0.1495  0.1939  0.0833
  989YOPC   D3B14295   8.776   1.602   7.459  0.2296 -0.2090 -0.0950
  989YOPC   C4B14296   8.627   1.931   7.714 -0.0861  0.1227 -0.0991
  990YOPC   NC314297   3.013  12.747   5.707  0.3152  0.1346 -0.0839
  990YOPC   PO414298   2.863  12.296   5.867  0.0463 -0.0489  0.0760
  990YOPC   GL114299   2.605  12.278   6.234  0.3826 -0.0265  0.3167
  990YOPC   GL214300   2.263  12.141   6.308  0.0594 -0.1097  0.1188
  990YOPC   C1A14301   2.625  12.327   6.773 -0.1502  0.1730 -0.2021
  990YOPC   D2A14302   2.383  12.592   7.194 -0.0082  0.1781  0.1484
  990YOPC   C3A14303   2.683  12.695   7.533  0.0394 -0.1413  0.1447
  990YOPC   C4A14304   2.708  13.115   7.596  0.0669 -0.1314  0.1247
  990YOPC   C1B14305   2.130  12.268   6.728  0.0430 -0.1268 -0.2092
  990YOPC   C2B14306   1.900  12.304   7.126 -0.1756  0.0516  0.1516
  990YOPC   D3B14307   2.052  12.512   7.552  0.0730  0.1700  0.0942
  990YOPC   C4B14308   2.272  12.807   7.781  0.1321  0.0275 -0.0038
  991YOPC   NC314309   3.510  14.617   5.374 -0.0613  0.1294  0.0590
  991YOPC   PO414310   3.921  14.887   5.513 -0.1836  0.0195  0.1866
  991YOPC   GL114311   3.922  15.023   5.886 -0.1627 -0.0869  0.0583
  991YOPC   GL214312   3.830  14.723   6.010  0.0371  0.1440 -0.0912
  991YOPC   C1A14313   3.937  15.365   6.108 -0.1339 -0.3520 -0.1018
  991YOPC   D2A14314   4.264  15.543   6.352 -0.1970  0.0131  0.0560
  991YOPC   C3A14315   4.401  15.937   6.237 -0.1918 -0.1060 -0.0959
  991YOPC   C4A14316   4.780  16.254   6.275 -0.0004 -0.0782  0.2867
  991YOPC   C1B14317   4.012  14.717   6.358 -0.1318  0.0885  0.2690
  991YOPC   C2B14318   3.944  14.655   6.709  0.0877  0.1084 -0.0941
  991YOPC   D3B14319   4.209  14.889   6.915  0.0317 -0.1475 -0.0012
  991YOPC   C4B14320   4.505  14.882   7.269 -0.0854 -0.2854  0.5011
  992YOPC   NC314321  10.009   9.543   5.932  0.0423 -0.1753  0.3006
  992YOPC   PO414322   9.970   9.978   5.968 -0.0620 -0.1984 -0.2003
  992YOPC   GL114323   9.964   9.706   6.385 -0.1080  0.0035 -0.1305
  992YOPC   GL214324   9.930  10.139   6.470  0.0658 -0.1724 -0.1656
  992YOPC   C1A14325  10.060   9.852   6.814  0.1902  0.0612  0.2374
  992YOPC   D2A14326   9.836  10.004   7.177 -0.2995 -0.0250 -0.0950
  992YOPC   C3A14327   9.507   9.746   7.358  0.2582 -0.0368 -0.2052
  992YOPC   C4A14328   9.087   9.629   7.060 -0.1069 -0.5071  0.0814
  992YOPC   C1B14329   9.673  10.376   6.801  0.0176  0.2144  0.1092
  992YOPC   C2B14330   9.720  10.525   7.246  0.0506 -0.3303 -0.1580
  992YOPC   D3B14331   9.502  10.182   7.530  0.2210 -0.3487  0.0118
  992YOPC   C4B14332   9.476   9.856   7.860  0.0372 -0.0009  0.1861
  993YOPC   NC314333   7.081   5.879   4.951  0.0265  0.3978 -0.1666
  993YOPC   PO414334   7.166   5.865   5.437  0.0950  0.1568 -0.2400
  993YOPC   GL114335   7.233   5.657   5.878  0.1892  0.1407 -0.1338
  993YOPC   GL214336   6.960   5.953   6.047  0.2195  0.1718  0.0560
  993YOPC   C1A14337   7.219   5.582   6.330  0.2560 -0.0100  0.1347
  993YOPC   D2A14338   7.288   5.437   6.699  0.0293  0.1686  0.1263
  993YOPC   C3A14339   7.598   5.285   6.901 -0.1375 -0.2550  0.3293
  993YOPC   C4A14340   7.852   5.014   7.182 -0.2017 -0.4501 -0.1848
  993YOPC   C1B14341   6.973   6.020   6.448 -0.1754 -0.0542 -0.0231
  993YOPC   C2B14342   7.016   5.962   6.847  0.2845 -0.1253  0.1327
  993YOPC   D3B14343   6.629   5.995   6.980  0.1800  0.0724  0.3140
  993YOPC   C4B14344   6.504   6.163   7.432 -0.3263 -0.0276 -0.0611
  994YOPC   NC314345  17.991   0.822   4.969 -0.0486  0.0703  0.4055
  994YOPC   PO414346  18.241   0.948   5.432 -0.2026  0.2235  0.2135
  994YOPC   GL114347  17.906   0.814   5.804 -0.0610 -0.0862 -0.1072
  994YOPC   GL214348  17.569   0.725   5.936  0.5496 -0.2301  0.1817
  994YOPC   C1A14349  17.938   0.781   6.224  0.1810  0.0814 -0.0784
  994YOPC   D2A14350  17.657   0.696   6.559 -0.1823  0.3978 -0.2835
  994YOPC   C3A14351  17.857   0.880   7.027 -0.1927  0.3143 -0.0722
  994YOPC   C4A14352  17.842   1.129   7.370  0.1281 -0.0306 -0.0812
  994YOPC   C1B14353  17.586   1.127   6.233 -0.0157  0.0578  0.0516
  994YOPC   C2B14354  17.841   1.540   6.394  0.3612 -0.1166  0.0981
  994YOPC   D3B14355  18.114   1.797   6.260  0.3210 -0.2059 -0.1408
  994YOPC   C4B14356  18.282   2.154   6.380  0.0849 -0.1156 -0.4445
  995YOPC   NC314357   8.093   7.447   5.260  0.0923  0.0796  0.2467
  995YOPC   PO414358   7.957   7.525   5.749  0.1549 -0.1359 -0.1849
  995YOPC   GL114359   7.709   7.489   6.150 -0.2006 -0.1144  0.0899
  995YOPC   GL214360   7.827   7.226   6.333 -0.1837 -0.0148  0.3426
  995YOPC   C1A14361   7.426   7.518   6.407 -0.0451  0.0037 -0.1182
  995YOPC   D2A14362   7.168   7.413   6.867  0.1077 -0.1114 -0.0997
  995YOPC   C3A14363   6.998   7.671   7.100  0.0617 -0.2046  0.1465
  995YOPC   C4A14364   7.109   7.857   7.489 -0.2642  0.2046  0.0049
  995YOPC   C1B14365   7.654   7.000   6.560  0.2046  0.1039 -0.1153
  995YOPC   C2B14366   7.469   6.920   6.880 -0.2395 -0.3347  0.0551
  995YOPC   D3B14367   7.352   7.106   7.211  0.0707  0.2293 -0.1038
  995YOPC   C4B14368   7.388   7.455   7.341  0.2352 -0.2560 -0.0664
  996YOPC   NC314369  11.134  12.851   5.749  0.2792 -0.4334  0.1601
  996YOPC   PO414370  11.078  12.433   5.741 -0.2472  0.1288  0.2023
  996YOPC   GL114371  11.136  12.263   6.124  0.0739  0.2714  0.0018
  996YOPC   GL214372  11.228  12.413   6.441 -0.3871  0.0870 -0.3702
  996YOPC   C1A14373  10.964  12.040   6.556 -0.1917 -0.1004  0.1761
  996YOPC   D2A14374  11.270  11.912   6.964 -0.0434  0.2041  0.1688
  996YOPC   C3A14375  11.318  11.477   7.077 -0.1214 -0.0815  0.0111
  996YOPC   C4A14376  11.118  11.201   6.736 -0.0981 -0.0698 -0.1184
  996YOPC   C1B14377  11.506  12.324   6.771  0.2441  0.0304 -0.0008
  996YOPC   C2B14378  11.410  12.370   7.236 -0.2923  0.0653  0.1186
  996YOPC   D3B14379  11.177  12.306   7.618  0.0539 -0.2041 -0.2242
  996YOPC   C4B14380  11.009  12.132   8.115  0.2545 -0.0524 -0.1576
  997YOPC   NC314381   6.223   3.629   5.630 -0.2390 -0.3313  0.0991
  997YOPC   PO414382   5.950   3.934   5.716  0.1383 -0.0218 -0.1736
  997YOPC   GL114383   5.835   3.595   6.079  0.0988  0.1800  0.2832
  997YOPC   GL214384   6.252   3.446   6.122  0.0291  0.0345  0.0644
  997YOPC   C1A14385   5.862   3.539   6.627 -0.0109 -0.1287 -0.0447
  997YOPC   D2A14386   5.557   3.494   6.911 -0.0249 -0.3069 -0.0977
  997YOPC   C3A14387   5.726   3.457   7.401 -0.1764 -0.0687 -0.1741
  997YOPC   C4A14388   5.549   3.576   7.741 -0.0057 -0.0710  0.1117
  997YOPC   C1B14389   6.256   3.751   6.447  0.1431  0.1316 -0.1634
  997YOPC   C2B14390   6.350   3.799   6.887 -0.1784 -0.2239 -0.3613
  997YOPC   D3B14391   5.922   3.870   7.033  0.0537  0.0542 -0.0824
  997YOPC   C4B14392   5.525   3.988   7.313 -0.1371  0.3873  0.0556
  998YOPC   NC314393  12.911  11.132   5.849  0.1060 -0.1816  0.0514
  998YOPC   PO414394  12.769  11.440   6.100  0.0723 -0.1420 -0.2580
  998YOPC   GL114395  12.707  11.198   6.513 -0.1235  0.0567  0.0219
  998YOPC   GL214396  12.358  11.040   6.686 -0.0960  0.5296 -0.0622
  998YOPC   C1A14397  12.936  10.886   6.788  0.2520  0.1387 -0.0129
  998YOPC   D2A14398  12.976  10.715   7.229 -0.2298 -0.1678  0.2375
  998YOPC   C3A14399  13.172  10.980   7.440  0.0922  0.2103  0.3699
  998YOPC   C4A14400  13.311  11.442   7.463  0.1992 -0.1486  0.0199
  998YOPC   C1B14401  12.291  10.981   7.063 -0.1744 -0.3067 -0.0683
  998YOPC   C2B14402  12.160  10.974   7.490  0.0732  0.0475  0.2742
  998YOPC   D3B14403  12.141  10.527   7.764 -0.1843 -0.2006 -0.1948
  998YOPC   C4B14404  11.949  10.196   8.025 -0.2674 -0.0921  0.0642
  999YOPC   NC314405  15.699   4.932   5.627 -0.0238 -0.1695 -0.3555
  999YOPC   PO414406  16.051   5.261   5.769 -0.3407 -0.0003 -0.0272
  999YOPC   GL114407  15.953   5.267   6.207  0.6000  0.2125 -0.1116
  999YOPC   GL214408  16.258   5.134   6.450  0.0737 -0.0279  0.0432
  999YOPC   C1A14409  15.692   4.998   6.504  0.1949  0.1570 -0.1573
  999YOPC   D2A14410  15.574   4.615   6.609  0.0031  0.0047 -0.0265
  999YOPC   C3A14411  15.201   4.653   6.920 -0.1941  0.1633  0.0707
  999YOPC   C4A14412  15.159   4.784   7.369 -0.1355  0.1693  0.1919
  999YOPC   C1B14413  16.006   5.212   6.801 -0.0834  0.0796 -0.1650
  999YOPC   C2B14414  15.675   4.964   7.113 -0.0950 -0.0704 -0.1664
  999YOPC   D3B14415  15.537   5.059   7.577  0.0861 -0.1277  0.0491
  999YOPC   C4B14416  15.459   5.372   7.906 -0.0168  0.1997 -0.1112
 1000YOPC   NC314417   8.182  10.017   5.879 -0.0520  0.0391 -0.0783
 1000YOPC   PO414418   8.296  10.382   6.056  0.3484 -0.0016  0.0066
 1000YOPC   GL114419   8.364  10.677   6.383 -0.3620 -0.3127 -0.0002
 1000YOPC   GL214420   8.724  10.813   6.380  0.1311  0.2397 -0.0517
 1000YOPC   C1A14421   8.341  10.621   6.734  0.2539  0.0874  0.0449
 1000YOPC   D2A14422   8.375  10.626   7.271 -0.1826  0.2499  0.0510
 1000YOPC   C3A14423   8.552  10.327   7.512  0.2065  0.2348 -0.0377
 1000YOPC   C4A14424   8.496   9.938   7.845 -0.2247 -0.4008  0.0319
 1000YOPC   C1B14425   8.967  10.721   6.644 -0.3016 -0.3285  0.2332
 1000YOPC   C2B14426   9.248  10.613   6.945  0.1760 -0.2517 -0.1950
 1000YOPC   D3B14427   9.309  10.189   7.122  0.2293  0.0056  0.0720
 1000YOPC   C4B14428   9.010  10.089   7.394  0.3478  0.1150  0.2555
 1001YOPC   NC314429   1.021  12.266   5.806  0.2563 -0.1951 -0.2123
 1001YOPC   PO414430   1.202  12.667   5.927  0.0904 -0.2771 -0.1094
 1001YOPC   GL114431   1.002  12.789   6.431 -0.2198 -0.1745  0.0129
 1001YOPC   GL214432   0.669  12.805   6.523  0.0740 -0.0857 -0.0455
 1001YOPC   C1A14433   1.110  12.843   6.872  0.2839  0.1309 -0.0702
 1001YOPC   D2A14434   1.258  12.890   7.251  0.2721  0.0112  0.5247
 1001YOPC   C3A14435   1.653  12.798   7.088 -0.2075  0.0726 -0.0230
 1001YOPC   C4A14436   1.928  12.997   7.164  0.0155  0.1952 -0.2720
 1001YOPC   C1B14437   0.763  13.198   6.749 -0.0070  0.0517 -0.0388
 1001YOPC   C2B14438   0.957  13.333   7.040  0.1634 -0.0325  0.0320
 1001YOPC   D3B14439   0.737  13.175   7.422  0.5499  0.1586 -0.2501
 1001YOPC   C4B14440   0.724  13.041   7.847 -0.0963 -0.1065  0.1632
 1002YOPC   NC314441   3.110   5.460   5.612  0.0014  0.0118  0.1166
 1002YOPC   PO414442   3.448   5.222   5.668  0.1609 -0.1053  0.1882
 1002YOPC   GL114443   3.207   5.031   6.005  0.2564 -0.1630 -0.4988
 1002YOPC   GL214444   3.094   5.376   6.091  0.3025 -0.2270  0.2332
 1002YOPC   C1A14445   2.944   5.039   6.389 -0.1732  0.1373 -0.0397
 1002YOPC   D2A14446   3.078   5.179   6.810 -0.1601 -0.1584  0.0106
 1002YOPC   C3A14447   2.831   5.115   7.189  0.1174  0.0301 -0.0270
 1002YOPC   C4A14448   2.555   4.856   7.341 -0.0402 -0.1781 -0.0175
 1002YOPC   C1B14449   3.049   5.549   6.475  0.2853  0.1224  0.0489
 1002YOPC   C2B14450   3.039   5.677   6.858 -0.3305  0.0708  0.0630
 1002YOPC   D3B14451   3.203   5.534   7.193  0.1737 -0.0922  0.0892
 1002YOPC   C4B14452   3.189   5.351   7.560 -0.0942  0.0210  0.4074
 1003YOPC   NC314453   4.775   6.053   5.878  0.1360  0.3798  0.0935
 1003YOPC   PO414454   4.955   5.679   5.702 -0.0642 -0.2835 -0.0218
 1003YOPC   GL114455   4.922   5.484   6.032 -0.1205 -0.0397 -0.0590
 1003YOPC   GL214456   4.737   5.238   6.239  0.0154  0.0071 -0.0977
 1003YOPC   C1A14457   5.168   5.529   6.498 -0.0833  0.0790  0.3421
 1003YOPC   D2A14458   5.521   5.718   6.670 -0.0630  0.0894 -0.0677
 1003YOPC   C3A14459   5.402   5.736   7.018 -0.0529 -0.2541 -0.1795
 1003YOPC   C4A14460   5.389   5.674   7.403 -0.1066 -0.0507  0.4202
 1003YOPC   C1B14461   4.926   5.100   6.627  0.1169 -0.0452  0.1931
 1003YOPC   C2B14462   5.104   5.317   6.981 -0.1074  0.0499 -0.0712
 1003YOPC   D3B14463   4.976   5.457   7.443  0.0001 -0.5419 -0.0878
 1003YOPC   C4B14464   5.143   5.663   7.840  0.4548 -0.1999  0.3363
 1004YOPC   NC314465   0.578   6.754   5.448 -0.1701  0.3665  0.2388
 1004YOPC   PO414466   0.107   6.564   5.569 -0.1349  0.0606  0.0112
 1004YOPC   GL114467   0.001   6.402   6.044  0.1417 -0.1609  0.0288
 1004YOPC   GL214468  -0.001   6.635   6.179 -0.1400 -0.0490  0.0339
 1004YOPC   C1A14469  -0.197   6.314   6.492 -0.0104 -0.1176 -0.2841
 1004YOPC   D2A14470  -0.279   6.602   6.864 -0.1469 -0.4711  0.0125
 1004YOPC   C3A14471  -0.102   6.848   7.172  0.3286 -0.0191 -0.0793
 1004YOPC   C4A14472   0.340   7.025   7.201  0.0460 -0.2787 -0.1265
 1004YOPC   C1B14473   0.172   6.627   6.563  0.0412  0.3191  0.1911
 1004YOPC   C2B14474   0.395   6.648   6.857 -0.0484 -0.0478 -0.1637
 1004YOPC   D3B14475   0.615   6.251   6.864 -0.1426 -0.0311 -0.1980
 1004YOPC   C4B14476   0.553   5.822   7.026  0.1915  0.0155  0.0046
 1005YOPC   NC314477  14.681   6.769   5.607  0.0703  0.0372 -0.1994
 1005YOPC   PO414478  14.871   7.187   5.907 -0.1928 -0.2856  0.2304
 1005YOPC   GL114479  14.876   7.024   6.294 -0.1143  0.1041  0.2503
 1005YOPC   GL214480  15.076   7.195   6.364  0.1770  0.2639  0.0134
 1005YOPC   C1A14481  14.689   6.563   6.419  0.0840  0.0441  0.5945
 1005YOPC   D2A14482  14.460   6.286   6.785 -0.0329 -0.0252 -0.0067
 1005YOPC   C3A14483  14.214   6.592   6.991 -0.0376  0.0521 -0.1600
 1005YOPC   C4A14484  14.051   6.756   7.426 -0.0095  0.0071 -0.2145
 1005YOPC   C1B14485  15.233   6.941   6.598 -0.1400  0.1266  0.1487
 1005YOPC   C2B14486  15.539   6.948   6.786  0.2694  0.0331  0.4406
 1005YOPC   D3B14487  15.686   7.048   7.208 -0.0070 -0.1465 -0.2194
 1005YOPC   C4B14488  15.829   6.841   7.479 -0.0791 -0.1704  0.1187
 1006YOPC   NC314489  11.798   6.412   5.805 -0.2496 -0.0778  0.0983
 1006YOPC   PO414490  12.149   6.678   5.862 -0.0878 -0.0102  0.0142
 1006YOPC   GL114491  12.076   6.719   6.262  0.1492  0.0114  0.2509
 1006YOPC   GL214492  12.204   6.680   6.511  0.1895  0.1419  0.3890
 1006YOPC   C1A14493  12.081   7.133   6.590 -0.1969  0.2309  0.1968
 1006YOPC   D2A14494  12.090   7.177   7.040 -0.1055  0.1326  0.0508
 1006YOPC   C3A14495  11.845   7.370   7.370  0.1851 -0.2627  0.1073
 1006YOPC   C4A14496  11.867   7.319   7.809  0.0281  0.2068  0.1438
 1006YOPC   C1B14497  12.386   6.588   6.919 -0.0579  0.1250 -0.0295
 1006YOPC   C2B14498  12.647   6.465   7.290 -0.0153 -0.1700 -0.1953
 1006YOPC   D3B14499  12.991   6.614   7.598 -0.1642  0.1388 -0.1737
 1006YOPC   C4B14500  12.913   6.584   8.075  0.0523 -0.0960  0.3118
 1007YOPC   NC314501   3.690  12.486   5.848  0.1299  0.1371 -0.1900
 1007YOPC   PO414502   3.975  12.221   6.087  0.0199  0.1479  0.1190
 1007YOPC   GL114503   3.886  11.912   6.323 -0.2335  0.0214  0.1240
 1007YOPC   GL214504   4.001  11.704   6.441 -0.1278  0.1379 -0.2204
 1007YOPC   C1A14505   3.710  11.872   6.771 -0.1201 -0.0220  0.0248
 1007YOPC   D2A14506   3.616  11.600   7.217  0.4014  0.4174  0.4392
 1007YOPC   C3A14507   3.847  11.492   7.486 -0.0503 -0.3461  0.1493
 1007YOPC   C4A14508   3.876  11.522   7.871 -0.1312  0.2604 -0.1366
 1007YOPC   C1B14509   4.224  11.610   6.787  0.1683  0.0249 -0.0035
 1007YOPC   C2B14510   4.136  11.621   7.121  0.1666 -0.0308 -0.1554
 1007YOPC   D3B14511   4.322  11.786   7.599 -0.0294  0.1337 -0.0289
 1007YOPC   C4B14512   4.603  12.122   7.774  0.2572  0.3918  0.1251
 1008YOPC   NC314513   7.321   3.022   5.630 -0.0186  0.2352 -0.0349
 1008YOPC   PO414514   7.499   2.844   6.008 -0.0271 -0.1849 -0.0168
 1008YOPC   GL114515   7.339   3.091   6.420  0.2629  0.4396  0.0024
 1008YOPC   GL214516   7.380   3.414   6.294  0.0243 -0.0033 -0.2721
 1008YOPC   C1A14517   7.615   3.147   6.844  0.4095 -0.0380  0.0967
 1008YOPC   D2A14518   7.797   3.314   7.195 -0.0211 -0.1158 -0.3243
 1008YOPC   C3A14519   7.739   3.650   7.472  0.2376  0.1982  0.1342
 1008YOPC   C4A14520   7.589   4.026   7.319 -0.0645  0.3373  0.5092
 1008YOPC   C1B14521   7.098   3.472   6.706 -0.0618  0.0716 -0.1394
 1008YOPC   C2B14522   6.808   3.564   7.039  0.1655  0.4867 -0.2128
 1008YOPC   D3B14523   6.571   3.390   7.409  0.0788  0.1535  0.1590
 1008YOPC   C4B14524   6.381   3.437   7.660 -0.0960 -0.0599  0.0088
 1009YOPC   NC314525  15.315  14.350   5.593  0.0462  0.0017 -0.0330
 1009YOPC   PO414526  15.035  14.567   5.373 -0.1456  0.0797  0.1136
 1009YOPC   GL114527  15.025  14.705   5.872 -0.2212  0.0030 -0.1176
 1009YOPC   GL214528  14.768  14.730   6.094 -0.0767 -0.0739 -0.0586
 1009YOPC   C1A14529  15.207  14.828   6.292 -0.4955  0.2661  0.5178
 1009YOPC   D2A14530  15.058  14.841   6.682 -0.0357 -0.1947  0.2450
 1009YOPC   C3A14531  15.194  14.774   7.089 -0.2739  0.0354  0.1026
 1009YOPC   C4A14532  15.619  14.882   7.313 -0.1984  0.0443  0.3757
 1009YOPC   C1B14533  14.534  14.753   6.564 -0.1357  0.0188  0.0154
 1009YOPC   C2B14534  14.464  14.825   6.959 -0.2382 -0.0453 -0.0670
 1009YOPC   D3B14535  14.559  14.813   7.268 -0.0650  0.2585 -0.0759
 1009YOPC   C4B14536  14.395  14.807   7.685 -0.0161 -0.3017 -0.0520
 1010YOPC   NC314537   8.448  14.127   5.843  0.0914  0.3279 -0.0988
 1010YOPC   PO414538   8.017  14.173   5.847  0.0575 -0.4790  0.0863
 1010YOPC   GL114539   8.156  14.144   6.283 -0.1774  0.1655 -0.1269
 1010YOPC   GL214540   8.289  14.392   6.327 -0.1554  0.2198 -0.2047
 1010YOPC   C1A14541   7.933  14.136   6.601 -0.1280 -0.0122 -0.0061
 1010YOPC   D2A14542   7.746  14.193   6.950 -0.0703 -0.1893  0.0396
 1010YOPC   C3A14543   8.017  14.022   7.445  0.1556 -0.1441 -0.3324
 1010YOPC   C4A14544   8.371  13.724   7.625  0.4077  0.2156  0.0577
 1010YOPC   C1B14545   8.583  14.255   6.662 -0.4710 -0.1175  0.2478
 1010YOPC   C2B14546   8.854  13.871   6.793  0.0514 -0.1192 -0.0884
 1010YOPC   D3B14547   8.804  13.779   7.236 -0.4021  0.2490 -0.0495
 1010YOPC   C4B14548   8.781  14.012   7.581 -0.3789  0.2493 -0.1879
 1011YOPC   NC314549  15.039  17.515   5.177  0.1015  0.3387  0.1151
 1011YOPC   PO414550  14.615  17.582   5.316 -0.0898  0.3663  0.0313
 1011YOPC   GL114551  14.633  17.643   5.761 -0.0408  0.1384  0.0452
 1011YOPC   GL214552  14.505  17.369   5.975 -0.0191  0.0694 -0.0331
 1011YOPC   C1A14553  14.855  17.852   6.181  0.2931  0.1561 -0.1234
 1011YOPC   D2A14554  15.220  17.627   6.207 -0.0995  0.0223 -0.0174
 1011YOPC   C3A14555  15.214  17.219   6.442  0.0029 -0.0104 -0.3010
 1011YOPC   C4A14556  14.961  16.978   6.622  0.0582  0.0820  0.0794
 1011YOPC   C1B14557  14.211  17.364   6.354  0.1381  0.2388  0.0602
 1011YOPC   C2B14558  13.781  17.426   6.451 -0.1556  0.1449 -0.0567
 1011YOPC   D3B14559  13.706  17.646   6.943 -0.0174 -0.0816 -0.1506
 1011YOPC   C4B14560  14.003  17.368   7.251 -0.1689 -0.1198  0.3241
 1012YOPC   NC314561  16.105   7.339   5.618  0.2217  0.0041 -0.1384
 1012YOPC   PO414562  16.412   7.169   5.767  0.3892 -0.3126 -0.0591
 1012YOPC   GL114563  16.351   7.209   6.212  0.1428  0.2643  0.0475
 1012YOPC   GL214564  16.665   7.043   6.238  0.2373  0.0991 -0.0223
 1012YOPC   C1A14565  16.273   6.875   6.431 -0.0062 -0.2066 -0.0753
 1012YOPC   D2A14566  16.446   6.812   6.806 -0.1311  0.0061  0.0606
 1012YOPC   C3A14567  16.330   6.896   7.213 -0.0443 -0.1463  0.1975
 1012YOPC   C4A14568  16.639   6.956   7.461 -0.1593  0.2945 -0.1104
 1012YOPC   C1B14569  17.134   7.279   6.366 -0.0275  0.0628 -0.1137
 1012YOPC   C2B14570  17.249   7.402   6.836  0.0350 -0.1966  0.0396
 1012YOPC   D3B14571  17.032   7.611   7.154 -0.0552  0.0289 -0.0467
 1012YOPC   C4B14572  16.937   7.703   7.526  0.1128 -0.1740  0.0761
 1013YOPC   NC314573  17.638   3.210   5.535 -0.0054  0.1579  0.1885
 1013YOPC   PO414574  17.882   3.649   5.474 -0.1362  0.0011 -0.3963
 1013YOPC   GL114575  17.990   3.595   5.857 -0.1164 -0.0423  0.1253
 1013YOPC   GL214576  17.811   3.387   6.047 -0.2413  0.1905 -0.3354
 1013YOPC   C1A14577  17.868   3.808   6.293 -0.0254  0.1785 -0.1936
 1013YOPC   D2A14578  17.893   4.025   6.609 -0.3004 -0.1695 -0.1953
 1013YOPC   C3A14579  17.803   3.953   7.035 -0.1609  0.0714 -0.1105
 1013YOPC   C4A14580  17.969   3.634   7.298 -0.2062  0.0315  0.0452
 1013YOPC   C1B14581  17.578   3.282   6.470  0.0357  0.0127  0.2482
 1013YOPC   C2B14582  17.239   3.317   6.666 -0.0967 -0.0075  0.0674
 1013YOPC   D3B14583  17.327   2.999   6.842 -0.0472  0.1359  0.1828
 1013YOPC   C4B14584  17.237   2.669   7.262  0.0502  0.0672 -0.2058
 1014YOPC   NC314585   5.061  11.612   6.127 -0.2410 -0.1551  0.1282
 1014YOPC   PO414586   4.887  12.117   6.071 -0.0443 -0.0982 -0.2189
 1014YOPC   GL114587   4.897  11.996   6.481 -0.2670  0.2086 -0.0943
 1014YOPC   GL214588   5.218  11.923   6.493 -0.0295  0.1663 -0.2036
 1014YOPC   C1A14589   4.861  12.212   6.776 -0.1064  0.0404 -0.1079
 1014YOPC   D2A14590   5.133  12.383   7.126  0.5849 -0.0336 -0.0973
 1014YOPC   C3A14591   5.338  12.176   7.297  0.1401 -0.2666 -0.3399
 1014YOPC   C4A14592   5.455  12.223   7.723  0.2873  0.0236  0.1577
 1014YOPC   C1B14593   5.352  12.032   6.790  0.2888 -0.0199 -0.2425
 1014YOPC   C2B14594   5.549  11.759   7.160  0.4253  0.0970  0.0584
 1014YOPC   D3B14595   5.765  11.944   7.396  0.1699  0.2106  0.2560
 1014YOPC   C4B14596   6.127  11.887   7.641  0.0559 -0.1391  0.0971
 1015YOPC   NC314597   2.973  15.780   5.493 -0.1621  0.2801 -0.0341
 1015YOPC   PO414598   2.678  16.031   5.754 -0.0236 -0.0922 -0.1389
 1015YOPC   GL114599   2.573  15.864   6.191 -0.2531  0.3611  0.2152
 1015YOPC   GL214600   2.502  15.501   6.241 -0.1407 -0.1647 -0.2456
 1015YOPC   C1A14601   2.734  15.980   6.574 -0.1829  0.1536 -0.1742
 1015YOPC   D2A14602   2.885  15.929   7.004 -0.2903 -0.0365  0.1076
 1015YOPC   C3A14603   2.811  15.683   7.293 -0.0772  0.0480  0.0136
 1015YOPC   C4A14604   2.311  15.585   7.407 -0.2365  0.1455 -0.1567
 1015YOPC   C1B14605   2.182  15.819   6.476 -0.0954  0.0788 -0.0286
 1015YOPC   C2B14606   1.948  16.174   6.625  0.0554  0.0776  0.0666
 1015YOPC   D3B14607   1.712  16.495   6.567 -0.0846  0.3206  0.1823
 1015YOPC   C4B14608   1.672  16.835   6.318  0.0620 -0.1235 -0.1612
 1016YOPC   NC314609  11.694  16.861   5.956 -0.0830 -0.0237  0.0294
 1016YOPC   PO414610  11.847  17.217   5.786  0.1498  0.1051  0.0848
 1016YOPC   GL114611  11.626  17.420   6.139  0.1423  0.1112 -0.0123
 1016YOPC   GL214612  11.396  17.568   6.014  0.0327  0.2616 -0.0382
 1016YOPC   C1A14613  11.808  17.485   6.497 -0.0454  0.2272  0.0253
 1016YOPC   D2A14614  11.810  17.259   6.903  0.2517 -0.1854  0.0338
 1016YOPC   C3A14615  12.142  17.222   7.227  0.0876  0.1964 -0.3147
 1016YOPC   C4A14616  12.283  17.288   7.742 -0.0732 -0.0187 -0.2890
 1016YOPC   C1B14617  11.223  17.465   6.430 -0.0494  0.2423 -0.1640
 1016YOPC   C2B14618  11.337  17.148   6.712  0.1416 -0.2658  0.1234
 1016YOPC   D3B14619  11.518  16.666   6.911  0.1467 -0.0787  0.2362
 1016YOPC   C4B14620  11.540  16.497   7.391 -0.2018 -0.1790 -0.0897
 1017YOPC   NC314621   4.081   3.863   5.663 -0.1264  0.0394  0.3378
 1017YOPC   PO414622   4.554   3.865   5.545  0.1377  0.4672  0.4199
 1017YOPC   GL114623   4.513   3.831   5.942 -0.1271 -0.1920  0.0397
 1017YOPC   GL214624   4.315   3.564   6.066  0.0961  0.1933 -0.1561
 1017YOPC   C1A14625   4.558   3.982   6.270 -0.2144  0.0843 -0.1873
 1017YOPC   D2A14626   4.661   3.874   6.587  0.0922 -0.0770 -0.0329
 1017YOPC   C3A14627   5.045   4.128   6.727 -0.0762 -0.2364 -0.0697
 1017YOPC   C4A14628   5.417   3.990   6.817  0.0786  0.1059 -0.5780
 1017YOPC   C1B14629   4.474   3.392   6.402 -0.3960 -0.3066 -0.0329
 1017YOPC   C2B14630   4.700   3.027   6.357 -0.2116 -0.1678 -0.2621
 1017YOPC   D3B14631   5.236   3.057   6.463 -0.3305  0.0684 -0.1576
 1017YOPC   C4B14632   5.631   3.180   6.420 -0.1610 -0.0158 -0.1200
 1018YOPC   NC314633  14.835  10.677   5.453 -0.1069 -0.0809 -0.0238
 1018YOPC   PO414634  14.616  11.026   5.593 -0.2077 -0.0858 -0.1641
 1018YOPC   GL114635  14.704  11.116   5.994  0.0691 -0.0442  0.0479
 1018YOPC   GL214636  14.428  11.189   6.069  0.0468 -0.1834 -0.4724
 1018YOPC   C1A14637  14.691  11.285   6.465 -0.1946 -0.1219 -0.0243
 1018YOPC   D2A14638  14.846  11.343   6.925 -0.0465 -0.0873  0.2828
 1018YOPC   C3A14639  15.141  11.092   7.212  0.0230 -0.1927 -0.2516
 1018YOPC   C4A14640  15.387  11.344   7.523 -0.1229  0.1864  0.1694
 1018YOPC   C1B14641  14.231  11.014   6.434 -0.0997 -0.2935 -0.1916
 1018YOPC   C2B14642  14.318  11.284   6.899 -0.0824 -0.0430  0.2497
 1018YOPC   D3B14643  14.040  11.506   7.018 -0.2814 -0.2104 -0.1573
 1018YOPC   C4B14644  14.061  11.527   7.416  0.2024  0.0490 -0.0740
 1019YOPC   NC314645   4.672  10.398   6.202 -0.1059  0.2487 -0.1214
 1019YOPC   PO414646   5.070  10.071   5.995  0.0690 -0.3436  0.3490
 1019YOPC   GL114647   4.839   9.894   6.334 -0.0164  0.1289 -0.2469
 1019YOPC   GL214648   5.082   9.619   6.430 -0.3020 -0.1017 -0.2093
 1019YOPC   C1A14649   4.685   9.845   6.705  0.4008 -0.0247 -0.2178
 1019YOPC   D2A14650   4.361  10.000   7.006 -0.3518  0.2631  0.0048
 1019YOPC   C3A14651   4.562  10.128   7.398 -0.0186 -0.0523 -0.0652
 1019YOPC   C4A14652   4.873  10.458   7.730 -0.1480 -0.1519  0.0352
 1019YOPC   C1B14653   5.210   9.569   6.850  0.3222 -0.2102 -0.2762
 1019YOPC   C2B14654   5.401   9.687   7.289 -0.0236  0.1314  0.3204
 1019YOPC   D3B14655   5.566   9.398   7.673 -0.1703 -0.0038  0.0043
 1019YOPC   C4B14656   5.657   9.062   7.806 -0.0749  0.1204  0.4251
 1020YOPC   NC314657  18.226   8.852   5.326 -0.2123 -0.1013 -0.2184
 1020YOPC   PO414658  18.122   9.006   5.763 -0.2272  0.1594  0.1500
 1020YOPC   GL114659  18.186   8.928   6.199  0.0770 -0.3112  0.2709
 1020YOPC   GL214660  18.316   8.569   6.192  0.0829  0.1784  0.0981
 1020YOPC   C1A14661  18.067   8.873   6.572 -0.1866  0.0767  0.0586
 1020YOPC   D2A14662  18.217   8.567   6.843  0.1235  0.0413 -0.0116
 1020YOPC   C3A14663  17.922   8.597   7.085  0.3660 -0.0656  0.3773
 1020YOPC   C4A14664  17.483   8.444   7.039  0.5098  0.0144  0.1476
 1020YOPC   C1B14665  18.618   8.802   6.455 -0.0809  0.1132 -0.1908
 1020YOPC   C2B14666  18.951   8.977   6.517  0.0682  0.3160  0.1867
 1020YOPC   D3B14667  19.152   8.779   6.783 -0.0276  0.1834  0.0129
 1020YOPC   C4B14668  19.598   8.819   7.105 -0.0580 -0.1074 -0.1278
 1021YOPC   NC314669  16.179   9.292   6.146 -0.0015 -0.2088 -0.1605
 1021YOPC   PO414670  16.146   9.664   5.916 -0.1324  0.1371  0.1051
 1021YOPC   GL114671  16.152   9.782   6.353 -0.1763  0.2094 -0.0282
 1021YOPC   GL214672  15.851   9.647   6.452  0.0226 -0.0408  0.1425
 1021YOPC   C1A14673  16.143   9.825   6.852 -0.2757  0.0410  0.0424
 1021YOPC   D2A14674  16.401   9.739   7.239  0.0555  0.2042  0.0751
 1021YOPC   C3A14675  16.225   9.502   7.552  0.0746 -0.2358 -0.1745
 1021YOPC   C4A14676  16.247   9.173   7.982 -0.3728  0.0607  0.0591
 1021YOPC   C1B14677  15.672   9.455   6.791 -0.0195 -0.1890 -0.0967
 1021YOPC   C2B14678  15.843   9.512   7.239 -0.2152  0.0584  0.0688
 1021YOPC   D3B14679  15.624   9.355   7.519  0.2956  0.0006 -0.1412
 1021YOPC   C4B14680  15.793   9.199   7.731 -0.1251 -0.2419 -0.0429
 1022YOPC   NC314681   0.156   7.686   5.691 -0.2474  0.0889  0.2751
 1022YOPC   PO414682  -0.187   7.336   5.669  0.2853 -0.2725 -0.1679
 1022YOPC   GL114683  -0.199   7.510   6.049  0.1637  0.0477 -0.1034
 1022YOPC   GL214684  -0.487   7.449   6.178 -0.0829  0.0749  0.0226
 1022YOPC   C1A14685   0.083   7.608   6.396  0.0174 -0.1854  0.0552
 1022YOPC   D2A14686   0.038   7.763   6.686  0.0120 -0.0914  0.2362
 1022YOPC   C3A14687  -0.093   8.119   6.845 -0.3387  0.2529 -0.0094
 1022YOPC   C4A14688   0.213   8.469   6.906 -0.1525 -0.0480 -0.0363
 1022YOPC   C1B14689  -0.635   7.603   6.648 -0.0668  0.0904 -0.2194
 1022YOPC   C2B14690  -0.477   7.718   7.072 -0.1438 -0.1142  0.0017
 1022YOPC   D3B14691  -0.598   7.662   7.440  0.2425  0.0503  0.2296
 1022YOPC   C4B14692  -0.549   7.569   7.901 -0.0330  0.1200 -0.3826
 1023YOPC   NC314693  15.477  12.639   5.806 -0.1513  0.0716  0.0045
 1023YOPC   PO414694  15.536  13.025   5.798 -0.1431  0.0559 -0.0861
 1023YOPC   GL114695  15.482  12.861   6.223 -0.0540 -0.3124 -0.0059
 1023YOPC   GL214696  15.133  12.904   6.143  0.2208  0.0330  0.0939
 1023YOPC   C1A14697  15.412  12.869   6.651  0.0396 -0.1156  0.0933
 1023YOPC   D2A14698  15.149  12.712   6.885 -0.0665 -0.0779  0.1583
 1023YOPC   C3A14699  14.937  12.615   7.163  0.0795  0.2645 -0.0726
 1023YOPC   C4A14700  14.928  12.592   7.555  0.3627 -0.0629 -0.2553
 1023YOPC   C1B14701  15.074  12.551   6.378  0.0742 -0.0088  0.1704
 1023YOPC   C2B14702  14.824  12.291   6.782  0.0660 -0.1255 -0.1547
 1023YOPC   D3B14703  14.460  12.580   6.906 -0.0951 -0.0672 -0.0393
 1023YOPC   C4B14704  14.092  12.863   6.908  0.3308  0.0560  0.0784
 1024YOPC   NC314705  10.111   6.124   6.250  0.2141 -0.2271  0.1775
 1024YOPC   PO414706   9.939   5.731   6.277  0.1805 -0.0065 -0.5155
 1024YOPC   GL114707   9.918   5.872   6.682  0.0704  0.1129  0.1526
 1024YOPC   GL214708   9.700   6.151   6.545 -0.0485 -0.1031 -0.1433
 1024YOPC   C1A14709   9.996   6.120   7.118  0.0709 -0.1697  0.0830
 1024YOPC   D2A14710   9.727   6.303   7.355 -0.1922 -0.2840 -0.0829
 1024YOPC   C3A14711   9.620   6.047   7.697 -0.0442  0.1005  0.0977
 1024YOPC   C4A14712   9.569   6.142   8.115 -0.3751 -0.1918  0.0229
 1024YOPC   C1B14713   9.412   5.906   6.732 -0.0959  0.0943  0.0441
 1024YOPC   C2B14714   8.987   5.904   7.024  0.0711  0.3985  0.0686
 1024YOPC   D3B14715   8.871   5.983   7.368  0.1114  0.0496 -0.1150
 1024YOPC   C4B14716   8.643   6.302   7.537  0.1098  0.0019  0.0882
 1025YOPC   NC314717   5.125   7.009   5.804  0.0031  0.1464  0.2134
 1025YOPC   PO414718   4.953   6.595   5.586  0.2539 -0.0250  0.0212
 1025YOPC   GL114719   4.692   6.632   6.013 -0.0106 -0.2868 -0.1266
 1025YOPC   GL214720   4.384   6.805   6.090 -0.3628 -0.0926 -0.0898
 1025YOPC   C1A14721   4.425   6.383   6.322 -0.1852  0.0052  0.2120
 1025YOPC   D2A14722   4.235   6.079   6.600 -0.0972 -0.2278 -0.1790
 1025YOPC   C3A14723   4.184   6.104   6.997 -0.1775  0.0099 -0.0588
 1025YOPC   C4A14724   4.187   5.968   7.406  0.2548 -0.0443  0.0924
 1025YOPC   C1B14725   4.575   6.809   6.510 -0.0478  0.2370  0.0672
 1025YOPC   C2B14726   4.638   6.401   6.726  0.0589 -0.3537  0.0090
 1025YOPC   D3B14727   4.612   6.248   7.168 -0.2174 -0.0247 -0.1262
 1025YOPC   C4B14728   4.478   6.354   7.597 -0.0634 -0.2806  0.0402
 1026YOPC   NC314729  10.720   9.731   6.047 -0.1341 -0.3899 -0.3508
 1026YOPC   PO414730  10.441   9.511   6.109  0.0482  0.0582  0.0137
 1026YOPC   GL114731  10.433   9.605   6.566  0.2696 -0.2406  0.2207
 1026YOPC   GL214732  10.762   9.708   6.531 -0.2584 -0.2004  0.0865
 1026YOPC   C1A14733  10.501   9.865   7.021 -0.1263  0.0982 -0.0603
 1026YOPC   D2A14734  10.633   9.760   7.398  0.1186  0.1523  0.2520
 1026YOPC   C3A14735  10.481   9.765   7.829  0.0666  0.1703  0.1593
 1026YOPC   C4A14736  10.396  10.069   7.999 -0.2569 -0.1354  0.1905
 1026YOPC   C1B14737  10.669   9.360   6.919 -0.1798 -0.0288  0.0249
 1026YOPC   C2B14738  10.556   9.164   7.297 -0.1539  0.4614 -0.0058
 1026YOPC   D3B14739  10.386   9.300   7.704  0.1982  0.2979  0.0687
 1026YOPC   C4B14740  10.067   9.208   7.935  0.2468 -0.1716 -0.2170
 1027YOPC   NC314741  10.942  10.350   5.479  0.1014  0.4555 -0.0375
 1027YOPC   PO414742  11.055  10.137   5.971  0.1482 -0.1936  0.0760
 1027YOPC   GL114743  11.076  10.081   6.369  0.3194 -0.0152  0.1569
 1027YOPC   GL214744  11.379   9.829   6.401  0.0623 -0.1278 -0.2241
 1027YOPC   C1A14745  11.203  10.093   6.842 -0.3993 -0.1596  0.2995
 1027YOPC   D2A14746  10.873  10.189   7.221  0.1146 -0.1828  0.0601
 1027YOPC   C3A14747  11.017  10.603   7.450  0.4491 -0.0166 -0.0593
 1027YOPC   C4A14748  10.905  10.784   7.929  0.3792  0.0532  0.1418
 1027YOPC   C1B14749  11.464   9.639   6.761 -0.1785 -0.1635 -0.1374
 1027YOPC   C2B14750  11.636   9.454   7.030  0.4904 -0.1622 -0.2329
 1027YOPC   D3B14751  12.023   9.673   7.198 -0.1524  0.1612  0.1876
 1027YOPC   C4B14752  12.378   9.937   7.024  0.0976 -0.0264  0.1047
 1028YOPC   NC314753   1.008  13.765   5.464  0.2209  0.2255 -0.0109
 1028YOPC   PO414754   0.739  13.945   5.662 -0.1623 -0.0379 -0.0783
 1028YOPC   GL114755   1.133  13.979   5.883 -0.1727 -0.2730 -0.3345
 1028YOPC   GL214756   1.103  14.164   6.168  0.1779  0.2425  0.4041
 1028YOPC   C1A14757   1.449  14.350   5.887 -0.1252  0.0748 -0.1489
 1028YOPC   D2A14758   1.374  14.690   6.182 -0.2715  0.1062  0.1251
 1028YOPC   C3A14759   1.135  15.131   6.142  0.0715  0.2619  0.2928
 1028YOPC   C4A14760   0.968  15.287   6.507  0.0842  0.0238 -0.1014
 1028YOPC   C1B14761   1.263  14.351   6.610 -0.0519  0.2308  0.1479
 1028YOPC   C2B14762   1.343  14.275   7.037  0.1244  0.2215 -0.0075
 1028YOPC   D3B14763   1.488  14.669   7.128  0.1097 -0.1011 -0.0094
 1028YOPC   C4B14764   1.895  14.985   7.003 -0.0047 -0.2306  0.2294
 1029YOPC   NC314765   8.084   1.818   5.967 -0.0704  0.0944 -0.0473
 1029YOPC   PO414766   8.295   2.217   6.038  0.2669  0.2521  0.0768
 1029YOPC   GL114767   8.117   2.298   6.471  0.2144 -0.0478 -0.1713
 1029YOPC   GL214768   8.055   2.487   6.499 -0.0029 -0.0796  0.2381
 1029YOPC   C1A14769   7.772   2.128   6.757  0.0592  0.0103  0.0910
 1029YOPC   D2A14770   7.454   2.321   7.156 -0.0791  0.2956  0.3884
 1029YOPC   C3A14771   7.196   2.184   7.405 -0.1130  0.1343 -0.2587
 1029YOPC   C4A14772   6.971   1.886   7.675 -0.1481  0.0744  0.2986
 1029YOPC   C1B14773   7.777   2.656   6.870 -0.0247 -0.0800  0.0887
 1029YOPC   C2B14774   7.701   2.791   7.229 -0.0628 -0.0708  0.1430
 1029YOPC   D3B14775   7.992   2.695   7.524  0.1334 -0.1858  0.1204
 1029YOPC   C4B14776   8.404   2.390   7.530 -0.1950 -0.2500  0.1795
 1030YOPC   NC314777  11.322  14.513   5.532 -0.0721  0.0120 -0.0440
 1030YOPC   PO414778  11.658  14.505   5.818 -0.1668 -0.1351 -0.1339
 1030YOPC   GL114779  11.401  14.507   6.285  0.1842 -0.2088 -0.2208
 1030YOPC   GL214780  11.521  14.191   6.335  0.0589  0.0134 -0.1233
 1030YOPC   C1A14781  11.377  14.566   6.668 -0.0099  0.2530 -0.4527
 1030YOPC   D2A14782  11.487  14.415   7.028  0.3238  0.0949 -0.0011
 1030YOPC   C3A14783  11.338  14.628   7.307 -0.0788  0.0334  0.1701
 1030YOPC   C4A14784  11.545  14.912   7.544 -0.2322  0.2618  0.0058
 1030YOPC   C1B14785  11.811  14.172   6.758 -0.1958 -0.1898 -0.1307
 1030YOPC   C2B14786  11.883  14.189   7.148  0.0328  0.1014  0.4711
 1030YOPC   D3B14787  11.930  13.912   7.509  0.1749 -0.0679  0.1810
 1030YOPC   C4B14788  11.925  13.573   7.824  0.0364  0.2614 -0.1244
 1031YOPC   NC314789  11.002   8.910   5.643 -0.2114  0.0235 -0.1128
 1031YOPC   PO414790  10.990   8.701   6.059  0.0254 -0.2026  0.2422
 1031YOPC   GL114791  11.023   8.735   6.405 -0.0174 -0.0171 -0.1478
 1031YOPC   GL214792  11.359   8.829   6.407  0.1621  0.4229 -0.2732
 1031YOPC   C1A14793  10.842   8.836   6.745 -0.3421  0.1000  0.1242
 1031YOPC   D2A14794  11.025   8.987   7.094  0.2466 -0.1857  0.1384
 1031YOPC   C3A14795  11.175   9.396   7.204  0.0970  0.3961  0.2499
 1031YOPC   C4A14796  11.026   9.730   7.086  0.1299 -0.0577 -0.0529
 1031YOPC   C1B14797  11.236   8.562   6.862 -0.0832  0.2723  0.1109
 1031YOPC   C2B14798  11.364   8.400   7.285 -0.1786  0.3731  0.0277
 1031YOPC   D3B14799  11.215   8.080   7.499  0.2182  0.2703 -0.2145
 1031YOPC   C4B14800  11.109   8.012   7.952  0.3217 -0.3402  0.2775
 1032YOPC   NC314801  13.333   8.685   6.017  0.0806  0.3550  0.3418
 1032YOPC   PO414802  13.377   8.255   6.021 -0.1307  0.1626  0.0190
 1032YOPC   GL114803  13.472   8.391   6.397 -0.2460 -0.1866  0.0444
 1032YOPC   GL214804  13.356   8.642   6.501  0.0277  0.2559 -0.0182
 1032YOPC   C1A14805  13.746   8.440   6.753 -0.0185 -0.3003  0.0943
 1032YOPC   D2A14806  13.754   8.737   7.109 -0.2217 -0.0069  0.1301
 1032YOPC   C3A14807  13.713   9.116   6.953 -0.1337  0.0059 -0.3671
 1032YOPC   C4A14808  13.658   9.512   6.929  0.0269  0.2751 -0.0320
 1032YOPC   C1B14809  13.352   8.763   6.830 -0.1398 -0.1406 -0.0932
 1032YOPC   C2B14810  13.284   8.787   7.279 -0.2428 -0.1323 -0.1865
 1032YOPC   D3B14811  13.445   8.861   7.649 -0.1571 -0.2239 -0.0544
 1032YOPC   C4B14812  13.468   8.756   8.059 -0.0978 -0.0614 -0.2463
 1033YOPC   NC314813   2.192  16.056   5.750 -0.0641  0.4007  0.1007
 1033YOPC   PO414814   1.995  16.347   5.473  0.1599  0.3690 -0.1155
 1033YOPC   GL114815   1.770  16.434   5.864  0.2897 -0.4284  0.2938
 1033YOPC   GL214816   2.043  16.531   6.043  0.1325 -0.0835 -0.0620
 1033YOPC   C1A14817   1.628  16.211   6.143  0.0390  0.2607 -0.0076
 1033YOPC   D2A14818   1.441  16.092   6.567 -0.0265 -0.0502 -0.4327
 1033YOPC   C3A14819   1.162  16.183   6.956  0.1389  0.2498 -0.1120
 1033YOPC   C4A14820   1.171  16.360   7.409  0.0227 -0.3203  0.5015
 1033YOPC   C1B14821   2.347  16.323   6.409  0.0497  0.1684  0.0137
 1033YOPC   C2B14822   2.391  16.277   6.824  0.0640  0.0376 -0.1429
 1033YOPC   D3B14823   2.302  16.109   7.250 -0.0540  0.0034  0.0896
 1033YOPC   C4B14824   1.988  15.963   7.456 -0.0998 -0.2158  0.0651
 1034YOPC   NC314825   6.042   2.876   5.567  0.1948  0.0766 -0.1192
 1034YOPC   PO414826   6.333   3.115   5.815 -0.0864  0.3039 -0.4784
 1034YOPC   GL114827   6.117   2.889   6.127 -0.1549  0.0449  0.1595
 1034YOPC   GL214828   6.157   2.552   6.173  0.0488 -0.2123 -0.3257
 1034YOPC   C1A14829   6.344   2.878   6.546 -0.0836  0.2752 -0.0550
 1034YOPC   D2A14830   6.368   2.963   6.999  0.1083 -0.1231 -0.3212
 1034YOPC   C3A14831   6.322   2.624   7.253 -0.0692 -0.0525 -0.1666
 1034YOPC   C4A14832   6.303   2.440   7.683 -0.2026 -0.0812 -0.1038
 1034YOPC   C1B14833   5.693   2.668   6.366  0.0776  0.1210 -0.4569
 1034YOPC   C2B14834   5.504   2.620   6.805 -0.0831 -0.3339  0.2395
 1034YOPC   D3B14835   5.376   3.035   7.016  0.0250 -0.0688 -0.1030
 1034YOPC   C4B14836   5.279   3.384   7.278 -0.0497 -0.0511  0.1558
 1035YOPC   NC314837   9.516  12.266   6.110 -0.2031  0.1257 -0.3985
 1035YOPC   PO414838   9.112  12.384   6.302 -0.0097  0.0753  0.3527
 1035YOPC   GL114839   9.148  12.196   6.636 -0.0937  0.0120 -0.0831
 1035YOPC   GL214840   9.404  12.072   6.756 -0.2451  0.1529  0.3272
 1035YOPC   C1A14841   8.986  12.064   7.039  0.2750 -0.0665  0.0191
 1035YOPC   D2A14842   8.722  12.162   7.222 -0.0001 -0.2625 -0.2037
 1035YOPC   C3A14843   8.582  12.066   7.671  0.0725  0.0886 -0.1320
 1035YOPC   C4A14844   8.374  12.350   8.005  0.2959 -0.0310  0.2618
 1035YOPC   C1B14845   9.526  12.220   7.122 -0.1849  0.0250  0.1113
 1035YOPC   C2B14846   9.566  12.048   7.368 -0.0271 -0.0220 -0.1560
 1035YOPC   D3B14847   9.094  12.011   7.513  0.2939 -0.1565  0.1335
 1035YOPC   C4B14848   8.864  11.687   7.487  0.4575  0.3068 -0.2360
 1036YOPC   NC314849   2.250   7.716   5.903 -0.0718  0.1068 -0.2461
 1036YOPC   PO414850   1.859   7.952   5.848 -0.1528  0.1432  0.1152
 1036YOPC   GL114851   1.517   8.097   6.149  0.1454  0.1305  0.2676
 1036YOPC   GL214852   1.099   8.116   6.064  0.1803  0.1660 -0.3148
 1036YOPC   C1A14853   1.375   8.400   6.496  0.1684  0.1499 -0.3578
 1036YOPC   D2A14854   1.106   8.766   6.573  0.1498  0.2668  0.0706
 1036YOPC   C3A14855   0.833   8.812   6.233  0.0503 -0.0217 -0.0536
 1036YOPC   C4A14856   0.438   8.965   5.969  0.2736  0.0410 -0.0581
 1036YOPC   C1B14857   0.914   8.275   6.309  0.1556 -0.0779  0.0286
 1036YOPC   C2B14858   0.754   8.351   6.632  0.2361  0.1030 -0.2722
 1036YOPC   D3B14859   1.074   8.384   6.964  0.0337 -0.3116  0.3049
 1036YOPC   C4B14860   1.378   8.044   7.101  0.1803  0.2306  0.1890
 1037YOPC   NC314861   5.761   1.444   5.298 -0.0033 -0.1735  0.0550
 1037YOPC   PO414862   5.986   1.776   5.480 -0.7914  0.3713  0.1648
 1037YOPC   GL114863   6.125   1.746   5.842 -0.1171  0.0514  0.2036
 1037YOPC   GL214864   6.339   1.576   5.894 -0.0055 -0.1644 -0.2660
 1037YOPC   C1A14865   5.979   1.563   6.252  0.0729  0.2264 -0.0006
 1037YOPC   D2A14866   5.928   1.623   6.688 -0.0635  0.1621  0.1424
 1037YOPC   C3A14867   5.503   1.472   6.769 -0.1648 -0.0313 -0.0494
 1037YOPC   C4A14868   5.516   1.390   7.198  0.1230 -0.2254 -0.1110
 1037YOPC   C1B14869   6.427   1.527   6.445  0.0054  0.0522  0.0757
 1037YOPC   C2B14870   6.356   1.776   6.695  0.0169 -0.1293  0.0098
 1037YOPC   D3B14871   6.332   1.705   7.162 -0.0342  0.2622  0.0336
 1037YOPC   C4B14872   6.507   1.706   7.648 -0.0100  0.0888 -0.2358
 1038YOPC   NC314873   3.195  13.655   5.713  0.5048  0.7546 -0.2055
 1038YOPC   PO414874   3.578  13.395   5.693 -0.0081  0.0379 -0.0147
 1038YOPC   GL114875   3.712  13.735   6.054 -0.0117  0.1817  0.1795
 1038YOPC   GL214876   3.435  13.949   6.059 -0.2151 -0.0858 -0.3640
 1038YOPC   C1A14877   3.994  13.895   6.321 -0.3955  0.1115  0.1991
 1038YOPC   D2A14878   4.003  14.138   6.558  0.1568  0.4388  0.2552
 1038YOPC   C3A14879   4.191  14.178   6.938 -0.1371  0.0622 -0.0168
 1038YOPC   C4A14880   4.163  14.347   7.317  0.2686 -0.2728 -0.1590
 1038YOPC   C1B14881   3.525  13.842   6.522 -0.2119 -0.0943  0.1065
 1038YOPC   C2B14882   3.316  13.805   6.989 -0.0696  0.1349 -0.2864
 1038YOPC   D3B14883   2.928  14.015   7.163 -0.1039 -0.2084 -0.0753
 1038YOPC   C4B14884   2.791  14.321   7.519  0.0826 -0.0366  0.0451
 1039YOPC   NC314885  12.831   9.275   5.560 -0.0614  0.0591 -0.0953
 1039YOPC   PO414886  12.541   9.194   5.903  0.2630  0.3390 -0.0586
 1039YOPC   GL114887  12.584   9.368   6.354  0.1491 -0.2114  0.0289
 1039YOPC   GL214888  12.963   9.319   6.471  0.0397  0.0088  0.1152
 1039YOPC   C1A14889  12.573   9.383   6.816 -0.0045 -0.2568  0.3493
 1039YOPC   D2A14890  12.447   9.389   7.277  0.0478  0.0767 -0.0506
 1039YOPC   C3A14891  12.862   9.284   7.465  0.1160 -0.0429 -0.0389
 1039YOPC   C4A14892  13.063   9.235   7.915 -0.3548 -0.4576  0.3308
 1039YOPC   C1B14893  13.030   9.137   6.823 -0.3785  0.2855 -0.0321
 1039YOPC   C2B14894  13.211   9.398   7.139 -0.0480  0.0280 -0.1939
 1039YOPC   D3B14895  13.518   9.346   7.406  0.0697  0.0687  0.1554
 1039YOPC   C4B14896  13.923   9.197   7.369 -0.0885 -0.0847 -0.0202
 1040YOPC   NC314897   0.924   7.459   5.447  0.3302 -0.1371  0.0306
 1040YOPC   PO414898   0.565   7.710   5.526 -0.3382  0.1810 -0.3300
 1040YOPC   GL114899   0.666   7.877   5.950  0.2759  0.1533  0.1481
 1040YOPC   GL214900   0.587   7.563   6.041 -0.0381 -0.4539 -0.1489
 1040YOPC   C1A14901   0.548   7.956   6.436  0.0182  0.0458 -0.2730
 1040YOPC   D2A14902   0.430   7.980   6.841  0.3672 -0.0095 -0.2392
 1040YOPC   C3A14903   0.597   8.351   7.163 -0.1027  0.0507  0.2423
 1040YOPC   C4A14904   0.736   8.633   7.450 -0.0431 -0.3481  0.0334
 1040YOPC   C1B14905   0.590   7.339   6.359  0.2372 -0.0035  0.1057
 1040YOPC   C2B14906   0.818   7.591   6.644 -0.0417 -0.1749 -0.3705
 1040YOPC   D3B14907   0.873   7.921   7.045  0.3639  0.0919 -0.1442
 1040YOPC   C4B14908   0.956   8.149   7.477  0.2715  0.0346  0.0226
 1041YOPC   NC314909   7.726   5.870   5.775  0.1944 -0.0313 -0.0784
 1041YOPC   PO414910   7.935   5.509   6.012 -0.1259 -0.0754 -0.1090
 1041YOPC   GL114911   7.904   5.478   6.457  0.0451 -0.3396  0.0172
 1041YOPC   GL214912   7.725   5.587   6.569  0.0148 -0.1447  0.2255
 1041YOPC   C1A14913   8.054   5.569   6.864  0.2474 -0.1653  0.0263
 1041YOPC   D2A14914   7.831   5.668   7.281 -0.3118  0.0202  0.0586
 1041YOPC   C3A14915   7.893   5.673   7.744  0.1504  0.1351  0.1275
 1041YOPC   C4A14916   7.720   5.317   7.879  0.1158  0.1732 -0.0296
 1041YOPC   C1B14917   7.518   5.856   6.837  0.2497 -0.0097 -0.1357
 1041YOPC   C2B14918   7.436   6.035   7.218 -0.1822  0.1893  0.1865
 1041YOPC   D3B14919   7.018   5.912   7.348  0.0777 -0.0570  0.0023
 1041YOPC   C4B14920   6.785   5.569   7.415 -0.0368 -0.1844 -0.0911
 1042YOPC   NC314921   5.542  13.240   5.748 -0.0415 -0.0853  0.2631
 1042YOPC   PO414922   5.202  12.992   5.717  0.0434  0.1654  0.3112
 1042YOPC   GL114923   5.035  13.021   6.232  0.5871  0.1155  0.1546
 1042YOPC   GL214924   4.834  13.358   6.331 -0.2124 -0.3627  0.0109
 1042YOPC   C1A14925   5.182  13.153   6.700  0.1120  0.2316 -0.2674
 1042YOPC   D2A14926   5.356  13.108   6.926 -0.1315  0.0652  0.2021
 1042YOPC   C3A14927   5.352  12.688   6.846  0.3146  0.0803  0.1849
 1042YOPC   C4A14928   5.210  12.571   6.487 -0.0485 -0.1434  0.3477
 1042YOPC   C1B14929   4.739  13.446   6.716 -0.0992 -0.1362 -0.1488
 1042YOPC   C2B14930   4.484  13.205   6.922 -0.1034  0.2410  0.1805
 1042YOPC   D3B14931   4.165  13.247   7.148  0.0757  0.1705  0.0150
 1042YOPC   C4B14932   3.948  13.416   7.444 -0.1758  0.0480  0.1471
 1043YOPC   NC314933   9.937   1.446   5.873 -0.2244 -0.2748 -0.0365
 1043YOPC   PO414934  10.409   1.239   5.727  0.0440  0.2876 -0.2496
 1043YOPC   GL114935  10.317   1.394   6.214  0.2745  0.0903  0.0418
 1043YOPC   GL214936  10.474   1.526   6.411  0.3477 -0.3161 -0.1569
 1043YOPC   C1A14937  10.315   1.117   6.623 -0.3924 -0.0822 -0.1986
 1043YOPC   D2A14938  10.348   0.977   7.063  0.1903 -0.0225 -0.1312
 1043YOPC   C3A14939  10.363   0.969   7.518 -0.0405 -0.2142  0.2138
 1043YOPC   C4A14940  10.372   0.560   7.818  0.1729 -0.2115  0.1394
 1043YOPC   C1B14941  10.305   1.545   6.859 -0.0863 -0.0489 -0.2700
 1043YOPC   C2B14942  10.359   1.489   7.348  0.3344  0.0120  0.1294
 1043YOPC   D3B14943   9.940   1.291   7.660  0.0870 -0.1659 -0.0740
 1043YOPC   C4B14944   9.580   1.174   7.862 -0.2299 -0.2644 -0.2565
 1044YOPC   NC314945   6.574  11.128   6.181 -0.0443 -0.0428 -0.2242
 1044YOPC   PO414946   6.429  10.712   6.177 -0.0423  0.2708  0.0061
 1044YOPC   GL114947   6.126  10.795   6.490  0.0146 -0.2053 -0.1096
 1044YOPC   GL214948   6.211  11.100   6.566  0.1135 -0.0064  0.1056
 1044YOPC   C1A14949   5.991  10.466   6.761 -0.0311 -0.0084  0.2756
 1044YOPC   D2A14950   6.051  10.287   7.199  0.2233  0.0300  0.0326
 1044YOPC   C3A14951   5.930   9.861   7.329  0.2245  0.4011  0.3659
 1044YOPC   C4A14952   6.249   9.492   7.485  0.0230 -0.0882 -0.2259
 1044YOPC   C1B14953   6.164  10.920   7.032  0.1377 -0.0247  0.2097
 1044YOPC   C2B14954   6.257  10.791   7.358 -0.0149 -0.0464 -0.0998
 1044YOPC   D3B14955   6.095  11.052   7.683  0.1498  0.0501  0.0776
 1044YOPC   C4B14956   5.891  11.100   8.066 -0.2298  0.1042  0.1690
 1045YOPC   NC314957  17.938  12.467   5.483  0.1405 -0.0677  0.0277
 1045YOPC   PO414958  17.675  12.316   5.780 -0.2132 -0.0807  0.0518
 1045YOPC   GL114959  17.281  12.299   5.976 -0.1745  0.0730  0.0380
 1045YOPC   GL214960  17.266  12.600   6.083 -0.3841 -0.0194 -0.0669
 1045YOPC   C1A14961  17.033  12.272   6.388 -0.2424 -0.0633 -0.0258
 1045YOPC   D2A14962  16.831  12.546   6.691 -0.0837  0.2978 -0.1900
 1045YOPC   C3A14963  16.753  12.401   7.015  0.2082 -0.2457 -0.1031
 1045YOPC   C4A14964  16.817  12.109   7.344  0.1850  0.2228 -0.1234
 1045YOPC   C1B14965  17.264  12.798   6.596 -0.0844  0.1654 -0.0640
 1045YOPC   C2B14966  17.275  12.555   6.977  0.0278  0.2015  0.0302
 1045YOPC   D3B14967  17.659  12.366   7.267  0.0392  0.2418 -0.2326
 1045YOPC   C4B14968  17.896  12.273   7.637  0.1123  0.0255 -0.0149
 1046YOPC   NC314969   7.574  17.419   5.346  0.1580  0.0682  0.1831
 1046YOPC   PO414970   7.836  17.513   5.433  0.2553 -0.2017 -0.1216
 1046YOPC   GL114971   7.652  17.591   5.791 -0.1562 -0.1607  0.0459
 1046YOPC   GL214972   7.419  17.423   5.845  0.5587  0.3069  0.0839
 1046YOPC   C1A14973   7.876  17.462   6.191 -0.2037 -0.3920  0.0600
 1046YOPC   D2A14974   7.818  17.446   6.589 -0.2853 -0.2513  0.1529
 1046YOPC   C3A14975   8.046  17.716   6.823 -0.0382  0.1678  0.1091
 1046YOPC   C4A14976   8.301  17.911   7.283  0.1495  0.3869  0.2036
 1046YOPC   C1B14977   7.365  17.470   6.307  0.0024  0.1617  0.1150
 1046YOPC   C2B14978   7.095  17.655   6.607  0.1153 -0.0636  0.0625
 1046YOPC   D3B14979   7.146  17.801   7.030 -0.0058 -0.2438  0.0613
 1046YOPC   C4B14980   7.265  18.056   7.369  0.0462  0.1997 -0.3591
 1047YOPC   NC314981   8.600  13.401   5.438 -0.3286 -0.3520  0.1144
 1047YOPC   PO414982   8.282  13.607   5.769  0.1887  0.0392  0.1146
 1047YOPC   GL114983   8.129  13.669   6.199  0.3133 -0.0904  0.0559
 1047YOPC   GL214984   7.869  13.559   6.241 -0.0847  0.1583 -0.1668
 1047YOPC   C1A14985   8.198  13.735   6.594  0.0954  0.0425  0.0261
 1047YOPC   D2A14986   8.047  13.795   6.971 -0.1066  0.2381  0.1620
 1047YOPC   C3A14987   8.445  14.103   7.164  0.3567  0.4349  0.2618
 1047YOPC   C4A14988   8.716  14.447   7.328  0.1306 -0.0966  0.1889
 1047YOPC   C1B14989   7.936  13.337   6.625  0.2389 -0.2121 -0.1415
 1047YOPC   C2B14990   7.814  13.230   7.014  0.0583 -0.0149 -0.2516
 1047YOPC   D3B14991   7.698  13.042   7.419  0.2267  0.2732 -0.2451
 1047YOPC   C4B14992   7.401  12.664   7.580 -0.0981 -0.1943 -0.0687
 1048YOPC   NC314993  15.910   4.085   5.608  0.1737  0.0185  0.1233
 1048YOPC   PO414994  15.737   4.455   5.673  0.0104  0.3056 -0.0499
 1048YOPC   GL114995  15.942   4.396   6.133  0.0507  0.0889 -0.2108
 1048YOPC   GL214996  16.240   4.258   5.957  0.3053  0.2091  0.0977
 1048YOPC   C1A14997  16.018   4.404   6.652  0.0412 -0.2383  0.1472
 1048YOPC   D2A14998  16.158   4.735   6.979  0.2976  0.0791  0.1763
 1048YOPC   C3A14999  16.379   4.646   7.460 -0.0892 -0.1972  0.0218
 1048YOPC   C4A15000  16.353   4.159   7.600 -0.2359  0.0429 -0.1170
 1048YOPC   C1B15001  16.616   4.179   6.277 -0.0275 -0.0206  0.2934
 1048YOPC   C2B15002  16.561   4.213   6.639 -0.1314 -0.2113 -0.0996
 1048YOPC   D3B15003  16.226   3.987   6.815 -0.0142 -0.1402 -0.0939
 1048YOPC   C4B15004  15.916   3.724   7.042  0.2132 -0.0588 -0.0432
 1049YOPC   NC315005  10.398   2.124   5.438 -0.1346 -0.2613 -0.0919
 1049YOPC   PO415006  10.140   1.859   5.657  0.2074 -0.1413  0.1613
 1049YOPC   GL115007  10.101   1.879   6.145 -0.0577 -0.2193  0.2165
 1049YOPC   GL215008  10.326   1.973   6.345  0.0970 -0.2454  0.3114
 1049YOPC   C1A15009   9.947   1.580   6.539 -0.1043  0.0755 -0.4550
 1049YOPC   D2A15010   9.797   1.186   6.604 -0.0070 -0.1486 -0.2907
 1049YOPC   C3A15011   9.598   1.126   6.990 -0.2126  0.2363  0.0246
 1049YOPC   C4A15012   9.507   1.031   7.350 -0.1593  0.2638  0.0687
 1049YOPC   C1B15013  10.527   1.938   6.713 -0.1825  0.3084 -0.2588
 1049YOPC   C2B15014  10.660   1.943   7.148 -0.0507  0.0258  0.1458
 1049YOPC   D3B15015  10.423   2.018   7.469  0.1133  0.0328 -0.0655
 1049YOPC   C4B15016  10.156   2.334   7.528 -0.0637 -0.0393 -0.2084
 1050YOPC   NC315017   6.760   2.524   5.019  0.2430 -0.0406  0.1073
 1050YOPC   PO415018   6.438   2.742   5.342  0.0768 -0.0466  0.1971
 1050YOPC   GL115019   6.516   2.567   5.801 -0.0518  0.2545  0.2353
 1050YOPC   GL215020   6.407   2.166   5.819  0.2477 -0.4021  0.0326
 1050YOPC   C1A15021   6.590   2.413   6.310  0.0010  0.3220  0.4157
 1050YOPC   D2A15022   6.639   2.445   6.738 -0.2478 -0.1410 -0.1529
 1050YOPC   C3A15023   6.460   2.176   7.011 -0.1896  0.1312  0.0526
 1050YOPC   C4A15024   6.638   2.143   7.402 -0.0554 -0.2047  0.1741
 1050YOPC   C1B15025   6.246   2.004   6.267  0.0546  0.0737  0.0073
 1050YOPC   C2B15026   6.172   2.299   6.578  0.1883  0.3119  0.1689
 1050YOPC   D3B15027   5.984   2.558   6.835  0.0033 -0.0493  0.0746
 1050YOPC   C4B15028   5.872   3.040   6.813  0.0391  0.2258 -0.1101
 1051YOPC   NC315029   1.551   7.266   5.371 -0.0522 -0.2835 -0.2550
 1051YOPC   PO415030   1.326   7.247   5.696 -0.1635 -0.2104 -0.0936
 1051YOPC   GL115031   1.323   7.220   6.141  0.3484  0.3247 -0.1409
 1051YOPC   GL215032   1.516   7.328   6.428 -0.2687  0.0226  0.1202
 1051YOPC   C1A15033   0.988   7.101   6.458 -0.0787  0.3269 -0.2629
 1051YOPC   D2A15034   0.755   7.057   6.885  0.3070 -0.0584  0.2740
 1051YOPC   C3A15035   0.995   7.368   7.018 -0.2643 -0.1362 -0.0994
 1051YOPC   C4A15036   1.366   7.517   6.896  0.0515  0.0319  0.1189
 1051YOPC   C1B15037   1.753   7.248   6.762 -0.3160  0.0794  0.0409
 1051YOPC   C2B15038   1.745   7.353   7.164  0.1572  0.2060 -0.0946
 1051YOPC   D3B15039   1.622   7.657   7.370 -0.0034 -0.0031 -0.0044
 1051YOPC   C4B15040   1.421   7.947   7.619  0.0202 -0.1047 -0.1026
 1052YOPC   NC315041   4.671  11.319   6.062  0.3400 -0.3818  0.0820
 1052YOPC   PO415042   4.517  11.707   6.044 -0.4064  0.0712 -0.0001
 1052YOPC   GL115043   4.707  11.599   6.488 -0.1840  0.2334  0.0630
 1052YOPC   GL215044   4.996  11.308   6.564 -0.2102  0.0524 -0.0218
 1052YOPC   C1A15045   4.652  11.799   6.882  0.1766 -0.1046 -0.0164
 1052YOPC   D2A15046   4.621  11.546   7.246 -0.0111 -0.0786  0.0163
 1052YOPC   C3A15047   4.395  11.158   7.279 -0.0257  0.3471 -0.0451
 1052YOPC   C4A15048   4.019  11.036   7.406 -0.2570 -0.3994 -0.0380
 1052YOPC   C1B15049   5.198  11.116   6.960 -0.0867  0.2938  0.1642
 1052YOPC   C2B15050   5.210  11.425   7.220 -0.1098 -0.0944 -0.2380
 1052YOPC   D3B15051   5.073  11.793   7.177 -0.2151 -0.1871  0.1559
 1052YOPC   C4B15052   4.678  12.193   7.244  0.0084 -0.2110 -0.1007
 1053YOPC   NC315053   3.965  15.926   5.778  0.3095 -0.1706  0.2044
 1053YOPC   PO415054   4.142  16.410   5.451  0.0634  0.4086 -0.2004
 1053YOPC   GL115055   4.155  16.359   5.995 -0.1045 -0.0362  0.0176
 1053YOPC   GL215056   3.994  16.252   6.223  0.0071 -0.1504  0.2385
 1053YOPC   C1A15057   4.370  16.421   6.449 -0.0427 -0.0111  0.1213
 1053YOPC   D2A15058   4.731  16.454   6.750 -0.2052  0.5113 -0.1199
 1053YOPC   C3A15059   4.819  16.576   7.211  0.0505  0.1290 -0.1213
 1053YOPC   C4A15060   5.059  16.709   7.542 -0.1447  0.0045 -0.1718
 1053YOPC   C1B15061   3.890  15.974   6.444  0.1883 -0.0107  0.2407
 1053YOPC   C2B15062   3.891  15.617   6.666  0.0592  0.0820 -0.1805
 1053YOPC   D3B15063   3.782  15.580   7.048  0.1868  0.1633 -0.0481
 1053YOPC   C4B15064   3.661  15.401   7.461 -0.1906  0.0072  0.1537
 1054YOPC   NC315065   1.971  12.138   5.888 -0.0895  0.1384 -0.2325
 1054YOPC   PO415066   2.179  12.574   6.044 -0.1148  0.0343 -0.3335
 1054YOPC   GL115067   1.817  12.652   6.260 -0.0509  0.1483 -0.1181
 1054YOPC   GL215068   1.846  12.611   6.542  0.1151 -0.2268 -0.2627
 1054YOPC   C1A15069   1.527  12.979   6.530  0.0549  0.0279 -0.0024
 1054YOPC   D2A15070   1.262  13.301   6.649  0.0022 -0.1794 -0.0035
 1054YOPC   C3A15071   1.407  13.360   7.107 -0.2572 -0.2728  0.4212
 1054YOPC   C4A15072   1.674  13.314   7.450  0.3378  0.4189 -0.0583
 1054YOPC   C1B15073   2.188  12.841   6.811 -0.0798  0.1144  0.1930
 1054YOPC   C2B15074   2.537  13.162   7.047  0.1377 -0.1692  0.2164
 1054YOPC   D3B15075   2.243  13.251   7.467 -0.1213  0.0020  0.1860
 1054YOPC   C4B15076   2.067  13.598   7.702 -0.3581  0.1199  0.2295
 1055YOPC   NC315077   2.444   4.265   5.658 -0.2635  0.3572  0.1069
 1055YOPC   PO415078   2.696   3.943   5.661 -0.4231 -0.0913 -0.1694
 1055YOPC   GL115079   2.930   3.945   6.098 -0.0544 -0.0009 -0.1628
 1055YOPC   GL215080   3.171   4.111   6.104  0.0546  0.0100  0.1416
 1055YOPC   C1A15081   2.917   3.710   6.427  0.3047  0.1810 -0.3369
 1055YOPC   D2A15082   2.833   3.604   6.876 -0.1079  0.4020  0.3173
 1055YOPC   C3A15083   2.484   4.001   6.943 -0.0287  0.0329 -0.5219
 1055YOPC   C4A15084   2.498   4.397   7.083  0.1824  0.4107  0.1447
 1055YOPC   C1B15085   2.903   4.206   6.498 -0.1273  0.0859 -0.1467
 1055YOPC   C2B15086   3.078   4.018   6.789 -0.3378 -0.0280  0.1671
 1055YOPC   D3B15087   3.292   3.605   6.804 -0.0781  0.4162 -0.1083
 1055YOPC   C4B15088   3.608   3.360   7.076  0.4410 -0.3790  0.1632
 1056YOPC   NC315089  11.855  13.944   5.739  0.0906 -0.0477 -0.4226
 1056YOPC   PO415090  11.875  13.436   5.791 -0.1293 -0.1506 -0.1383
 1056YOPC   GL115091  11.873  13.540   6.177  0.0267 -0.1105 -0.1198
 1056YOPC   GL215092  11.541  13.717   6.191  0.2966 -0.0977 -0.2067
 1056YOPC   C1A15093  11.814  13.660   6.644  0.2174 -0.0391 -0.0879
 1056YOPC   D2A15094  11.900  13.672   7.027  0.0012 -0.0078 -0.2170
 1056YOPC   C3A15095  12.065  13.396   7.363 -0.0950 -0.0725  0.0863
 1056YOPC   C4A15096  12.289  13.041   7.535 -0.2121 -0.2129 -0.0911
 1056YOPC   C1B15097  11.419  13.338   6.523 -0.2256  0.1179 -0.0179
 1056YOPC   C2B15098  11.425  13.344   6.911 -0.0390  0.1935  0.0494
 1056YOPC   D3B15099  11.536  13.563   7.375  0.0554  0.0551  0.0206
 1056YOPC   C4B15100  11.204  13.691   7.713  0.3253  0.1748 -0.0694
 1057YOPC   NC315101   2.359   2.529   5.501 -0.0016 -0.1016 -0.0596
 1057YOPC   PO415102   2.606   2.188   5.441 -0.3640  0.0988 -0.2080
 1057YOPC   GL115103   2.402   1.983   5.703 -0.0630 -0.2585 -0.1307
 1057YOPC   GL215104   2.427   2.154   5.913 -0.1566 -0.1749  0.1494
 1057YOPC   C1A15105   2.548   1.719   6.111  0.0747 -0.2714 -0.0264
 1057YOPC   D2A15106   2.391   1.577   6.546  0.1683 -0.0938  0.2212
 1057YOPC   C3A15107   2.281   1.189   6.654  0.0348 -0.0311  0.3106
 1057YOPC   C4A15108   2.374   0.881   6.930  0.5323  0.0980  0.3392
 1057YOPC   C1B15109   2.169   2.105   6.288 -0.3513  0.2095  0.3016
 1057YOPC   C2B15110   1.919   1.737   6.445 -0.3562 -0.2711  0.0350
 1057YOPC   D3B15111   1.961   1.684   6.894  0.2884 -0.1463 -0.1486
 1057YOPC   C4B15112   2.197   1.411   7.168 -0.0772 -0.0034  0.0476
 1058YOPC   NC315113   2.324  10.018   5.979 -0.0403 -0.3217  0.0814
 1058YOPC   PO415114   2.682   9.838   5.941 -0.3919  0.1338  0.0729
 1058YOPC   GL115115   2.643   9.894   6.393  0.1820  0.1583  0.0318
 1058YOPC   GL215116   2.485  10.229   6.414 -0.0173  0.2694 -0.0864
 1058YOPC   C1A15117   2.669   9.639   6.806  0.2295 -0.0737  0.0307
 1058YOPC   D2A15118   2.543   9.892   7.246 -0.0263 -0.3246  0.1321
 1058YOPC   C3A15119   2.783   9.795   7.552  0.0193 -0.1804  0.3744
 1058YOPC   C4A15120   3.110   9.593   7.802 -0.0661 -0.1143 -0.2199
 1058YOPC   C1B15121   2.334  10.338   6.774  0.2112 -0.0976 -0.0154
 1058YOPC   C2B15122   2.599  10.389   7.192 -0.2037 -0.2300  0.0766
 1058YOPC   D3B15123   2.384  10.577   7.473  0.1296  0.0416  0.0123
 1058YOPC   C4B15124   2.338  10.684   7.830 -0.1864  0.0535  0.1153
 1059YOPC   NC315125   3.090   8.170   5.715  0.1231 -0.1107 -0.2223
 1059YOPC   PO415126   2.752   8.259   6.038 -0.3856 -0.0093  0.0800
 1059YOPC   GL115127   2.520   8.093   6.288 -0.1909  0.0633  0.0019
 1059YOPC   GL215128   2.086   8.139   6.262  0.0913  0.0436 -0.2429
 1059YOPC   C1A15129   2.832   7.936   6.620  0.2947 -0.2227  0.2421
 1059YOPC   D2A15130   3.170   7.684   6.716 -0.1274  0.0430 -0.0702
 1059YOPC   C3A15131   3.245   7.334   7.037 -0.1870 -0.0134 -0.2169
 1059YOPC   C4A15132   3.291   7.273   7.424  0.1069  0.0200  0.2217
 1059YOPC   C1B15133   1.885   8.257   6.606  0.1961  0.1631  0.1259
 1059YOPC   C2B15134   1.875   8.243   7.110 -0.1964  0.2000  0.0373
 1059YOPC   D3B15135   2.214   8.205   7.360 -0.1429  0.0034 -0.1296
 1059YOPC   C4B15136   2.286   8.199   7.865 -0.2209 -0.1047  0.4445
 1060YOPC   NC315137   8.065   9.087   5.682  0.1708  0.0430  0.0783
 1060YOPC   PO415138   8.122   9.522   5.703 -0.3116 -0.0553  0.1454
 1060YOPC   GL115139   7.957   9.445   6.121 -0.1937 -0.1271 -0.0433
 1060YOPC   GL215140   7.983   9.052   6.153  0.1623 -0.1864 -0.0788
 1060YOPC   C1A15141   8.113   9.520   6.421 -0.3715 -0.2317  0.0457
 1060YOPC   D2A15142   8.288   9.216   6.698  0.0363 -0.1357 -0.1603
 1060YOPC   C3A15143   8.191   9.286   7.042  0.2477  0.2678 -0.0253
 1060YOPC   C4A15144   7.868   9.395   7.490 -0.1158 -0.1141  0.1627
 1060YOPC   C1B15145   7.961   8.908   6.566 -0.2403  0.1507  0.0436
 1060YOPC   C2B15146   8.005   8.827   7.019  0.4387  0.0982 -0.1058
 1060YOPC   D3B15147   8.106   8.964   7.401  0.0055  0.0626 -0.0194
 1060YOPC   C4B15148   8.226   9.105   7.826  0.1030 -0.1853  0.0264
 1061YOPC   NC315149  15.141  16.354   5.125 -0.5965 -0.2389 -0.0686
 1061YOPC   PO415150  15.214  16.077   5.391  0.1810  0.1892 -0.1764
 1061YOPC   GL115151  15.255  15.740   5.730 -0.1935  0.1740 -0.2451
 1061YOPC   GL215152  15.000  15.675   5.939  0.2667 -0.1292 -0.0920
 1061YOPC   C1A15153  15.444  15.697   6.208 -0.0281 -0.0016 -0.1163
 1061YOPC   D2A15154  15.500  15.650   6.603  0.0004 -0.1950  0.2442
 1061YOPC   C3A15155  15.520  15.907   6.969 -0.3445  0.2303 -0.0149
 1061YOPC   C4A15156  15.573  15.986   7.451 -0.0765 -0.2226 -0.0139
 1061YOPC   C1B15157  15.030  15.794   6.414 -0.0415  0.2305  0.2984
 1061YOPC   C2B15158  15.002  15.657   6.820  0.2707  0.0255 -0.0737
 1061YOPC   D3B15159  14.655  15.644   7.249  0.0723 -0.0149  0.1594
 1061YOPC   C4B15160  14.645  15.379   7.682  0.1176 -0.2633  0.1440
 1062YOPC   NC315161  12.470  16.629   5.626 -0.4016  0.1488 -0.1408
 1062YOPC   PO415162  12.621  16.220   5.875 -0.2788 -0.3126  0.2927
 1062YOPC   GL115163  12.961  16.157   6.153  0.0282 -0.2548  0.3181
 1062YOPC   GL215164  13.228  16.274   6.180 -0.0037 -0.1945  0.1239
 1062YOPC   C1A15165  12.833  15.808   6.419  0.2028  0.1082 -0.0396
 1062YOPC   D2A15166  12.795  15.774   6.835 -0.0045  0.2962  0.2430
 1062YOPC   C3A15167  12.777  15.472   7.050 -0.0409  0.0170  0.0418
 1062YOPC   C4A15168  12.727  15.335   7.435  0.0401  0.1153  0.3260
 1062YOPC   C1B15169  12.965  16.269   6.613  0.0026  0.0542 -0.2093
 1062YOPC   C2B15170  12.977  16.284   7.116  0.2859  0.1047 -0.3081
 1062YOPC   D3B15171  13.092  16.046   7.524  0.0841  0.2897 -0.0995
 1062YOPC   C4B15172  13.056  16.001   8.003 -0.0419 -0.1591 -0.1613
 1063YOPC   NC315173  16.803   0.312   5.216 -0.2023  0.1876  0.0529
 1063YOPC   PO415174  17.060   0.003   5.399  0.2224 -0.0506  0.1200
 1063YOPC   GL115175  16.967   0.015   5.797  0.4119  0.1977  0.4430
 1063YOPC   GL215176  17.141   0.231   6.018 -0.2411 -0.1111  0.0001
 1063YOPC   C1A15177  16.637   0.106   5.994  0.2485 -0.0299 -0.1647
 1063YOPC   D2A15178  16.457   0.220   6.340  0.2637 -0.3273 -0.1266
 1063YOPC   C3A15179  16.840   0.375   6.576  0.2299  0.1667 -0.2617
 1063YOPC   C4A15180  17.036   0.094   6.881 -0.2868  0.0079  0.0336
 1063YOPC   C1B15181  16.930  -0.107   6.312  0.0536 -0.1027  0.1162
 1063YOPC   C2B15182  16.956  -0.377   6.711 -0.2214 -0.1345  0.1125
 1063YOPC   D3B15183  16.827  -0.400   7.154  0.0160 -0.2813 -0.1385
 1063YOPC   C4B15184  16.579  -0.795   7.274 -0.2435  0.0022 -0.0501
 1064YOPC   NC315185  12.470  17.185   5.599  0.3759 -0.0450 -0.1679
 1064YOPC   PO415186  12.387  17.035   5.925  0.0939  0.1554  0.2330
 1064YOPC   GL115187  12.261  17.119   6.330  0.2883 -0.0320 -0.1439
 1064YOPC   GL215188  12.331  17.561   6.494 -0.0207 -0.3230  0.0386
 1064YOPC   C1A15189  12.304  17.119   6.763  0.2356  0.0685 -0.0543
 1064YOPC   D2A15190  12.075  16.769   7.051  0.1405  0.1096  0.2273
 1064YOPC   C3A15191  11.998  16.823   7.495  0.1089 -0.1612  0.2751
 1064YOPC   C4A15192  12.344  16.750   7.670 -0.2853 -0.3321  0.1000
 1064YOPC   C1B15193  12.779  17.588   6.604  0.3526  0.0248 -0.1975
 1064YOPC   C2B15194  13.073  17.944   6.787  0.1594 -0.0462  0.2707
 1064YOPC   D3B15195  13.347  17.861   7.162  0.1396  0.1907 -0.3581
 1064YOPC   C4B15196  13.625  18.153   7.475 -0.4077 -0.2197  0.0380
 1065YOPC   NC315197  11.585   0.946   5.452 -0.2751  0.2331 -0.2110
 1065YOPC   PO415198  11.534   1.304   5.648 -0.1600 -0.3284  0.0546
 1065YOPC   GL115199  11.497   1.255   6.098 -0.0036  0.0309  0.1641
 1065YOPC   GL215200  11.213   1.358   6.305 -0.1679 -0.0608  0.1363
 1065YOPC   C1A15201  11.796   1.184   6.470 -0.0603  0.0004 -0.1882
 1065YOPC   D2A15202  11.807   1.075   6.710 -0.3986 -0.0791  0.0186
 1065YOPC   C3A15203  11.720   1.261   7.125 -0.0630  0.4451 -0.1793
 1065YOPC   C4A15204  11.941   1.125   7.437 -0.2301  0.0837 -0.0353
 1065YOPC   C1B15205  11.290   1.271   6.704 -0.1416  0.1304 -0.2525
 1065YOPC   C2B15206  11.176   1.067   7.050 -0.1859  0.1373 -0.0244
 1065YOPC   D3B15207  10.824   0.822   7.286 -0.4400  0.2014  0.0847
 1065YOPC   C4B15208  10.856   0.584   7.684  0.0998 -0.1616 -0.1039
 1066YOPC   NC315209  12.822   1.993   5.452  0.2144  0.1912 -0.1135
 1066YOPC   PO415210  12.515   2.279   5.702  0.0361  0.0433 -0.1776
 1066YOPC   GL115211  12.319   2.101   6.080  0.0997 -0.0116 -0.3435
 1066YOPC   GL215212  12.074   2.072   6.068  0.0763 -0.1194  0.3073
 1066YOPC   C1A15213  12.173   2.113   6.564 -0.1808 -0.1966 -0.0035
 1066YOPC   D2A15214  11.932   2.151   6.927 -0.2802 -0.0796 -0.0172
 1066YOPC   C3A15215  12.000   2.313   7.259  0.2956  0.0182 -0.0123
 1066YOPC   C4A15216  11.787   2.610   7.686 -0.0473  0.2087 -0.0916
 1066YOPC   C1B15217  11.785   2.139   6.289  0.4624 -0.0653  0.0444
 1066YOPC   C2B15218  11.403   2.251   6.615  0.0367  0.1194 -0.2607
 1066YOPC   D3B15219  11.297   2.643   6.744  0.2324  0.0725 -0.2430
 1066YOPC   C4B15220  11.514   3.100   6.678  0.2557  0.2429  0.2379
 1067YOPC   NC315221   7.121  13.818   5.841  0.2534  0.0860  0.1271
 1067YOPC   PO415222   7.299  13.482   5.858  0.2075 -0.1251 -0.0522
 1067YOPC   GL115223   7.179  13.338   6.135  0.0510  0.0850 -0.1486
 1067YOPC   GL215224   7.370  13.490   6.382  0.0024 -0.0714 -0.0033
 1067YOPC   C1A15225   6.866  13.308   6.490  0.2642 -0.0719 -0.2224
 1067YOPC   D2A15226   6.509  13.070   6.560  0.0816  0.3004  0.2986
 1067YOPC   C3A15227   6.529  12.812   6.923  0.2135  0.2925  0.1039
 1067YOPC   C4A15228   6.574  12.758   7.228 -0.0004  0.1822 -0.3479
 1067YOPC   C1B15229   7.314  13.237   6.732  0.1985  0.2341 -0.1178
 1067YOPC   C2B15230   7.301  13.026   7.058  0.4368  0.2245 -0.1492
 1067YOPC   D3B15231   6.991  12.943   7.310  0.0772  0.1878 -0.1306
 1067YOPC   C4B15232   6.897  12.649   7.565 -0.0613 -0.1120 -0.2062
 1068YOPC   NC315233   0.443  13.577   5.965  0.0730 -0.0154  0.2786
 1068YOPC   PO415234   0.830  13.383   5.852  0.2152  0.0173  0.1712
 1068YOPC   GL115235   0.991  13.562   6.167 -0.2320  0.1422 -0.2100
 1068YOPC   GL215236   0.758  13.446   6.350 -0.0766 -0.1104  0.2839
 1068YOPC   C1A15237   1.091  13.807   6.621  0.1411  0.1472  0.0196
 1068YOPC   D2A15238   0.976  13.855   7.048 -0.0107  0.0267  0.0243
 1068YOPC   C3A15239   1.182  14.034   7.382  0.2050  0.2046 -0.1130
 1068YOPC   C4A15240   1.099  14.052   7.766 -0.2277 -0.0053 -0.1454
 1068YOPC   C1B15241   0.555  13.671   6.731  0.0344  0.0675 -0.0669
 1068YOPC   C2B15242   0.400  13.751   7.193  0.0177  0.0110  0.2396
 1068YOPC   D3B15243   0.652  13.655   7.649  0.0518  0.1306  0.1927
 1068YOPC   C4B15244   0.613  13.886   7.969  0.4329  0.0481 -0.1366
 1069YOPC   NC315245   0.462  16.313   5.021 -0.3676  0.0437  0.1297
 1069YOPC   PO415246   0.087  16.126   5.235  0.2752  0.2254 -0.1996
 1069YOPC   GL115247   0.185  16.229   5.627 -0.2778 -0.1016 -0.1197
 1069YOPC   GL215248   0.500  16.112   5.798  0.0696 -0.1840  0.2760
 1069YOPC   C1A15249   0.199  16.681   5.696 -0.1159 -0.1452  0.1103
 1069YOPC   D2A15250  -0.025  17.059   5.763 -0.3056 -0.2574 -0.1129
 1069YOPC   C3A15251   0.243  17.220   6.128 -0.1185  0.2006  0.1596
 1069YOPC   C4A15252   0.301  17.306   6.572  0.0353  0.0091  0.2733
 1069YOPC   C1B15253   0.306  16.129   6.194 -0.2692  0.0983 -0.0521
 1069YOPC   C2B15254   0.268  15.978   6.544  0.0168 -0.1840 -0.0097
 1069YOPC   D3B15255   0.374  16.111   7.037  0.2516  0.3129  0.0096
 1069YOPC   C4B15256   0.364  16.560   7.206 -0.0933 -0.2147  0.1380
 1070YOPC   NC315257   4.022   7.928   5.503 -0.1337  0.1877  0.1101
 1070YOPC   PO415258   3.589   8.082   5.512  0.1105 -0.0668  0.1374
 1070YOPC   GL115259   3.520   7.884   5.863 -0.0811 -0.0637 -0.0417
 1070YOPC   GL215260   3.763   7.990   6.105  0.2483 -0.0465 -0.3111
 1070YOPC   C1A15261   3.560   7.592   6.365  0.0437  0.0529  0.1461
 1070YOPC   D2A15262   3.644   7.618   6.867  0.3211 -0.3019 -0.1512
 1070YOPC   C3A15263   3.298   7.852   7.175  0.2376 -0.1855  0.1485
 1070YOPC   C4A15264   2.903   8.034   7.080  0.2494 -0.2080 -0.0277
 1070YOPC   C1B15265   3.459   8.067   6.408 -0.0651 -0.2342 -0.1782
 1070YOPC   C2B15266   3.210   8.249   6.782 -0.0568 -0.0652 -0.3367
 1070YOPC   D3B15267   3.224   8.429   7.214 -0.1136  0.1962  0.0689
 1070YOPC   C4B15268   3.411   8.727   7.616  0.0993 -0.3799 -0.0772
 1071YOPC   NC315269   0.855   3.309   5.324  0.2105 -0.1599  0.1057
 1071YOPC   PO415270   0.818   3.349   5.813 -0.0092 -0.0240 -0.2407
 1071YOPC   GL115271   0.599   3.467   6.088  0.3218 -0.0390  0.1230
 1071YOPC   GL215272   0.285   3.405   6.031  0.0131  0.2732  0.0529
 1071YOPC   C1A15273   0.571   3.511   6.571  0.0950  0.0733  0.0236
 1071YOPC   D2A15274   0.323   3.527   6.927 -0.3505  0.1090 -0.0731
 1071YOPC   C3A15275   0.685   3.333   7.171  0.2463  0.2376  0.4020
 1071YOPC   C4A15276   0.881   3.392   7.578  0.2061 -0.0544 -0.0255
 1071YOPC   C1B15277  -0.144   3.592   6.277 -0.0611 -0.2336  0.1886
 1071YOPC   C2B15278  -0.223   3.652   6.656 -0.2509 -0.1387  0.1650
 1071YOPC   D3B15279  -0.570   3.512   6.719 -0.0422  0.1222 -0.5097
 1071YOPC   C4B15280  -0.880   3.368   7.001  0.0431 -0.0680 -0.0723
 1072YOPC   NC315281  17.005  13.239   5.690 -0.0675  0.0602  0.1385
 1072YOPC   PO415282  16.938  13.661   5.689 -0.2542 -0.2554  0.2110
 1072YOPC   GL115283  16.677  13.759   6.072  0.0563  0.2434 -0.0610
 1072YOPC   GL215284  16.295  13.623   6.118  0.1217 -0.0869  0.0717
 1072YOPC   C1A15285  16.455  13.932   6.489 -0.1336  0.1465  0.0900
 1072YOPC   D2A15286  16.410  13.819   6.938 -0.0591  0.2327 -0.2045
 1072YOPC   C3A15287  16.082  13.721   7.233  0.1354  0.3202  0.1664
 1072YOPC   C4A15288  15.818  13.391   7.411 -0.1524 -0.0924  0.2182
 1072YOPC   C1B15289  16.159  13.518   6.466 -0.0697 -0.0223  0.1215
 1072YOPC   C2B15290  16.119  13.355   6.841 -0.1694 -0.1951  0.0941
 1072YOPC   D3B15291  15.691  13.429   6.943  0.2140  0.0222 -0.0801
 1072YOPC   C4B15292  15.615  13.800   7.195 -0.1038  0.0607 -0.1655
 1073YOPC   NC315293  12.247  11.326   6.174 -0.0020 -0.2538 -0.0087
 1073YOPC   PO415294  11.986  10.942   6.154 -0.0515  0.0503  0.0138
 1073YOPC   GL115295  11.824  10.845   6.502 -0.2105 -0.1850 -0.0133
 1073YOPC   GL215296  11.447  10.923   6.542 -0.0578  0.0196  0.0955
 1073YOPC   C1A15297  11.669  10.921   6.998 -0.0687 -0.0340 -0.2172
 1073YOPC   D2A15298  11.440  11.027   7.319 -0.0735 -0.1293 -0.0213
 1073YOPC   C3A15299  11.628  11.028   7.688 -0.1118  0.5520 -0.0455
 1073YOPC   C4A15300  11.420  10.851   8.006 -0.0379  0.2349  0.2336
 1073YOPC   C1B15301  11.581  10.515   6.779 -0.1307 -0.1585 -0.0260
 1073YOPC   C2B15302  11.551  10.500   7.265 -0.0154  0.3827  0.1649
 1073YOPC   D3B15303  11.301  10.254   7.560 -0.1018 -0.0965 -0.1841
 1073YOPC   C4B15304  10.838  10.184   7.742  0.3060  0.2083 -0.3185
 1074YOPC   NC315305   2.829   5.050   5.703  0.1518  0.1106 -0.2207
 1074YOPC   PO415306   2.586   5.374   5.930 -0.0264  0.0757 -0.0711
 1074YOPC   GL115307   2.538   5.701   6.162  0.4074  0.1214 -0.2323
 1074YOPC   GL215308   2.444   5.475   6.470 -0.2067 -0.1018 -0.0192
 1074YOPC   C1A15309   2.659   5.945   6.516  0.0723 -0.1598  0.2285
 1074YOPC   D2A15310   2.715   5.993   6.901  0.0482  0.1276  0.3730
 1074YOPC   C3A15311   2.829   6.084   7.270  0.1682 -0.0036 -0.2364
 1074YOPC   C4A15312   3.126   6.410   7.491  0.3077 -0.2002 -0.0103
 1074YOPC   C1B15313   2.543   5.487   6.888 -0.0049 -0.2373 -0.0860
 1074YOPC   C2B15314   2.679   5.600   7.284 -0.0438  0.3117  0.2499
 1074YOPC   D3B15315   2.518   5.361   7.597  0.0233 -0.0368 -0.0534
 1074YOPC   C4B15316   2.733   5.054   7.739 -0.1586 -0.0809  0.1906
 1075YOPC   NC315317   5.307  10.994   5.549 -0.3473 -0.0209  0.0567
 1075YOPC   PO415318   5.188  11.132   5.971 -0.0562 -0.0104  0.1564
 1075YOPC   GL115319   5.179  10.893   6.327 -0.1833 -0.1566  0.1455
 1075YOPC   GL215320   5.260  10.565   6.275 -0.4056  0.0184 -0.2868
 1075YOPC   C1A15321   4.967  10.679   6.684  0.2005  0.2300 -0.2250
 1075YOPC   D2A15322   4.620  10.476   6.658 -0.0414 -0.1652  0.2365
 1075YOPC   C3A15323   4.377  10.694   7.092 -0.1178 -0.2328  0.2216
 1075YOPC   C4A15324   4.222  10.619   7.621  0.0617  0.1926 -0.1056
 1075YOPC   C1B15325   5.441  10.709   6.676  0.0938  0.0899  0.2073
 1075YOPC   C2B15326   5.376  10.549   7.051  0.0292 -0.1821  0.1359
 1075YOPC   D3B15327   5.227  10.825   7.397 -0.0472 -0.0084  0.3788
 1075YOPC   C4B15328   5.529  10.973   7.729 -0.0693 -0.3875  0.1272
 1076YOPC   NC315329  12.958  15.987   5.641 -0.0516 -0.0461 -0.0128
 1076YOPC   PO415330  13.076  15.546   5.725 -0.2005  0.0456 -0.2168
 1076YOPC   GL115331  13.241  15.452   6.121  0.4135  0.0256 -0.0179
 1076YOPC   GL215332  13.143  15.135   6.122  0.0663 -0.1878 -0.0115
 1076YOPC   C1A15333  13.364  15.673   6.430 -0.0845 -0.0902 -0.0420
 1076YOPC   D2A15334  13.312  15.946   6.764  0.0302 -0.2558 -0.1840
 1076YOPC   C3A15335  13.158  15.848   7.107 -0.1006 -0.3218 -0.4060
 1076YOPC   C4A15336  13.279  15.533   7.275 -0.0840  0.0337  0.2946
 1076YOPC   C1B15337  13.273  14.940   6.527 -0.1958  0.1870  0.0810
 1076YOPC   C2B15338  12.945  14.802   6.812  0.1149 -0.4097  0.4077
 1076YOPC   D3B15339  12.781  14.798   7.297  0.2167 -0.0717 -0.3942
 1076YOPC   C4B15340  13.129  14.537   7.296 -0.0918  0.0181  0.1245
 1077YOPC   NC315341   7.494  18.400   5.612  0.0547  0.0865  0.1684
 1077YOPC   PO415342   7.867  18.525   5.744  0.3163 -0.3743  0.2444
 1077YOPC   GL115343   7.844  18.522   6.214  0.0095 -0.3625 -0.0101
 1077YOPC   GL215344   7.975  18.749   6.476  0.1414  0.1924 -0.1755
 1077YOPC   C1A15345   7.632  18.497   6.694  0.1560  0.3207 -0.3266
 1077YOPC   D2A15346   7.559  18.420   7.153 -0.0469  0.0036  0.1771
 1077YOPC   C3A15347   7.274  18.612   7.381 -0.1077  0.1290  0.3162
 1077YOPC   C4A15348   7.007  18.908   7.359 -0.1729  0.5782 -0.1881
 1077YOPC   C1B15349   7.739  18.951   6.696  0.1835  0.0659 -0.3468
 1077YOPC   C2B15350   7.664  18.916   7.198 -0.1277  0.2866  0.1771
 1077YOPC   D3B15351   7.943  19.031   7.422 -0.0875  0.3909  0.1848
 1077YOPC   C4B15352   8.152  18.811   7.710 -0.2300  0.2650 -0.3199
 1078YOPC   NC315353   2.536   3.474   5.444  0.0648  0.0551 -0.1307
 1078YOPC   PO415354   2.130   3.404   5.687 -0.1663 -0.1079 -0.3378
 1078YOPC   GL115355   1.792   3.410   5.975 -0.0159  0.1331  0.2840
 1078YOPC   GL215356   1.550   3.160   6.077 -0.1590 -0.1584  0.1746
 1078YOPC   C1A15357   1.759   3.566   6.426 -0.1198 -0.4160 -0.1003
 1078YOPC   D2A15358   1.523   3.533   6.700 -0.1737 -0.0841  0.1100
 1078YOPC   C3A15359   1.676   3.506   7.125  0.0452 -0.1632 -0.1674
 1078YOPC   C4A15360   1.961   3.707   7.404  0.0973 -0.4223  0.0314
 1078YOPC   C1B15361   1.562   2.800   6.391 -0.2608 -0.1138  0.0165
 1078YOPC   C2B15362   1.870   2.444   6.642  0.3400  0.0150  0.1089
 1078YOPC   D3B15363   1.723   2.066   6.717  0.1909 -0.1537 -0.2055
 1078YOPC   C4B15364   1.563   2.064   7.064  0.1737  0.2381 -0.0640
 1079YOPC   NC315365   7.057   9.901   5.630 -0.1410  0.0322  0.0311
 1079YOPC   PO415366   7.274   9.500   5.712 -0.0540 -0.1964  0.0329
 1079YOPC   GL115367   7.413   9.363   6.137 -0.0573  0.0705 -0.0331
 1079YOPC   GL215368   7.151   9.319   6.239 -0.1993  0.2150  0.1185
 1079YOPC   C1A15369   7.640   9.275   6.429  0.3572 -0.1547 -0.2967
 1079YOPC   D2A15370   7.764   9.458   6.808 -0.0567  0.1083 -0.1454
 1079YOPC   C3A15371   8.045   9.773   7.062 -0.1460  0.0916 -0.3519
 1079YOPC   C4A15372   8.126  10.065   7.424 -0.4153  0.0446  0.0366
 1079YOPC   C1B15373   7.260   9.533   6.663 -0.0572 -0.3496  0.0589
 1079YOPC   C2B15374   7.097   9.932   6.789  0.0210 -0.3461 -0.1158
 1079YOPC   D3B15375   7.069   9.942   7.214 -0.3719 -0.2390  0.0597
 1079YOPC   C4B15376   7.102   9.909   7.591  0.1562 -0.3146  0.2017
 1080YOPC   NC315377  14.255  18.321   5.514 -0.0026 -0.0606 -0.0369
 1080YOPC   PO415378  14.015  18.027   5.706  0.0456  0.1053  0.2249
 1080YOPC   GL115379  14.001  17.890   6.064 -0.2874 -0.2218  0.1418
 1080YOPC   GL215380  14.291  17.785   6.135  0.1975 -0.2053  0.2159
 1080YOPC   C1A15381  14.055  17.824   6.575 -0.1320  0.2699  0.2037
 1080YOPC   D2A15382  14.235  17.519   6.846  0.2813  0.3561  0.0934
 1080YOPC   C3A15383  14.395  17.669   7.270 -0.2270  0.1540  0.0734
 1080YOPC   C4A15384  14.776  17.731   7.495  0.1474  0.4370  0.2273
 1080YOPC   C1B15385  14.523  18.035   6.481 -0.1182  0.1211 -0.1104
 1080YOPC   C2B15386  14.972  18.204   6.670 -0.1139  0.1713 -0.2741
 1080YOPC   D3B15387  15.101  17.842   6.632  0.0694 -0.2140 -0.2825
 1080YOPC   C4B15388  15.186  17.458   6.852  0.0912  0.0344 -0.1434
 1081YOPC   NC315389   6.289   6.852   5.528  0.0880  0.1298 -0.0103
 1081YOPC   PO415390   6.584   6.677   5.900 -0.1006 -0.1421 -0.0141
 1081YOPC   GL115391   6.350   6.980   6.189 -0.0201 -0.0046 -0.1193
 1081YOPC   GL215392   6.555   7.091   6.314 -0.2643 -0.0978  0.1775
 1081YOPC   C1A15393   5.920   6.979   6.487 -0.0722 -0.2096 -0.3142
 1081YOPC   D2A15394   5.896   7.284   6.836  0.1455  0.2375  0.0215
 1081YOPC   C3A15395   6.196   7.287   7.215  0.1641  0.3174  0.0844
 1081YOPC   C4A15396   6.418   7.156   7.480  0.3573  0.3935 -0.0870
 1081YOPC   C1B15397   6.369   7.128   6.732  0.0413  0.2338 -0.1325
 1081YOPC   C2B15398   6.033   6.780   6.954 -0.3771 -0.0942 -0.0070
 1081YOPC   D3B15399   5.800   6.944   7.244  0.0367 -0.4371 -0.0755
 1081YOPC   C4B15400   5.752   6.950   7.601 -0.1055  0.1501  0.2066
 1082YOPC   NC315401   1.639  10.247   5.982 -0.0672 -0.4167 -0.2642
 1082YOPC   PO415402   1.722  10.608   5.881  0.1667 -0.3057  0.2258
 1082YOPC   GL115403   1.505  10.748   6.276  0.1769  0.0581  0.0140
 1082YOPC   GL215404   1.555  10.451   6.483 -0.2491  0.0903  0.0065
 1082YOPC   C1A15405   1.616  11.032   6.697  0.1869  0.0760 -0.2515
 1082YOPC   D2A15406   1.551  10.953   7.168  0.0497 -0.0182  0.0592
 1082YOPC   C3A15407   1.577  11.329   7.476 -0.0048 -0.1340 -0.0008
 1082YOPC   C4A15408   1.767  11.473   7.863 -0.4825  0.2031  0.0623
 1082YOPC   C1B15409   1.936  10.639   6.625 -0.1163 -0.0550 -0.2334
 1082YOPC   C2B15410   2.174  10.757   7.008 -0.1362  0.2457  0.0981
 1082YOPC   D3B15411   1.992  10.903   7.334  0.1670 -0.0796 -0.0427
 1082YOPC   C4B15412   2.065  11.033   7.679 -0.3241 -0.3185 -0.0104
 1083YOPC   NC315413  12.807  14.234   5.699  0.1057  0.1549  0.1843
 1083YOPC   PO415414  12.384  14.075   5.575  0.1849  0.1925 -0.1299
 1083YOPC   GL115415  12.242  13.777   5.910 -0.1273 -0.0283 -0.1462
 1083YOPC   GL215416  12.438  13.537   6.006  0.2219 -0.2202  0.4633
 1083YOPC   C1A15417  12.172  13.907   6.325 -0.0341 -0.2255  0.0182
 1083YOPC   D2A15418  12.328  14.287   6.535 -0.0318  0.1683  0.0620
 1083YOPC   C3A15419  12.544  14.435   6.975  0.1919  0.1285 -0.2114
 1083YOPC   C4A15420  12.457  14.413   7.304 -0.0320 -0.0332  0.0846
 1083YOPC   C1B15421  12.305  13.399   6.333  0.1419 -0.5066 -0.2112
 1083YOPC   C2B15422  12.384  13.520   6.725 -0.1150 -0.0502  0.0512
 1083YOPC   D3B15423  12.511  13.296   7.092  0.0210  0.0730  0.1269
 1083YOPC   C4B15424  12.753  12.937   7.398  0.1470 -0.3230  0.1042
 1084YOPC   NC315425  14.678   3.211   5.380  0.0241  0.0080  0.2615
 1084YOPC   PO415426  14.545   3.324   5.764  0.0824 -0.1431  0.0653
 1084YOPC   GL115427  14.623   3.230   6.236 -0.1198  0.0361 -0.0561
 1084YOPC   GL215428  14.922   3.353   6.371  0.3014  0.1208  0.0168
 1084YOPC   C1A15429  14.426   3.412   6.549  0.0212 -0.0262 -0.0424
 1084YOPC   D2A15430  14.365   3.481   6.949  0.1179 -0.3597  0.3423
 1084YOPC   C3A15431  14.747   3.473   7.267  0.0990 -0.1366  0.2314
 1084YOPC   C4A15432  15.038   3.565   7.677  0.0006  0.1304 -0.1207
 1084YOPC   C1B15433  15.299   3.271   6.648  0.0701  0.0592  0.1224
 1084YOPC   C2B15434  15.283   3.444   7.100 -0.0771 -0.1508 -0.2143
 1084YOPC   D3B15435  15.563   3.634   7.403  0.1594  0.2348  0.0090
 1084YOPC   C4B15436  15.992   3.804   7.574  0.0042  0.1498  0.0868
 1085YOPC   NC315437  17.819   5.326   5.308 -0.2995  0.3680 -0.6164
 1085YOPC   PO415438  17.910   5.204   5.751  0.1177 -0.1505 -0.4342
 1085YOPC   GL115439  17.824   5.004   6.107  0.0172  0.3783 -0.1653
 1085YOPC   GL215440  17.464   5.086   6.108  0.1847  0.0685 -0.0248
 1085YOPC   C1A15441  17.965   4.923   6.530 -0.2885  0.1771  0.1625
 1085YOPC   D2A15442  18.107   5.031   6.873 -0.2339 -0.1911 -0.1689
 1085YOPC   C3A15443  18.147   4.950   7.398  0.1226  0.1935 -0.0579
 1085YOPC   C4A15444  18.613   4.917   7.554  0.3039 -0.1970 -0.1181
 1085YOPC   C1B15445  17.489   5.209   6.547 -0.2438 -0.0241 -0.2958
 1085YOPC   C2B15446  17.592   5.176   7.023  0.1452  0.1790  0.1632
 1085YOPC   D3B15447  17.712   5.252   7.477  0.0931  0.0369  0.2967
 1085YOPC   C4B15448  17.717   5.652   7.828  0.2041 -0.1491 -0.1775
 1086YOPC   NC315449   8.799   4.069   5.644 -0.2797 -0.2385  0.0821
 1086YOPC   PO415450   8.452   4.091   5.845  0.0014  0.0705  0.0121
 1086YOPC   GL115451   8.253   4.027   6.295 -0.0955  0.1955  0.0806
 1086YOPC   GL215452   7.931   3.991   6.411 -0.1743 -0.1603 -0.0121
 1086YOPC   C1A15453   8.303   3.712   6.723  0.0338  0.2861  0.0018
 1086YOPC   D2A15454   8.017   3.699   6.983  0.1590  0.2300  0.0081
 1086YOPC   C3A15455   8.081   4.019   7.313 -0.1347 -0.0705  0.0819
 1086YOPC   C4A15456   8.436   4.303   7.416 -0.1628 -0.1681  0.2529
 1086YOPC   C1B15457   7.868   4.171   6.894  0.0236  0.0120  0.1191
 1086YOPC   C2B15458   7.926   4.498   7.190  0.0310  0.0917 -0.2489
 1086YOPC   D3B15459   8.021   4.594   7.666  0.0535 -0.1536  0.3016
 1086YOPC   C4B15460   7.948   4.430   8.047 -0.1405 -0.0674 -0.0967
 1087YOPC   NC315461  11.417   3.853   5.507 -0.1644 -0.3242 -0.0438
 1087YOPC   PO415462  11.883   3.843   5.611  0.2766  0.2240  0.1921
 1087YOPC   GL115463  11.718   3.879   5.988 -0.4691 -0.4391  0.5237
 1087YOPC   GL215464  12.030   3.598   6.021  0.1308 -0.2123 -0.1314
 1087YOPC   C1A15465  11.332   4.046   6.186 -0.1556  0.0458 -0.0258
 1087YOPC   D2A15466  11.178   4.410   6.392  0.0319 -0.0640 -0.1758
 1087YOPC   C3A15467  10.863   4.669   6.714 -0.0668  0.2730 -0.0914
 1087YOPC   C4A15468  10.645   4.890   7.036  0.2274 -0.2435  0.2086
 1087YOPC   C1B15469  12.190   3.897   6.414 -0.1736  0.0593 -0.0543
 1087YOPC   C2B15470  12.641   3.971   6.645  0.1973  0.2501  0.1772
 1087YOPC   D3B15471  12.805   4.090   7.018  0.0444 -0.1890  0.4354
 1087YOPC   C4B15472  12.849   4.233   7.413  0.2147 -0.0447  0.0952
 1088YOPC   NC315473   0.684  16.825   5.029  0.0049 -0.0099  0.0343
 1088YOPC   PO415474   0.792  17.308   5.267  0.2908 -0.0905  0.0309
 1088YOPC   GL115475   0.785  17.408   5.654 -0.1350 -0.1521  0.0543
 1088YOPC   GL215476   1.135  17.330   5.778 -0.2728  0.1740 -0.0383
 1088YOPC   C1A15477   0.780  17.158   6.063 -0.1139  0.1210 -0.1112
 1088YOPC   D2A15478   0.616  16.711   5.970  0.1165 -0.1413 -0.2434
 1088YOPC   C3A15479   0.188  16.629   6.160 -0.0580 -0.0763  0.3291
 1088YOPC   C4A15480  -0.184  16.478   5.965 -0.1073  0.1792  0.2402
 1088YOPC   C1B15481   1.408  17.442   6.033 -0.2513  0.1826  0.4692
 1088YOPC   C2B15482   1.556  17.425   6.419 -0.0239 -0.4129 -0.3782
 1088YOPC   D3B15483   1.422  17.684   6.644  0.0038  0.0329  0.0252
 1088YOPC   C4B15484   1.117  17.687   6.860  0.1054 -0.0183 -0.1209
 1089YOPC   NC315485  17.030   4.229   5.264 -0.3192  0.5046 -0.0294
 1089YOPC   PO415486  17.065   4.465   5.606  0.1780  0.2204  0.1416
 1089YOPC   GL115487  17.286   4.568   6.004  0.0624  0.0483 -0.0820
 1089YOPC   GL215488  17.073   4.857   6.209 -0.1464 -0.3942 -0.2047
 1089YOPC   C1A15489  17.538   4.675   6.415 -0.1402  0.2174  0.0518
 1089YOPC   D2A15490  17.728   4.490   6.775  0.1042  0.3462 -0.1975
 1089YOPC   C3A15491  17.657   4.685   7.168 -0.2137  0.1338  0.0518
 1089YOPC   C4A15492  17.678   4.810   7.615 -0.0049 -0.0145  0.0731
 1089YOPC   C1B15493  17.023   4.408   6.408  0.1058 -0.1575 -0.0276
 1089YOPC   C2B15494  17.070   4.177   6.703 -0.0247  0.0283  0.1467
 1089YOPC   D3B15495  17.387   4.254   7.093 -0.1219 -0.0376  0.2053
 1089YOPC   C4B15496  17.367   4.395   7.520  0.2524 -0.0392 -0.1555
 1090YOPC   NC315497   2.266  14.159   5.754  0.2947  0.2117 -0.3002
 1090YOPC   PO415498   1.871  13.762   5.603 -0.2137 -0.2277 -0.3270
 1090YOPC   GL115499   1.826  14.043   6.031  0.1393 -0.0378 -0.1227
 1090YOPC   GL215500   2.109  14.321   6.187 -0.0488 -0.2004  0.0552
 1090YOPC   C1A15501   1.667  14.146   6.450  0.0105 -0.2291  0.1372
 1090YOPC   D2A15502   1.540  13.776   6.728 -0.2709 -0.2506  0.1731
 1090YOPC   C3A15503   1.881  13.360   6.656 -0.0426 -0.1262 -0.3503
 1090YOPC   C4A15504   2.030  13.109   6.383 -0.2325  0.0743 -0.2264
 1090YOPC   C1B15505   2.218  14.268   6.552 -0.2300  0.2579 -0.2405
 1090YOPC   C2B15506   2.538  14.095   6.879  0.1963  0.1179  0.0171
 1090YOPC   D3B15507   2.844  13.667   6.818 -0.0195  0.3960  0.1651
 1090YOPC   C4B15508   2.986  13.214   6.711  0.2595  0.1941  0.3596
 1091YOPC   NC315509  18.128   6.381   5.695 -0.2170 -0.3890  0.1200
 1091YOPC   PO415510  17.910   6.043   5.682 -0.0762  0.2799  0.0109
 1091YOPC   GL115511  17.811   6.214   6.072 -0.1060 -0.1551 -0.2795
 1091YOPC   GL215512  17.977   6.460   6.188  0.1374  0.1060  0.4541
 1091YOPC   C1A15513  17.888   6.059   6.484 -0.2994  0.1510  0.0515
 1091YOPC   D2A15514  18.186   5.934   6.738 -0.3375 -0.0449 -0.1843
 1091YOPC   C3A15515  18.176   6.154   7.147 -0.0627  0.0973  0.0475
 1091YOPC   C4A15516  18.353   6.429   7.407 -0.0658  0.0405 -0.0758
 1091YOPC   C1B15517  17.905   6.679   6.557 -0.0163 -0.4160  0.1854
 1091YOPC   C2B15518  17.862   7.083   6.808 -0.0940 -0.0488 -0.1690
 1091YOPC   D3B15519  17.703   7.341   7.058  0.0376  0.1819 -0.0462
 1091YOPC   C4B15520  17.456   7.528   7.374  0.1146  0.0907 -0.0643
 1092YOPC   NC315521   5.768   5.423   5.029  0.0215 -0.1154  0.1197
 1092YOPC   PO415522   5.691   5.518   5.446  0.1080 -0.0262  0.0420
 1092YOPC   GL115523   5.671   5.597   5.879  0.1013 -0.2270 -0.2345
 1092YOPC   GL215524   5.400   5.382   5.803  0.2279  0.1342  0.0381
 1092YOPC   C1A15525   5.470   5.838   6.210 -0.3819 -0.3438  0.0995
 1092YOPC   D2A15526   5.400   6.153   6.599 -0.0696 -0.0254  0.2010
 1092YOPC   C3A15527   5.783   6.335   6.638  0.0184  0.2130  0.0980
 1092YOPC   C4A15528   6.161   6.491   6.451  0.3300 -0.0545  0.2297
 1092YOPC   C1B15529   5.637   5.327   6.334 -0.2784  0.0037 -0.3539
 1092YOPC   C2B15530   5.669   4.952   6.443  0.1433 -0.1055 -0.0635
 1092YOPC   D3B15531   5.370   4.885   6.835  0.2594  0.1851 -0.0332
 1092YOPC   C4B15532   5.694   4.808   7.213  0.2206 -0.0991 -0.1793
 1093YOPC   NC315533  14.643  17.136   5.490  0.2572  0.1997  0.0834
 1093YOPC   PO415534  14.274  16.867   5.628  0.1030 -0.2517 -0.1155
 1093YOPC   GL115535  14.483  16.684   5.921  0.1683  0.3099  0.2616
 1093YOPC   GL215536  14.282  16.483   6.129  0.0738  0.1179  0.0375
 1093YOPC   C1A15537  14.537  16.973   6.287 -0.0623 -0.1519 -0.2234
 1093YOPC   D2A15538  14.730  17.365   6.438  0.0122  0.3455 -0.2017
 1093YOPC   C3A15539  14.678  17.665   6.869 -0.0046 -0.0799  0.0235
 1093YOPC   C4A15540  14.395  18.017   6.944 -0.4960 -0.0976 -0.2003
 1093YOPC   C1B15541  14.128  16.506   6.589 -0.0090  0.0884  0.0175
 1093YOPC   C2B15542  14.197  16.507   6.946  0.0045  0.0241  0.0182
 1093YOPC   D3B15543  14.100  16.670   7.371 -0.1564 -0.1575 -0.0390
 1093YOPC   C4B15544  14.118  17.074   7.619  0.1029 -0.0013  0.2798
 1094YOPC   NC315545  14.437   2.415   5.896  0.0223 -0.1493  0.2104
 1094YOPC   PO415546  14.277   2.905   5.996  0.1131 -0.2121 -0.0671
 1094YOPC   GL115547  14.373   2.707   6.377  0.0187 -0.1717  0.0215
 1094YOPC   GL215548  14.503   2.860   6.576 -0.0300  0.0590  0.0918
 1094YOPC   C1A15549  14.275   2.292   6.520 -0.3716 -0.0801  0.0326
 1094YOPC   D2A15550  14.032   2.029   6.641  0.0614 -0.1339 -0.0504
 1094YOPC   C3A15551  14.113   2.045   7.021 -0.3575  0.2264 -0.1560
 1094YOPC   C4A15552  13.917   1.760   7.272  0.2833  0.2997 -0.0419
 1094YOPC   C1B15553  14.781   3.181   6.864 -0.1055 -0.1250 -0.1665
 1094YOPC   C2B15554  14.785   3.682   6.785 -0.2001  0.0489  0.0054
 1094YOPC   D3B15555  14.956   3.880   7.068 -0.3075 -0.1220 -0.0799
 1094YOPC   C4B15556  15.144   4.073   7.337 -0.2108  0.1179  0.0121
 1095YOPC   NC315557   3.037   0.605   5.143  0.0661  0.1769 -0.0313
 1095YOPC   PO415558   2.764   0.261   5.217 -0.0485  0.1338 -0.1465
 1095YOPC   GL115559   2.535   0.333   5.672 -0.0440 -0.2313 -0.1595
 1095YOPC   GL215560   2.279   0.472   5.812  0.0333  0.1547  0.2323
 1095YOPC   C1A15561   2.723   0.470   6.084  0.0184  0.0386 -0.1149
 1095YOPC   D2A15562   2.914   0.782   6.348 -0.0351  0.0414  0.3531
 1095YOPC   C3A15563   2.954   0.714   6.917 -0.2141  0.0114  0.0089
 1095YOPC   C4A15564   3.136   0.758   7.438  0.0982  0.1291  0.1401
 1095YOPC   C1B15565   2.229   0.370   6.200  0.2352 -0.0601 -0.0960
 1095YOPC   C2B15566   2.202   0.058   6.590 -0.0670 -0.1657  0.2507
 1095YOPC   D3B15567   2.071  -0.139   6.976  0.3770 -0.1384  0.0417
 1095YOPC   C4B15568   2.291  -0.112   7.338 -0.0856  0.1582  0.3527
 1096YOPC   NC315569  11.716   5.283   5.734  0.2581  0.1563 -0.3249
 1096YOPC   PO415570  11.843   5.008   6.156  0.4094  0.0304  0.0355
 1096YOPC   GL115571  11.840   4.928   6.524  0.1970  0.1313 -0.0632
 1096YOPC   GL215572  12.117   5.146   6.630 -0.0927  0.2813  0.1677
 1096YOPC   C1A15573  11.782   5.000   6.944  0.1713 -0.0064  0.0162
 1096YOPC   D2A15574  11.720   4.663   7.210  0.0317  0.0816 -0.1965
 1096YOPC   C3A15575  11.844   4.232   7.230 -0.1781  0.2023 -0.1482
 1096YOPC   C4A15576  11.880   3.811   7.246  0.4954 -0.0199 -0.1799
 1096YOPC   C1B15577  12.099   4.673   6.820 -0.0122  0.2962 -0.0481
 1096YOPC   C2B15578  11.937   4.337   6.703  0.0925 -0.2508 -0.0753
 1096YOPC   D3B15579  11.614   3.981   6.715  0.0507 -0.0060  0.1706
 1096YOPC   C4B15580  11.546   3.578   6.957 -0.1270  0.2633  0.2367
 1097YOPC   NC315581   5.082   0.333   5.804  0.1035  0.2408 -0.0120
 1097YOPC   PO415582   4.650   0.152   5.706  0.1166  0.0503 -0.0178
 1097YOPC   GL115583   4.559   0.137   6.084 -0.1661 -0.0806 -0.2270
 1097YOPC   GL215584   4.813   0.035   6.177 -0.1657  0.1854 -0.4517
 1097YOPC   C1A15585   4.365   0.353   6.387 -0.1893  0.0629 -0.1183
 1097YOPC   D2A15586   4.216   0.458   6.865 -0.0184  0.0566  0.2518
 1097YOPC   C3A15587   4.203   0.635   7.256  0.1389 -0.1479  0.1515
 1097YOPC   C4A15588   4.058   0.848   7.609  0.1646 -0.2013 -0.2684
 1097YOPC   C1B15589   4.716   0.082   6.684  0.1684  0.0742  0.0708
 1097YOPC   C2B15590   4.615   0.200   7.032 -0.1266 -0.3099 -0.1643
 1097YOPC   D3B15591   4.432   0.067   7.288 -0.0240 -0.2965 -0.0112
 1097YOPC   C4B15592   4.386  -0.378   7.304 -0.0491 -0.1725  0.2877
 1098YOPC   NC315593  10.544  14.995   5.536  0.1228  0.1292 -0.0416
 1098YOPC   PO415594  10.404  14.873   5.993 -0.1942 -0.3057  0.3159
 1098YOPC   GL115595  10.214  14.891   6.445 -0.0738 -0.0101  0.2245
 1098YOPC   GL215596  10.498  14.877   6.485 -0.1780  0.1744 -0.0951
 1098YOPC   C1A15597   9.963  15.036   6.792 -0.1303  0.0199 -0.0219
 1098YOPC   D2A15598   9.605  14.914   7.189  0.1661  0.0245  0.1451
 1098YOPC   C3A15599   9.651  15.026   7.539  0.1745  0.0894 -0.3096
 1098YOPC   C4A15600   9.489  15.035   7.919 -0.1660  0.2880  0.2082
 1098YOPC   C1B15601  10.491  14.930   6.941  0.2245  0.2330  0.0187
 1098YOPC   C2B15602  10.723  14.709   7.277  0.4141  0.1204  0.2955
 1098YOPC   D3B15603  10.923  14.466   7.605 -0.0909 -0.0957  0.3576
 1098YOPC   C4B15604  10.949  14.637   8.101 -0.0391  0.0451 -0.0754
 1099YOPC   NC315605  13.451   4.095   5.572 -0.0849  0.2190  0.1823
 1099YOPC   PO415606  13.803   4.385   5.572  0.0148  0.1536 -0.1993
 1099YOPC   GL115607  13.990   4.478   6.098 -0.0358 -0.1654 -0.0199
 1099YOPC   GL215608  14.196   4.154   6.265 -0.4197  0.3129 -0.0471
 1099YOPC   C1A15609  14.040   4.587   6.587  0.1612  0.1452 -0.1448
 1099YOPC   D2A15610  14.301   4.583   6.918 -0.4294  0.0988 -0.2468
 1099YOPC   C3A15611  14.157   4.488   7.299 -0.3274 -0.0138 -0.0992
 1099YOPC   C4A15612  14.308   4.482   7.755 -0.2466  0.0051 -0.1259
 1099YOPC   C1B15613  14.342   4.074   6.708  0.4350  0.0452  0.7297
 1099YOPC   C2B15614  14.331   3.946   7.091  0.1311  0.0219 -0.0837
 1099YOPC   D3B15615  14.228   3.575   7.408  0.0140  0.0633  0.0152
 1099YOPC   C4B15616  14.033   3.503   7.750 -0.0039  0.0666 -0.2010
 1100YOPC   NC315617  12.855   7.005   5.553  0.1600 -0.4236 -0.1899
 1100YOPC   PO415618  12.655   7.441   5.719 -0.0121  0.3081 -0.0447
 1100YOPC   GL115619  12.454   7.549   6.105 -0.4599 -0.2758  0.0126
 1100YOPC   GL215620  12.542   7.923   6.357  0.2390  0.1177  0.0043
 1100YOPC   C1A15621  12.417   7.490   6.550 -0.0616 -0.0992  0.2114
 1100YOPC   D2A15622  12.631   7.741   6.907  0.0046  0.2165 -0.3396
 1100YOPC   C3A15623  12.499   7.583   7.279  0.0442  0.2222 -0.0549
 1100YOPC   C4A15624  12.411   7.574   7.699 -0.1510  0.0462  0.0143
 1100YOPC   C1B15625  12.289   7.971   6.702 -0.0775 -0.4603 -0.0486
 1100YOPC   C2B15626  12.418   8.086   7.204  0.1127 -0.1710  0.0872
 1100YOPC   D3B15627  12.866   7.979   7.264  0.1676 -0.6326 -0.5906
 1100YOPC   C4B15628  13.254   7.852   7.259  0.1281 -0.0368 -0.1753
 1101YOPC   NC315629  14.338   3.730   5.932  0.2299 -0.1745  0.1064
 1101YOPC   PO415630  13.847   3.745   5.791 -0.2115  0.4784  0.0877
 1101YOPC   GL115631  13.529   3.747   6.160  0.2352 -0.0511  0.2403
 1101YOPC   GL215632  13.315   3.903   6.059 -0.0004 -0.1141  0.0619
 1101YOPC   C1A15633  13.186   3.680   6.541  0.1266 -0.0066 -0.3353
 1101YOPC   D2A15634  13.265   3.574   6.972  0.0382  0.2524  0.0331
 1101YOPC   C3A15635  13.519   3.370   7.216 -0.2426 -0.1104 -0.4880
 1101YOPC   C4A15636  13.614   3.198   7.648  0.1908  0.0558 -0.0861
 1101YOPC   C1B15637  13.646   4.187   6.325 -0.1750 -0.0448 -0.1032
 1101YOPC   C2B15638  13.582   4.411   6.591  0.1768 -0.1104 -0.0182
 1101YOPC   D3B15639  13.835   4.285   6.876 -0.1948 -0.3099 -0.1837
 1101YOPC   C4B15640  13.728   4.244   7.402 -0.1755 -0.0342  0.0712
 1102YOPC   NC315641   1.582   4.368   5.657 -0.0994  0.0679 -0.0789
 1102YOPC   PO415642   1.867   4.261   5.401 -0.0876 -0.1162  0.0793
 1102YOPC   GL115643   2.004   4.168   5.860 -0.2693  0.2269  0.1673
 1102YOPC   GL215644   2.244   3.839   5.951  0.1168 -0.2255  0.0181
 1102YOPC   C1A15645   1.758   4.213   6.304 -0.1039 -0.1085 -0.1353
 1102YOPC   D2A15646   1.452   4.006   6.520  0.2053  0.0824  0.2044
 1102YOPC   C3A15647   1.456   3.961   6.963 -0.1728  0.0872  0.1694
 1102YOPC   C4A15648   1.575   4.025   7.334 -0.3409 -0.0939  0.0938
 1102YOPC   C1B15649   2.227   3.946   6.416  0.0098  0.1056 -0.6318
 1102YOPC   C2B15650   1.987   3.915   6.846  0.1718 -0.1839 -0.0318
 1102YOPC   D3B15651   2.093   4.123   7.297 -0.0186 -0.3868  0.1537
 1102YOPC   C4B15652   1.898   4.097   7.819  0.0813  0.3107 -0.1695
 1103YOPC   NC315653  16.694  17.125   5.505  0.1281  0.0825  0.0825
 1103YOPC   PO415654  16.264  16.903   5.401 -0.1658  0.0384 -0.3520
 1103YOPC   GL115655  16.257  17.117   5.824 -0.1767  0.1603  0.0334
 1103YOPC   GL215656  16.119  17.443   5.973 -0.1877 -0.0450 -0.2779
 1103YOPC   C1A15657  16.395  17.062   6.248 -0.0336 -0.0763  0.3241
 1103YOPC   D2A15658  16.414  16.609   6.440 -0.2431  0.1945  0.0158
 1103YOPC   C3A15659  16.300  16.520   6.769  0.3459  0.1829 -0.0312
 1103YOPC   C4A15660  16.309  16.154   7.095  0.0247 -0.0749  0.0934
 1103YOPC   C1B15661  16.227  17.560   6.431  0.1276  0.5075  0.0382
 1103YOPC   C2B15662  16.539  17.447   6.773  0.2055 -0.0644  0.1385
 1103YOPC   D3B15663  16.457  17.196   7.141  0.0754 -0.0483  0.2563
 1103YOPC   C4B15664  16.365  16.773   7.315  0.0544  0.2793 -0.2321
 1104YOPC   NC315665  17.543   9.451   5.767 -0.0392  0.0100  0.2519
 1104YOPC   PO415666  17.658   9.746   6.019 -0.0888  0.0446  0.0422
 1104YOPC   GL115667  17.718   9.886   6.385 -0.1735 -0.2506  0.0803
 1104YOPC   GL215668  17.554   9.682   6.519  0.0039  0.0082  0.1875
 1104YOPC   C1A15669  17.496  10.198   6.579  0.0316  0.0431  0.2369
 1104YOPC   D2A15670  17.706  10.356   6.976 -0.1590 -0.0041  0.2090
 1104YOPC   C3A15671  17.594  10.621   7.399 -0.2851  0.1666  0.0433
 1104YOPC   C4A15672  17.599  10.960   7.700 -0.0138  0.0189 -0.0612
 1104YOPC   C1B15673  17.648   9.727   6.989 -0.1097  0.1767 -0.0096
 1104YOPC   C2B15674  17.656   9.560   7.456 -0.0981  0.1312 -0.1183
 1104YOPC   D3B15675  17.654   9.114   7.699  0.1798 -0.1997 -0.0235
 1104YOPC   C4B15676  17.871   8.975   8.068 -0.1046  0.0159 -0.1463
 1105YOPC   NC315677  17.569  18.071   5.494 -0.3820  0.1038  0.1754
 1105YOPC   PO415678  17.181  17.994   5.651 -0.1054  0.1241  0.3308
 1105YOPC   GL115679  17.423  17.795   5.865  0.1046 -0.1787 -0.2342
 1105YOPC   GL215680  17.138  17.624   6.084 -0.0141 -0.2298  0.0079
 1105YOPC   C1A15681  17.613  17.471   6.148 -0.3745  0.0280  0.0882
 1105YOPC   D2A15682  17.820  17.223   6.369 -0.5320  0.2876 -0.0391
 1105YOPC   C3A15683  18.163  17.326   6.708 -0.1707  0.0306  0.1592
 1105YOPC   C4A15684  18.581  17.335   6.998 -0.0292  0.2232 -0.0419
 1105YOPC   C1B15685  17.130  17.332   6.438 -0.3343 -0.3262  0.0420
 1105YOPC   C2B15686  16.850  16.895   6.515  0.2205 -0.1825 -0.4286
 1105YOPC   D3B15687  16.713  16.752   6.913  0.1921  0.3590  0.2639
 1105YOPC   C4B15688  16.854  16.699   7.257 -0.0205 -0.1121  0.1992
 1106YOPC   NC315689  17.957  11.214   5.926  0.1011  0.1208  0.2721
 1106YOPC   PO415690  17.833  11.458   5.591  0.0430  0.0286  0.2528
 1106YOPC   GL115691  17.806  11.731   6.071  0.0279  0.1057  0.1434
 1106YOPC   GL215692  17.600  11.524   6.262 -0.0196  0.2019  0.3802
 1106YOPC   C1A15693  17.979  11.902   6.425  0.0759  0.0834  0.0437
 1106YOPC   D2A15694  18.018  12.091   6.892 -0.1364 -0.0225  0.2636
 1106YOPC   C3A15695  18.148  12.302   7.193  0.0667  0.3395  0.1906
 1106YOPC   C4A15696  17.960  12.714   7.337 -0.1628  0.1134 -0.1553
 1106YOPC   C1B15697  17.769  11.439   6.681  0.1140 -0.0932  0.2748
 1106YOPC   C2B15698  17.875  11.559   7.098  0.1530  0.0867  0.0121
 1106YOPC   D3B15699  17.681  11.816   7.336 -0.2609 -0.0568  0.1331
 1106YOPC   C4B15700  17.326  12.103   7.557 -0.1959  0.0126  0.2374
 1107YOPC   NC315701   0.336   6.148   5.333 -0.1336  0.0084  0.4765
 1107YOPC   PO415702   0.089   6.035   5.706 -0.0950  0.0656 -0.0640
 1107YOPC   GL115703   0.205   5.991   6.084 -0.3750 -0.3010  0.0219
 1107YOPC   GL215704   0.434   5.793   6.207 -0.3386 -0.0273  0.1982
 1107YOPC   C1A15705   0.143   5.998   6.530  0.0750  0.1389  0.2480
 1107YOPC   D2A15706   0.076   6.231   6.929 -0.3342  0.0763 -0.0476
 1107YOPC   C3A15707   0.308   6.457   7.318  0.1080  0.2652  0.0652
 1107YOPC   C4A15708   0.628   6.622   7.546 -0.0511  0.1572  0.0662
 1107YOPC   C1B15709   0.779   5.946   6.468 -0.0731 -0.0726 -0.1518
 1107YOPC   C2B15710   1.128   5.913   6.810 -0.0597 -0.0293  0.1725
 1107YOPC   D3B15711   1.078   5.739   7.238 -0.0400 -0.1546  0.0858
 1107YOPC   C4B15712   1.225   5.849   7.671 -0.1365 -0.3180 -0.3541
 1108YOPC   NC315713   7.247  10.811   5.263  0.1210  0.1234  0.0446
 1108YOPC   PO415714   7.367  10.773   5.786  0.2585  0.0822  0.1409
 1108YOPC   GL115715   7.232  10.977   6.134 -0.3452  0.0081  0.2460
 1108YOPC   GL215716   6.991  10.817   6.413 -0.1522  0.0509 -0.0078
 1108YOPC   C1A15717   7.409  11.284   6.423  0.0791 -0.0122 -0.0110
 1108YOPC   D2A15718   7.537  11.418   6.756 -0.0123  0.2618  0.0767
 1108YOPC   C3A15719   7.622  11.149   7.102 -0.1483  0.3014  0.3227
 1108YOPC   C4A15720   7.783  10.722   7.363  0.1722  0.0470  0.1888
 1108YOPC   C1B15721   6.702  10.943   6.817 -0.0848  0.1764 -0.1304
 1108YOPC   C2B15722   6.528  11.235   6.995 -0.2980  0.2548 -0.1024
 1108YOPC   D3B15723   6.484  11.329   7.365  0.2743  0.2375  0.2564
 1108YOPC   C4B15724   6.355  11.455   7.824  0.1684  0.0107  0.3878
 1109YOPC   NC315725   4.980   3.694   5.253  0.1780  0.2445  0.0412
 1109YOPC   PO415726   5.041   3.992   5.478  0.3007  0.1251  0.1416
 1109YOPC   GL115727   5.097   3.886   5.952 -0.0586  0.0373 -0.3945
 1109YOPC   GL215728   5.196   4.044   6.231  0.1070 -0.2438 -0.0195
 1109YOPC   C1A15729   4.876   3.593   6.266 -0.2008 -0.0910  0.0543
 1109YOPC   D2A15730   4.935   3.395   6.654  0.1370 -0.2285 -0.2051
 1109YOPC   C3A15731   4.685   3.560   7.047  0.0404  0.0223  0.0421
 1109YOPC   C4A15732   4.881   3.672   7.323  0.1664 -0.0274  0.0199
 1109YOPC   C1B15733   5.601   4.056   6.402 -0.1915 -0.3675  0.1366
 1109YOPC   C2B15734   5.978   4.163   6.522  0.1492 -0.1108  0.1838
 1109YOPC   D3B15735   6.144   4.626   6.397 -0.1997 -0.1316 -0.0159
 1109YOPC   C4B15736   6.104   4.887   6.163  0.2190  0.0197 -0.3293
 1110YOPC   NC315737   8.331   7.992   5.724  0.2149  0.2651 -0.3451
 1110YOPC   PO415738   8.495   8.353   5.593 -0.0978 -0.1584 -0.0568
 1110YOPC   GL115739   8.497   8.278   6.062  0.1535 -0.2111  0.1217
 1110YOPC   GL215740   8.757   8.372   6.255 -0.0657  0.1888  0.0398
 1110YOPC   C1A15741   8.394   8.052   6.422 -0.0189  0.1206 -0.1802
 1110YOPC   D2A15742   8.414   7.538   6.593  0.1467 -0.0101  0.0878
 1110YOPC   C3A15743   8.820   7.233   6.766  0.2687 -0.0831 -0.0212
 1110YOPC   C4A15744   8.990   6.813   6.952  0.0057  0.1675  0.0573
 1110YOPC   C1B15745   8.697   8.243   6.778  0.2412 -0.3192 -0.1872
 1110YOPC   C2B15746   8.741   8.353   7.129  0.0670 -0.1051 -0.0894
 1110YOPC   D3B15747   9.013   8.640   7.273  0.1912  0.1832  0.2541
 1110YOPC   C4B15748   9.320   8.766   7.537  0.2419 -0.2727  0.2389
 1111YOPC   NC315749  10.466   4.596   5.808 -0.0102 -0.1533  0.0563
 1111YOPC   PO415750  10.883   4.642   5.987  0.0731 -0.0129  0.0849
 1111YOPC   GL115751  10.698   4.414   6.272  0.1313 -0.1542 -0.0308
 1111YOPC   GL215752  10.401   4.453   6.392  0.1737 -0.1201 -0.0641
 1111YOPC   C1A15753  10.817   4.177   6.677  0.3697 -0.0335  0.2694
 1111YOPC   D2A15754  10.771   4.310   7.115 -0.0236 -0.1757 -0.0419
 1111YOPC   C3A15755  10.424   4.468   7.286  0.0677 -0.1682  0.1635
 1111YOPC   C4A15756  10.285   4.812   7.411 -0.0637  0.1463  0.0268
 1111YOPC   C1B15757  10.233   4.640   6.765  0.1689  0.1954 -0.1080
 1111YOPC   C2B15758   9.871   4.764   7.114  0.0151  0.2763  0.0676
 1111YOPC   D3B15759   9.932   5.126   7.438  0.1280  0.1477 -0.3385
 1111YOPC   C4B15760  10.212   5.340   7.592  0.0032  0.3227 -0.0852
 1112YOPC   NC315761  17.135  10.884   5.425  0.1035 -0.3107 -0.0162
 1112YOPC   PO415762  17.343  10.763   5.836  0.0997  0.4722 -0.3309
 1112YOPC   GL115763  17.291  10.949   6.253 -0.2010 -0.2601 -0.4438
 1112YOPC   GL215764  17.525  10.775   6.485 -0.2389  0.0655 -0.4653
 1112YOPC   C1A15765  17.271  11.170   6.695 -0.1639  0.1149 -0.1096
 1112YOPC   D2A15766  17.012  11.137   7.105 -0.1943  0.1261 -0.0094
 1112YOPC   C3A15767  17.205  10.989   7.322  0.3267 -0.0786  0.0458
 1112YOPC   C4A15768  17.094  10.812   7.777  0.0263 -0.0067  0.0732
 1112YOPC   C1B15769  17.705  10.836   6.882  0.2880 -0.1652  0.2157
 1112YOPC   C2B15770  17.669  11.138   7.189  0.1796 -0.2671  0.1071
 1112YOPC   D3B15771  17.897  11.363   7.556  0.1353 -0.0028  0.2134
 1112YOPC   C4B15772  18.181  11.527   7.838  0.1278  0.2135 -0.1719
 1113YOPC   NC315773  16.177   0.895   4.815 -0.3885  0.3026 -0.0799
 1113YOPC   PO415774  16.628   0.898   4.964 -0.1100 -0.0457 -0.3562
 1113YOPC   GL115775  16.669   0.909   5.451 -0.0402  0.2071 -0.2413
 1113YOPC   GL215776  16.804   0.696   5.693  0.0839 -0.0672 -0.0068
 1113YOPC   C1A15777  16.512   1.001   5.885  0.3044 -0.2768 -0.1884
 1113YOPC   D2A15778  16.628   1.229   6.308  0.0283 -0.1585 -0.1192
 1113YOPC   C3A15779  16.851   1.571   6.294  0.1158  0.0270 -0.1308
 1113YOPC   C4A15780  16.903   1.749   6.762 -0.2897  0.1759  0.1241
 1113YOPC   C1B15781  16.815   0.670   6.145 -0.5519  0.3324 -0.2336
 1113YOPC   C2B15782  17.141   0.761   6.398  0.0564  0.0258 -0.1194
 1113YOPC   D3B15783  17.005   0.736   6.931  0.0394 -0.1960 -0.1188
 1113YOPC   C4B15784  17.089   0.609   7.343  0.1015  0.1337  0.0705
 1114YOPC   NC315785   5.610  18.038   5.502 -0.2268 -0.1261  0.2191
 1114YOPC   PO415786   5.526  18.459   5.651 -0.0542 -0.1817 -0.0300
 1114YOPC   GL115787   5.322  18.575   6.124 -0.0608  0.1652  0.2557
 1114YOPC   GL215788   5.393  18.357   6.353  0.0030 -0.0435  0.1496
 1114YOPC   C1A15789   5.206  18.832   6.532 -0.1281  0.0887 -0.1895
 1114YOPC   D2A15790   5.074  18.967   6.943  0.1224 -0.0575 -0.3235
 1114YOPC   C3A15791   4.964  18.492   7.246  0.2056 -0.0379 -0.0572
 1114YOPC   C4A15792   4.869  18.052   7.465 -0.2372 -0.1656 -0.0456
 1114YOPC   C1B15793   5.208  18.359   6.717 -0.0211  0.0606 -0.1537
 1114YOPC   C2B15794   5.395  18.581   6.965 -0.0953  0.2718  0.3383
 1114YOPC   D3B15795   5.440  18.424   7.363  0.1469  0.2655 -0.0493
 1114YOPC   C4B15796   5.386  18.070   7.668 -0.1371  0.1299  0.1459
 1115YOPC   NC315797   9.664  17.289   5.541 -0.1408  0.1102  0.0758
 1115YOPC   PO415798   9.787  16.941   5.587  0.0901 -0.2816  0.0012
 1115YOPC   GL115799   9.825  17.071   6.065  0.1133  0.1549  0.2632
 1115YOPC   GL215800   9.627  16.797   6.178  0.2317 -0.1432 -0.0110
 1115YOPC   C1A15801   9.997  17.482   6.306  0.3191  0.1608 -0.1407
 1115YOPC   D2A15802  10.115  17.614   6.634  0.1763  0.1410  0.1704
 1115YOPC   C3A15803   9.899  17.690   7.045  0.0841  0.1526 -0.2121
 1115YOPC   C4A15804   9.646  17.706   7.442  0.1611 -0.1678  0.1435
 1115YOPC   C1B15805   9.759  16.780   6.614 -0.0429  0.0378  0.3576
 1115YOPC   C2B15806  10.085  16.557   6.762 -0.0384  0.1242  0.0876
 1115YOPC   D3B15807  10.389  16.205   6.593 -0.0021 -0.4547  0.1282
 1115YOPC   C4B15808  10.596  15.812   6.794 -0.3984  0.1284 -0.0985
 1116YOPC   NC315809   7.843  10.611   5.924 -0.4427 -0.0426 -0.2986
 1116YOPC   PO415810   7.623  10.260   6.032  0.1239 -0.2105 -0.0821
 1116YOPC   GL115811   7.567  10.691   6.315 -0.4229  0.1226  0.1725
 1116YOPC   GL215812   7.839  10.889   6.378  0.0305  0.1069 -0.4326
 1116YOPC   C1A15813   7.346  10.824   6.764  0.0136  0.1266 -0.1016
 1116YOPC   D2A15814   7.292  10.767   7.235 -0.1879 -0.1155 -0.3257
 1116YOPC   C3A15815   7.437  11.055   7.575  0.0197 -0.2864 -0.1480
 1116YOPC   C4A15816   7.304  11.258   7.963 -0.2353 -0.0213  0.1833
 1116YOPC   C1B15817   7.814  10.722   6.832  0.0555  0.2092 -0.0379
 1116YOPC   C2B15818   7.960  10.439   6.999  0.2182  0.3800 -0.1233
 1116YOPC   D3B15819   8.205  10.119   6.809 -0.1755 -0.2134  0.3472
 1116YOPC   C4B15820   8.680  10.144   6.617  0.0750 -0.0602 -0.0994
 1117YOPC   NC315821   4.062  11.084   5.818 -0.1868  0.1949  0.0126
 1117YOPC   PO415822   4.297  10.734   6.002  0.1005  0.2205  0.1112
 1117YOPC   GL115823   4.201  10.644   6.427  0.0592  0.1109 -0.0476
 1117YOPC   GL215824   3.817  10.656   6.356 -0.1006  0.0474 -0.2545
 1117YOPC   C1A15825   4.112  10.303   6.702  0.3108  0.2499  0.1030
 1117YOPC   D2A15826   4.081  10.285   7.156 -0.3083 -0.3603  0.0252
 1117YOPC   C3A15827   3.972   9.910   7.367  0.2439 -0.2116 -0.1293
 1117YOPC   C4A15828   3.842   9.469   7.323 -0.0077  0.0641 -0.2621
 1117YOPC   C1B15829   3.637  10.853   6.691 -0.1893  0.1213  0.2350
 1117YOPC   C2B15830   3.828  10.698   6.989  0.0243  0.3349  0.1744
 1117YOPC   D3B15831   3.729  10.633   7.419  0.1637  0.1061  0.0910
 1117YOPC   C4B15832   3.628  10.214   7.654 -0.1438  0.1544  0.0487
 1118YOPC   NC315833   6.766   5.053   5.317  0.3746  0.2532 -0.0101
 1118YOPC   PO415834   6.565   5.306   5.545 -0.2861 -0.1234 -0.0445
 1118YOPC   GL115835   6.521   5.247   6.004  0.1264  0.0083 -0.0742
 1118YOPC   GL215836   6.747   5.410   6.090 -0.3798  0.1856  0.0423
 1118YOPC   C1A15837   6.280   5.392   6.296  0.2038 -0.3089  0.0865
 1118YOPC   D2A15838   6.100   5.423   6.707  0.2101  0.1579 -0.1203
 1118YOPC   C3A15839   6.349   5.488   7.074  0.1867  0.2705 -0.1527
 1118YOPC   C4A15840   6.249   5.776   7.401 -0.0927 -0.2327 -0.2949
 1118YOPC   C1B15841   6.701   5.438   6.516 -0.0954  0.3709  0.2075
 1118YOPC   C2B15842   6.839   5.509   6.930 -0.3819  0.0411  0.0863
 1118YOPC   D3B15843   7.123   5.360   7.175  0.2195  0.1008 -0.1009
 1118YOPC   C4B15844   7.462   5.216   7.375 -0.3044 -0.1417 -0.1507
 1119YOPC   NC315845   4.059   8.361   5.883 -0.0815  0.0808 -0.0009
 1119YOPC   PO415846   4.493   8.240   5.781 -0.0037  0.2334  0.0769
 1119YOPC   GL115847   4.365   8.143   6.182 -0.1190  0.0204  0.2791
 1119YOPC   GL215848   4.442   8.334   6.491 -0.3149 -0.1467  0.2516
 1119YOPC   C1A15849   4.066   8.004   6.567  0.1112  0.5630  0.2361
 1119YOPC   D2A15850   4.034   7.964   6.960 -0.1859 -0.1148 -0.0833
 1119YOPC   C3A15851   4.049   8.032   7.410  0.2240  0.0223  0.0615
 1119YOPC   C4A15852   3.885   7.913   7.762 -0.0529  0.0159  0.2549
 1119YOPC   C1B15853   4.234   8.440   6.892 -0.1539  0.2247 -0.1282
 1119YOPC   C2B15854   4.351   8.427   7.351  0.1051 -0.0969 -0.0534
 1119YOPC   D3B15855   4.558   8.696   7.649  0.2547  0.1329 -0.2606
 1119YOPC   C4B15856   4.706   8.822   8.099 -0.1972 -0.2511 -0.4700
 1120YOPC   NC315857   3.183   4.175   5.548  0.1990  0.0442  0.2036
 1120YOPC   PO415858   2.903   4.410   5.677  0.0456 -0.2615 -0.1940
 1120YOPC   GL115859   2.940   4.585   6.036 -0.2554  0.0293  0.0175
 1120YOPC   GL215860   3.218   4.618   6.306 -0.1690  0.0444 -0.0792
 1120YOPC   C1A15861   2.660   4.651   6.415  0.3953  0.2983  0.0791
 1120YOPC   D2A15862   2.606   4.856   6.824  0.1385  0.0801  0.1531
 1120YOPC   C3A15863   2.162   5.039   6.976 -0.3385 -0.0560 -0.2362
 1120YOPC   C4A15864   1.942   5.407   7.008 -0.0163  0.0379  0.0257
 1120YOPC   C1B15865   3.062   4.658   6.765 -0.0282  0.3078 -0.2432
 1120YOPC   C2B15866   2.944   4.594   7.188 -0.2043 -0.3469  0.0169
 1120YOPC   D3B15867   2.928   4.197   7.219  0.2057 -0.0057 -0.0587
 1120YOPC   C4B15868   3.099   3.715   7.249  0.0075 -0.3382  0.1917
 1121YOPC   NC315869  15.412   3.290   5.574 -0.0225 -0.0565 -0.4072
 1121YOPC   PO415870  15.572   2.886   5.664 -0.0780  0.1438 -0.0057
 1121YOPC   GL115871  15.520   3.035   6.054 -0.0140  0.3130 -0.1732
 1121YOPC   GL215872  15.283   2.891   6.212 -0.0612 -0.3356 -0.1992
 1121YOPC   C1A15873  15.789   2.928   6.452  0.0041 -0.1258 -0.0795
 1121YOPC   D2A15874  16.134   2.830   6.819 -0.0695  0.1382 -0.0540
 1121YOPC   C3A15875  16.234   3.049   7.171 -0.2335 -0.1950 -0.2702
 1121YOPC   C4A15876  15.937   3.276   7.340  0.0776 -0.0545  0.0671
 1121YOPC   C1B15877  15.044   2.854   6.570 -0.1531 -0.0811  0.0143
 1121YOPC   C2B15878  15.112   2.879   7.081 -0.1303  0.0053  0.1526
 1121YOPC   D3B15879  15.433   2.731   7.333 -0.2398 -0.2425  0.4996
 1121YOPC   C4B15880  15.445   3.155   7.589  0.2460  0.0591 -0.2215
 1122YOPC   NC315881  16.411   0.564   5.230  0.3545 -0.2532 -0.0137
 1122YOPC   PO415882  15.970   0.634   5.242  0.1060  0.1671 -0.1270
 1122YOPC   GL115883  16.085   0.645   5.675 -0.0851 -0.0843 -0.1933
 1122YOPC   GL215884  16.315   0.486   5.853  0.0000  0.3049 -0.2632
 1122YOPC   C1A15885  15.858   0.560   5.986 -0.5074  0.2058  0.2416
 1122YOPC   D2A15886  15.635   0.531   6.376 -0.2571  0.3546  0.2632
 1122YOPC   C3A15887  15.994   0.672   6.657 -0.1047  0.1815 -0.1276
 1122YOPC   C4A15888  16.065   0.673   7.078 -0.2396 -0.4350 -0.0996
 1122YOPC   C1B15889  16.322   0.739   6.256 -0.1486  0.0572 -0.0939
 1122YOPC   C2B15890  16.582   0.820   6.630 -0.2649 -0.0364  0.0950
 1122YOPC   D3B15891  16.670   1.282   6.818 -0.1254  0.1744  0.1792
 1122YOPC   C4B15892  16.895   1.204   7.295  0.0693  0.2030  0.0345
 1123ERGO   ROH15893   5.515   0.657   9.410 -0.0097 -0.1062  0.0727
 1123ERGO    R115894   5.449   0.728   9.144 -0.0830 -0.1031  0.0906
 1123ERGO    R215895   5.635   0.835   8.968 -0.2091  0.2329  0.1442
 1123ERGO    R315896   5.556   0.628   8.811  0.1047  0.1655  0.0693
 1123ERGO    R415897   5.621   0.842   8.623  0.0379  0.2190  0.1322
 1123ERGO    R515898   5.434   0.731   8.633  0.1416  0.0461 -0.0169
 1123ERGO    C115899   5.538   0.652   8.274  0.4763  0.1477  0.0550
 1123ERGO    C215900   5.565   0.571   7.948  0.0252 -0.0120  0.0390
 1124ERGO   ROH15901   3.889  11.411  10.147  0.0699  0.0721  0.0063
 1124ERGO    R115902   4.063  11.274   9.971  0.0779  0.0184  0.0559
 1124ERGO    R215903   3.978  11.068   9.807  0.0762 -0.0004  0.0838
 1124ERGO    R315904   4.087  11.221   9.611  0.1228 -0.0521  0.0684
 1124ERGO    R415905   3.974  10.991   9.471 -0.2611  0.1322  0.0530
 1124ERGO    R515906   4.179  11.064   9.456 -0.1768 -0.1079 -0.0621
 1124ERGO    C115907   4.074  11.090   9.091 -0.4139  0.1610  0.0206
 1124ERGO    C215908   3.965  11.077   8.843 -0.2764  0.1008  0.1500
 1125ERGO   ROH15909   7.599  13.827   6.662  0.1686 -0.0074  0.1058
 1125ERGO    R115910   7.596  13.645   6.879 -0.0476 -0.1044  0.0270
 1125ERGO    R215911   7.608  13.727   7.143  0.1538 -0.2360  0.0711
 1125ERGO    R315912   7.382  13.579   7.166 -0.0735  0.1018  0.0537
 1125ERGO    R415913   7.510  13.558   7.428  0.0505 -0.3742 -0.0479
 1125ERGO    R515914   7.445  13.393   7.302 -0.2923 -0.1425 -0.1771
 1125ERGO    C115915   7.239  13.320   7.614 -0.2229 -0.1375 -0.1336
 1125ERGO    C215916   7.198  13.091   7.827 -0.2891  0.1017 -0.1887
 1126ERGO   ROH15917   4.972  15.797   9.826  0.2151 -0.0672  0.0847
 1126ERGO    R115918   5.024  15.975   9.613  0.2121 -0.1593  0.0063
 1126ERGO    R215919   5.189  15.910   9.400  0.0030 -0.3485 -0.1008
 1126ERGO    R315920   4.971  15.980   9.253 -0.0479 -0.1973  0.0420
 1126ERGO    R415921   5.193  15.975   9.061 -0.1422 -0.1616 -0.0686
 1126ERGO    R515922   5.055  16.140   9.096 -0.0740 -0.1362  0.0900
 1126ERGO    C115923   4.991  16.078   8.725 -0.2745  0.0891  0.0844
 1126ERGO    C215924   4.983  16.007   8.415  0.0391 -0.0664 -0.0990
 1127ERGO   ROH15925   7.196  13.047  10.177  0.1376 -0.3231  0.0281
 1127ERGO    R115926   7.239  13.191   9.937  0.1386 -0.0957  0.1631
 1127ERGO    R215927   7.433  13.119   9.753  0.0182 -0.0288  0.0166
 1127ERGO    R315928   7.223  13.121   9.580 -0.0448  0.2958  0.0873
 1127ERGO    R415929   7.460  13.159   9.411  0.0097 -0.3478 -0.0256
 1127ERGO    R515930   7.282  13.286   9.417  0.2748  0.0551 -0.0586
 1127ERGO    C115931   7.279  13.185   9.049 -0.0544 -0.2287  0.0163
 1127ERGO    C215932   7.224  13.192   8.722 -0.4788  0.4739  0.2083
 1128ERGO   ROH15933   6.926  11.396   6.345 -0.0342  0.0241  0.0078
 1128ERGO    R115934   6.886  11.363   6.623  0.0365 -0.1330 -0.0010
 1128ERGO    R215935   7.084  11.271   6.792  0.1986  0.1364 -0.0505
 1128ERGO    R315936   7.029  11.500   6.929 -0.1673  0.0041  0.0372
 1128ERGO    R415937   7.178  11.333   7.119  0.2101  0.1959 -0.0634
 1128ERGO    R515938   6.983  11.425   7.152  0.0420 -0.1587  0.0350
 1128ERGO    C115939   7.180  11.583   7.438 -0.1267  0.1063  0.0114
 1128ERGO    C215940   7.290  11.666   7.747 -0.1235 -0.0625 -0.2850
 1129ERGO   ROH15941  12.341   9.154  10.089  0.1779  0.1692  0.1072
 1129ERGO    R115942  12.284   9.025   9.844  0.0143  0.1261  0.1679
 1129ERGO    R215943  12.175   9.157   9.627  0.1602  0.1584  0.1191
 1129ERGO    R315944  12.391   9.055   9.497  0.0348 -0.1549  0.1455
 1129ERGO    R415945  12.192   9.102   9.286  0.1966  0.3715  0.0844
 1129ERGO    R515946  12.297   8.915   9.327 -0.1641  0.1353  0.0026
 1129ERGO    C115947  12.405   8.974   8.966  0.1000  0.2014  0.0889
 1129ERGO    C215948  12.346   9.006   8.634  0.0566  0.1910  0.2810
 1130ERGO   ROH15949  16.992   5.849   9.912 -0.2303  0.1742  0.0595
 1130ERGO    R115950  16.836   5.819   9.677 -0.0871 -0.0805 -0.0034
 1130ERGO    R215951  16.839   6.005   9.472 -0.2891 -0.0907  0.0038
 1130ERGO    R315952  16.900   5.788   9.320  0.1047 -0.0022  0.0177
 1130ERGO    R415953  16.830   5.998   9.127 -0.5757 -0.1765  0.0079
 1130ERGO    R515954  16.744   5.798   9.138 -0.1007 -0.4079  0.1428
 1130ERGO    C115955  16.882   5.791   8.783 -0.3729 -0.1433  0.0234
 1130ERGO    C215956  16.945   5.904   8.453 -0.0787  0.2045 -0.0813
 1131ERGO   ROH15957  18.206   7.005   6.255  0.1336  0.4253 -0.0979
 1131ERGO    R115958  18.369   7.115   6.460  0.1791 -0.0262  0.1208
 1131ERGO    R215959  18.286   7.325   6.619  0.5353  0.1989  0.0158
 1131ERGO    R315960  18.349   7.154   6.821 -0.1876  0.0017  0.1022
 1131ERGO    R415961  18.357   7.420   6.944  0.5928  0.0310  0.0532
 1131ERGO    R515962  18.515   7.270   6.948  0.1150 -0.5127  0.2096
 1131ERGO    C115963  18.457   7.314   7.322 -0.0526 -0.2518  0.1561
 1131ERGO    C215964  18.366   7.422   7.642  0.1792 -0.4024  0.0844
 1132ERGO   ROH15965   8.635   5.966   6.584  0.0669 -0.2710 -0.0687
 1132ERGO    R115966   8.449   5.926   6.794  0.0673 -0.1590 -0.0464
 1132ERGO    R215967   8.506   5.772   7.017  0.0585 -0.0640  0.0248
 1132ERGO    R315968   8.435   5.997   7.151  0.0820  0.0057 -0.0784
 1132ERGO    R415969   8.373   5.778   7.335 -0.2370  0.0812 -0.0971
 1132ERGO    R515970   8.237   5.935   7.270 -0.0718  0.1606 -0.2502
 1132ERGO    C115971   8.229   5.993   7.647 -0.3869  0.2310 -0.2651
 1132ERGO    C215972   8.183   6.151   7.906  0.0319  0.2362  0.2057
 1133ERGO   ROH15973   8.898  15.710   6.559 -0.1843  0.0449  0.0770
 1133ERGO    R115974   8.834  15.677   6.833 -0.1076  0.0095  0.0911
 1133ERGO    R215975   9.025  15.678   7.032 -0.0630  0.0961  0.0477
 1133ERGO    R315976   8.868  15.873   7.138 -0.1312  0.0203  0.0871
 1133ERGO    R415977   9.106  15.868   7.309 -0.1022  0.1065  0.0520
 1133ERGO    R515978   8.898  15.852   7.374 -0.0871  0.0124  0.0814
 1133ERGO    C115979   9.005  16.162   7.570 -0.1893  0.0417  0.0915
 1133ERGO    C215980   9.027  16.367   7.824  0.2535 -0.3287 -0.2285
 1134ERGO   ROH15981   7.766  12.175   9.963 -0.2271  0.2475  0.1040
 1134ERGO    R115982   7.653  12.071   9.726 -0.2381  0.2882  0.0904
 1134ERGO    R215983   7.561  12.232   9.521 -0.0444  0.3229  0.0239
 1134ERGO    R315984   7.729  12.081   9.370 -0.1151  0.1535  0.1124
 1134ERGO    R415985   7.528  12.181   9.181 -0.1462  0.0149  0.0773
 1134ERGO    R515986   7.585  11.973   9.212 -0.1764  0.0334  0.2511
 1134ERGO    C115987   7.666  12.010   8.841 -0.2719 -0.3236  0.1917
 1134ERGO    C215988   7.609  12.169   8.489 -0.3304 -0.1993 -0.2702
 1135ERGO   ROH15989   9.017   0.179  10.320 -0.0456  0.1974 -0.0585
 1135ERGO    R115990   9.153   0.091  10.088  0.0501 -0.0039  0.0699
 1135ERGO    R215991   9.091  -0.148   9.962 -0.0488 -0.0139  0.1215
 1135ERGO    R315992   9.064   0.012   9.744  0.2253 -0.0728  0.0414
 1135ERGO    R415993   9.086  -0.259   9.635 -0.0335 -0.1328  0.1623
 1135ERGO    R515994   9.207  -0.087   9.579  0.1819 -0.2959  0.1421
 1135ERGO    C115995   9.056  -0.174   9.240  0.2327 -0.2573  0.1109
 1135ERGO    C215996   9.078  -0.257   8.952 -0.0195  0.0247 -0.1003
 1136ERGO   ROH15997  12.587  13.712  10.118 -0.1502  0.0477 -0.0787
 1136ERGO    R115998  12.578  13.772   9.842 -0.1563 -0.1817 -0.1302
 1136ERGO    R215999  12.799  13.859   9.701 -0.2209 -0.0439 -0.1447
 1136ERGO    R316000  12.738  13.649   9.539  0.0517 -0.2448  0.0025
 1136ERGO    R416001  12.837  13.857   9.358 -0.3001 -0.2010 -0.1538
 1136ERGO    R516002  12.647  13.751   9.342 -0.1515 -0.4998 -0.0432
 1136ERGO    C116003  12.802  13.659   9.006 -0.0903 -0.4811 -0.0210
 1136ERGO    C216004  12.853  13.705   8.659 -0.2779 -0.2162 -0.0164
 1137ERGO   ROH16005   0.956  17.653   6.105 -0.1184 -0.1705 -0.2974
 1137ERGO    R116006   1.022  17.577   6.370 -0.3061 -0.0836 -0.2240
 1137ERGO    R216007   0.869  17.401   6.517 -0.2478 -0.2729 -0.3879
 1137ERGO    R316008   1.105  17.268   6.544 -0.1062  0.0183 -0.1343
 1137ERGO    R416009   0.908  17.097   6.677 -0.0766 -0.3020 -0.4817
 1137ERGO    R516010   1.095  17.172   6.762 -0.2814 -0.0981 -0.1912
 1137ERGO    C116011   1.153  16.796   6.796  0.1561 -0.0456 -0.2984
 1137ERGO    C216012   1.391  16.608   6.979  0.1585 -0.1648 -0.2612
 1138ERGO   ROH16013   8.833   7.321  10.098  0.0774 -0.1487 -0.0797
 1138ERGO    R116014   8.763   7.454   9.858 -0.1999 -0.3090 -0.0911
 1138ERGO    R216015   8.950   7.583   9.699 -0.4553  0.0299 -0.1209
 1138ERGO    R316016   8.846   7.423   9.505 -0.1699 -0.1956 -0.0953
 1138ERGO    R416017   8.992   7.630   9.359 -0.3658 -0.0674 -0.1242
 1138ERGO    R516018   8.784   7.573   9.330 -0.2882 -0.3482 -0.1903
 1138ERGO    C116019   8.919   7.507   8.979 -0.0458 -0.3358 -0.1020
 1138ERGO    C216020   8.966   7.497   8.627  0.1973 -0.1053 -0.2640
 1139ERGO   ROH16021  15.235  15.365   9.683 -0.0184 -0.0211  0.1260
 1139ERGO    R116022  15.332  15.422   9.423 -0.0257  0.0987  0.1491
 1139ERGO    R216023  15.294  15.251   9.210  0.1501  0.0968  0.1188
 1139ERGO    R316024  15.189  15.473   9.093 -0.0188  0.0272  0.1343
 1139ERGO    R416025  15.222  15.282   8.873  0.0998  0.0537  0.1253
 1139ERGO    R516026  15.299  15.486   8.880 -0.0439  0.1106  0.1247
 1139ERGO    C116027  15.082  15.508   8.567 -0.0877 -0.0368  0.1437
 1139ERGO    C216028  15.033  15.506   8.159  0.0616  0.1480 -0.1650
 1140ERGO   ROH16029   4.640  12.554   6.293 -0.0087 -0.0667  0.0608
 1140ERGO    R116030   4.683  12.744   6.498 -0.0179  0.0066 -0.0057
 1140ERGO    R216031   4.623  12.694   6.763  0.0102  0.0861  0.0125
 1140ERGO    R316032   4.882  12.765   6.802  0.0033  0.1360 -0.0267
 1140ERGO    R416033   4.772  12.734   7.072  0.1135 -0.1436 -0.0045
 1140ERGO    R516034   4.876  12.909   6.993  0.0267 -0.0347  0.1083
 1140ERGO    C116035   5.102  12.825   7.288  0.1672 -0.2303 -0.0512
 1140ERGO    C216036   5.170  12.911   7.645  0.1482  0.1288 -0.2393
 1141ERGO   ROH16037   4.162   0.389   9.269 -0.1483 -0.1636 -0.0565
 1141ERGO    R116038   4.171   0.224   9.039 -0.0411 -0.1394 -0.0698
 1141ERGO    R216039   3.997   0.255   8.828 -0.0495 -0.2242 -0.0739
 1141ERGO    R316040   4.226   0.271   8.682 -0.0522 -0.0779 -0.0637
 1141ERGO    R416041   4.024   0.175   8.492  0.0698 -0.4598 -0.0106
 1141ERGO    R516042   4.217   0.082   8.535  0.1750 -0.2091  0.0834
 1141ERGO    C116043   4.256   0.144   8.161  0.1368 -0.4596  0.0357
 1141ERGO    C216044   4.293   0.129   7.822  0.1291 -0.1105 -0.0111
 1142ERGO   ROH16045  13.524   2.500   6.263  0.0859 -0.2735  0.1042
 1142ERGO    R116046  13.661   2.652   6.459  0.1459 -0.1268 -0.0487
 1142ERGO    R216047  13.720   2.552   6.710  0.0755  0.1147  0.0666
 1142ERGO    R316048  13.973   2.625   6.644  0.1183 -0.0832  0.0052
 1142ERGO    R416049  13.989   2.550   6.927  0.0646  0.1794  0.0813
 1142ERGO    R516050  14.055   2.738   6.838  0.1691  0.0618 -0.0980
 1142ERGO    C116051  14.384   2.617   6.991  0.0984  0.0314  0.0322
 1142ERGO    C216052  14.672   2.617   7.080 -0.0312 -0.2225 -0.1859
 1143ERGO   ROH16053   8.308  15.746  10.111  0.2519  0.3701 -0.0237
 1143ERGO    R116054   8.294  15.676   9.837  0.2889  0.1255  0.0326
 1143ERGO    R216055   8.220  15.857   9.641  0.0220 -0.1211 -0.1100
 1143ERGO    R316056   8.456  15.782   9.528  0.1018  0.0830 -0.0799
 1143ERGO    R416057   8.272  15.818   9.302  0.0464 -0.2703 -0.0888
 1143ERGO    R516058   8.391  15.640   9.345  0.2557 -0.1040  0.0113
 1143ERGO    C116059   8.523  15.725   8.998  0.1355 -0.1655 -0.0484
 1143ERGO    C216060   8.382  15.701   8.652  0.1393  0.1111 -0.3688
 1144ERGO   ROH16061  11.873  14.723   6.195 -0.0035  0.0588 -0.1530
 1144ERGO    R116062  12.027  14.677   6.428 -0.0910 -0.2481 -0.1526
 1144ERGO    R216063  12.032  14.853   6.641  0.3103 -0.2184 -0.1872
 1144ERGO    R316064  11.963  14.633   6.784 -0.1754 -0.0479 -0.1401
 1144ERGO    R416065  12.011  14.839   6.985  0.3402 -0.1033 -0.1794
 1144ERGO    R516066  12.102  14.641   6.978 -0.1082 -0.3285 -0.1657
 1144ERGO    C116067  11.933  14.624   7.320 -0.0984  0.1239 -0.1307
 1144ERGO    C216068  11.752  14.513   7.712  0.0485 -0.1538 -0.2222
 1145ERGO   ROH16069   7.997   2.940   6.328  0.0109 -0.0848  0.0757
 1145ERGO    R116070   8.162   2.952   6.558 -0.0596 -0.3440  0.1437
 1145ERGO    R216071   8.184   3.180   6.712  0.4664 -0.2681 -0.0240
 1145ERGO    R316072   8.115   3.012   6.914 -0.0856  0.0575  0.0779
 1145ERGO    R416073   8.267   3.226   7.044  0.4458 -0.2436 -0.0223
 1145ERGO    R516074   8.305   3.011   7.059 -0.1383 -0.3522  0.1579
 1145ERGO    C116075   8.250   3.094   7.427 -0.0843  0.0763  0.0744
 1145ERGO    C216076   8.062   3.238   7.699 -0.4878 -0.0606  0.0612
 1146ERGO   ROH16077   4.916   0.575   6.235 -0.0510 -0.1089  0.0089
 1146ERGO    R116078   4.736   0.706   6.410  0.0508  0.1461 -0.0736
 1146ERGO    R216079   4.665   0.601   6.655 -0.3258  0.1668 -0.1732
 1146ERGO    R316080   4.748   0.843   6.747  0.0469 -0.0160 -0.0052
 1146ERGO    R416081   4.606   0.720   6.974 -0.5133  0.1902 -0.2145
 1146ERGO    R516082   4.568   0.917   6.888 -0.0044  0.3052 -0.2237
 1146ERGO    C116083   4.650   1.017   7.246 -0.2726  0.0322 -0.0807
 1146ERGO    C216084   4.623   1.079   7.584 -0.1744  0.4367 -0.0843
 1147ERGO   ROH16085   0.140   2.039   6.000  0.3378  0.1475 -0.0085
 1147ERGO    R116086   0.249   1.977   6.254  0.1786  0.1110  0.0519
 1147ERGO    R216087   0.219   2.142   6.474  0.0339  0.0746  0.0583
 1147ERGO    R316088   0.121   1.916   6.589 -0.0321  0.0537 -0.0370
 1147ERGO    R416089   0.202   2.085   6.814  0.1867 -0.1334  0.0327
 1147ERGO    R516090   0.263   1.879   6.778  0.0521 -0.1484 -0.1352
 1147ERGO    C116091   0.100   1.839   7.121  0.2138 -0.2742 -0.0715
 1147ERGO    C216092   0.154   1.589   7.395 -0.1300  0.1408 -0.1143
 1148ERGO   ROH16093  14.318  18.288   6.088  0.2181 -0.1398  0.0004
 1148ERGO    R116094  14.220  18.432   6.311  0.0345 -0.1763 -0.0543
 1148ERGO    R216095  14.097  18.309   6.525  0.2221 -0.2592  0.0105
 1148ERGO    R316096  14.286  18.441   6.669  0.0546  0.0691 -0.0630
 1148ERGO    R416097  14.087  18.356   6.867  0.2231 -0.1819 -0.0004
 1148ERGO    R516098  14.161  18.559   6.837 -0.0906 -0.0738 -0.0694
 1148ERGO    C116099  14.259  18.508   7.202  0.0664  0.1715 -0.0755
 1148ERGO    C216100  14.335  18.664   7.470  0.2996  0.1068  0.3250
 1149ERGO   ROH16101  10.977   8.184   6.598  0.1042  0.1288 -0.0136
 1149ERGO    R116102  10.818   8.223   6.830  0.0747  0.0341 -0.0170
 1149ERGO    R216103  10.927   8.251   7.082  0.0535  0.1122 -0.0130
 1149ERGO    R316104  10.780   8.480   7.085 -0.0927  0.0186 -0.0265
 1149ERGO    R416105  10.848   8.432   7.366 -0.0578  0.0865 -0.0281
 1149ERGO    R516106  10.648   8.463   7.284 -0.0777 -0.0475 -0.0247
 1149ERGO    C116107  10.663   8.751   7.534 -0.2598 -0.0161 -0.0495
 1149ERGO    C216108  10.706   8.887   7.840 -0.3258  0.0350  0.1065
 1150ERGO   ROH16109  15.528   2.819   9.631  0.1400  0.1230 -0.2125
 1150ERGO    R116110  15.415   2.910   9.388  0.1030  0.0937 -0.2056
 1150ERGO    R216111  15.541   3.095   9.226  0.2149 -0.1453 -0.3889
 1150ERGO    R316112  15.506   2.904   9.036 -0.1015 -0.2253 -0.2587
 1150ERGO    R416113  15.417   3.153   8.909  0.3656 -0.1298 -0.4460
 1150ERGO    R516114  15.303   2.968   8.924  0.0191  0.0737 -0.3285
 1150ERGO    C116115  15.313   3.008   8.545  0.1563 -0.1959 -0.3571
 1150ERGO    C216116  15.339   2.947   8.209 -0.0024  0.2418 -0.0383
 1151ERGO   ROH16117   0.736  14.212   9.737 -0.1173 -0.4266  0.1129
 1151ERGO    R116118   0.669  14.118   9.479 -0.1840 -0.2702  0.0714
 1151ERGO    R216119   0.551  14.279   9.287  0.0792 -0.0574  0.0810
 1151ERGO    R316120   0.762  14.197   9.136  0.0092 -0.3055  0.1147
 1151ERGO    R416121   0.553  14.264   8.942  0.1316 -0.0043  0.0796
 1151ERGO    R516122   0.662  14.076   8.955 -0.1109 -0.1500  0.0748
 1151ERGO    C116123   0.751  14.179   8.599  0.0965 -0.2062  0.1104
 1151ERGO    C216124   0.899  14.150   8.357  0.0202 -0.0635 -0.1272
 1152ERGO   ROH16125   9.176   4.601   6.585 -0.0662  0.1364  0.0171
 1152ERGO    R116126   9.352   4.590   6.806  0.0834 -0.0583 -0.1101
 1152ERGO    R216127   9.277   4.668   7.060  0.3746  0.0925 -0.0725
 1152ERGO    R316128   9.362   4.419   7.127  0.0915 -0.0120 -0.0834
 1152ERGO    R416129   9.310   4.551   7.384  0.3832  0.1083 -0.0672
 1152ERGO    R516130   9.495   4.452   7.324  0.2373 -0.1420 -0.1502
 1152ERGO    C116131   9.408   4.249   7.635  0.1224  0.0194 -0.0743
 1152ERGO    C216132   9.421   4.342   8.109  0.1760  0.3089  0.3340
 1153ERGO   ROH16133  12.326   3.450  10.092 -0.1232 -0.1469  0.0752
 1153ERGO    R116134  12.261   3.623   9.877  0.0479 -0.0012  0.1389
 1153ERGO    R216135  12.453   3.739   9.716  0.1593 -0.2666  0.0786
 1153ERGO    R316136  12.308   3.626   9.516 -0.1083 -0.0031  0.1176
 1153ERGO    R416137  12.479   3.822   9.382  0.2264 -0.3128  0.0721
 1153ERGO    R516138  12.262   3.807   9.366  0.1855  0.0877  0.1302
 1153ERGO    C116139  12.358   3.765   8.999  0.0144 -0.0923  0.1046
 1153ERGO    C216140  12.397   3.796   8.600 -0.0763 -0.0855  0.3129
 1154ERGO   ROH16141  16.052   6.251   6.114  0.0247  0.1061 -0.0240
 1154ERGO    R116142  16.087   6.225   6.394  0.0822 -0.1598 -0.0531
 1154ERGO    R216143  16.302   6.090   6.506  0.3005  0.0381 -0.2295
 1154ERGO    R316144  16.336   6.324   6.639 -0.0492 -0.0496  0.0401
 1154ERGO    R416145  16.480   6.126   6.800  0.4352 -0.0068 -0.3043
 1154ERGO    R516146  16.327   6.263   6.870  0.2136 -0.3689 -0.0215
 1154ERGO    C116147  16.616   6.367   7.096  0.1854 -0.1154 -0.0948
 1154ERGO    C216148  16.946   6.640   7.235 -0.0066  0.1680 -0.0323
 1155ERGO   ROH16149  10.381  12.966   6.268  0.0313 -0.2795 -0.1157
 1155ERGO    R116150  10.496  12.930   6.525 -0.1462 -0.4107 -0.0522
 1155ERGO    R216151  10.498  13.129   6.716  0.3108 -0.2726 -0.1902
 1155ERGO    R316152  10.380  12.939   6.870 -0.2540  0.1291 -0.0932
 1155ERGO    R416153  10.518  13.116   7.060  0.3788 -0.2218 -0.1919
 1155ERGO    R516154  10.539  12.899   7.045 -0.3079 -0.3171 -0.1335
 1155ERGO    C116155  10.419  12.929   7.406 -0.1118  0.1849 -0.1018
 1155ERGO    C216156  10.547  12.958   7.654  0.3098  0.2629  0.0655
 1156ERGO   ROH16157   1.018   1.034   9.085 -0.1900 -0.1852 -0.0338
 1156ERGO    R116158   0.946   0.888   8.853 -0.0047 -0.1614 -0.1082
 1156ERGO    R216159   0.696   0.907   8.737  0.0050 -0.3387 -0.1602
 1156ERGO    R316160   0.840   0.966   8.514  0.0080 -0.1247 -0.1038
 1156ERGO    R416161   0.563   0.945   8.420  0.0543 -0.3992 -0.1883
 1156ERGO    R516162   0.736   0.838   8.340  0.1944 -0.1937 -0.1677
 1156ERGO    C116163   0.621   1.022   8.026  0.0858 -0.2335 -0.1518
 1156ERGO    C216164   0.448   1.233   7.739  0.0742  0.1826  0.0804
 1157ERGO   ROH16165   4.743   2.551   9.528 -0.0349  0.2443  0.1719
 1157ERGO    R116166   4.732   2.708   9.294 -0.0407  0.0856  0.0641
 1157ERGO    R216167   4.954   2.835   9.189 -0.0661  0.1148  0.0401
 1157ERGO    R316168   4.885   2.701   8.963  0.0521 -0.0676  0.1100
 1157ERGO    R416169   5.031   2.938   8.868 -0.0846 -0.0375 -0.0137
 1157ERGO    R516170   4.832   2.874   8.806 -0.0332 -0.2002 -0.0060
 1157ERGO    C116171   5.012   2.872   8.469  0.0157 -0.2974  0.0206
 1157ERGO    C216172   5.104   3.030   8.134 -0.0255 -0.1505  0.1582
 1158ERGO   ROH16173   2.718  16.085   9.618  0.2761  0.2424  0.0062
 1158ERGO    R116174   2.725  16.141   9.341  0.0369  0.2140 -0.0062
 1158ERGO    R216175   2.709  15.943   9.149  0.2599  0.1560  0.0351
 1158ERGO    R316176   2.503  16.094   9.056 -0.0431 -0.1931  0.1174
 1158ERGO    R416177   2.644  16.004   8.815  0.1603  0.2430  0.0690
 1158ERGO    R516178   2.594  16.210   8.868 -0.2591  0.1169  0.1973
 1158ERGO    C116179   2.412  16.182   8.534 -0.1822 -0.0341  0.1660
 1158ERGO    C216180   2.498  16.246   8.175 -0.5129 -0.1858 -0.1623
 1159ERGO   ROH16181   1.230  11.545  10.000 -0.1465 -0.1079  0.0521
 1159ERGO    R116182   1.247  11.375   9.774  0.1189  0.0024 -0.0105
 1159ERGO    R216183   1.024  11.277   9.644  0.2776 -0.3796  0.0286
 1159ERGO    R316184   1.142  11.387   9.426 -0.0003 -0.0860  0.0162
 1159ERGO    R416185   1.012  11.144   9.325  0.4412 -0.3745  0.0177
 1159ERGO    R516186   1.221  11.199   9.300  0.3505  0.0669 -0.0315
 1159ERGO    C116187   1.116  11.170   8.935  0.2756 -0.0958 -0.0003
 1159ERGO    C216188   1.069  11.285   8.581  0.1553  0.1876 -0.1691
 1160ERGO   ROH16189  11.768  11.404   6.468 -0.1313  0.2462 -0.1195
 1160ERGO    R116190  11.735  11.331   6.739 -0.1129  0.1040 -0.1546
 1160ERGO    R216191  11.946  11.314   6.916 -0.1042  0.0334 -0.1724
 1160ERGO    R316192  11.795  11.485   7.064 -0.1140 -0.0562 -0.0777
 1160ERGO    R416193  12.003  11.390   7.248 -0.0475 -0.0693 -0.1581
 1160ERGO    R516194  11.788  11.384   7.281 -0.0390 -0.1352 -0.1108
 1160ERGO    C116195  11.895  11.595   7.581 -0.0236 -0.2135 -0.0608
 1160ERGO    C216196  12.111  11.734   7.911 -0.2172 -0.1736 -0.2369
 1161ERGO   ROH16197   5.774  15.856   9.957  0.0626  0.0048 -0.0997
 1161ERGO    R116198   5.812  15.967   9.699 -0.0077  0.0451 -0.0926
 1161ERGO    R216199   5.893  15.815   9.483  0.0786  0.1081 -0.1028
 1161ERGO    R316200   5.670  15.919   9.367  0.0147 -0.0165 -0.0940
 1161ERGO    R416201   5.824  15.807   9.144  0.0355  0.0019 -0.0920
 1161ERGO    R516202   5.747  16.011   9.160 -0.0540 -0.0268 -0.1257
 1161ERGO    C116203   5.574  15.900   8.839 -0.0497 -0.1770 -0.0775
 1161ERGO    C216204   5.489  15.953   8.582  0.1707  0.0606  0.2376
 1162ERGO   ROH16205  18.389   0.750   6.010  0.1137  0.0200 -0.0540
 1162ERGO    R116206  18.478   0.705   6.275  0.0530  0.0955 -0.0204
 1162ERGO    R216207  18.409   0.871   6.485 -0.0413  0.1228 -0.0733
 1162ERGO    R316208  18.324   0.639   6.598 -0.0176  0.1273 -0.0467
 1162ERGO    R416209  18.373   0.818   6.825  0.0490  0.1366 -0.0616
 1162ERGO    R516210  18.455   0.618   6.798  0.0376  0.1313 -0.0799
 1162ERGO    C116211  18.272   0.570   7.128  0.1238  0.1489 -0.0297
 1162ERGO    C216212  18.058   0.482   7.368  0.2407 -0.0742  0.1377
 1163ERGO   ROH16213   1.367   6.781   6.356 -0.2189 -0.0485  0.2136
 1163ERGO    R116214   1.473   6.845   6.611 -0.1497  0.1285  0.1400
 1163ERGO    R216215   1.343   7.013   6.788 -0.2221  0.0443  0.1526
 1163ERGO    R316216   1.372   6.802   6.958  0.0781  0.1252  0.2107
 1163ERGO    R416217   1.320   7.032   7.132 -0.5327  0.0822  0.1336
 1163ERGO    R516218   1.487   6.893   7.147 -0.2447  0.4149  0.2882
 1163ERGO    C116219   1.333   6.845   7.492 -0.4318  0.1802  0.1771
 1163ERGO    C216220   1.164   6.958   7.788 -0.0866 -0.2311  0.0857
 1164ERGO   ROH16221   5.487  14.195   6.396 -0.2484 -0.1011  0.1551
 1164ERGO    R116222   5.532  14.210   6.675 -0.0687 -0.0754  0.1257
 1164ERGO    R216223   5.593  13.988   6.828  0.0053 -0.0635  0.1101
 1164ERGO    R316224   5.807  14.138   6.903  0.0699 -0.0786 -0.0394
 1164ERGO    R416225   5.799  13.919   7.097  0.1531 -0.0510  0.0015
 1164ERGO    R516226   5.804  14.132   7.142  0.2075 -0.0418 -0.0338
 1164ERGO    C116227   6.120  14.020   7.323  0.2997 -0.0579 -0.2021
 1164ERGO    C216228   6.351  13.843   7.228  0.1586  0.2803 -0.4537
 1165ERGO   ROH16229   7.504  15.308   6.352 -0.2484 -0.1701 -0.0719
 1165ERGO    R116230   7.476  15.430   6.606 -0.1419 -0.0770 -0.1043
 1165ERGO    R216231   7.265  15.596   6.670 -0.0376  0.0635 -0.1228
 1165ERGO    R316232   7.234  15.424   6.878 -0.1068  0.1446 -0.0653
 1165ERGO    R416233   7.018  15.618   6.910 -0.0117  0.2653 -0.1135
 1165ERGO    R516234   7.166  15.562   7.060 -0.0265  0.2406 -0.1051
 1165ERGO    C116235   6.845  15.470   7.246 -0.0615  0.4589 -0.0540
 1165ERGO    C216236   6.603  15.437   7.571  0.0272 -0.0136  0.1348
 1166ERGO   ROH16237   8.898  16.188  10.025  0.1210  0.0246 -0.1551
 1166ERGO    R116238   8.824  16.082   9.773  0.0998  0.0239 -0.1482
 1166ERGO    R216239   8.638  16.204   9.609  0.0391 -0.0124 -0.1023
 1166ERGO    R316240   8.839  16.190   9.426  0.0054  0.0509 -0.1453
 1166ERGO    R416241   8.595  16.132   9.273 -0.0091 -0.1091 -0.0759
 1166ERGO    R516242   8.775  16.009   9.282  0.0598 -0.0173 -0.0897
 1166ERGO    C116243   8.758  16.077   8.906 -0.0687 -0.1062 -0.1008
 1166ERGO    C216244   8.806  15.991   8.579  0.0805 -0.0653  0.1957
 1167ERGO   ROH16245   5.640  11.133   6.584 -0.5213 -0.0291 -0.0579
 1167ERGO    R116246   5.752  11.129   6.844 -0.0694  0.0745 -0.2427
 1167ERGO    R216247   5.885  11.346   6.952 -0.4652  0.3645 -0.3219
 1167ERGO    R316248   5.707  11.314   7.155 -0.0582 -0.2688 -0.0304
 1167ERGO    R416249   5.937  11.447   7.278 -0.2580  0.4753 -0.3869
 1167ERGO    R516250   5.842  11.262   7.345  0.4416  0.1266 -0.2512
 1167ERGO    C116251   5.800  11.476   7.659  0.2447 -0.0548 -0.1510
 1167ERGO    C216252   5.921  11.607   7.986  0.2259 -0.2341 -0.2137
 1168ERGO   ROH16253   0.267   9.557   6.707  0.5720  0.1232  0.3462
 1168ERGO    R116254   0.325   9.351   6.892  0.1815  0.0256  0.3700
 1168ERGO    R216255   0.170   9.305   7.116 -0.1233  0.1007  0.1871
 1168ERGO    R316256   0.158   9.052   7.016 -0.2252  0.1378  0.1081
 1168ERGO    R416257   0.074   9.026   7.296 -0.2132  0.0758  0.0992
 1168ERGO    R516258   0.232   8.913   7.197 -0.2658  0.0503  0.0537
 1168ERGO    C116259   0.007   8.626   7.307 -0.3612  0.0959 -0.0262
 1168ERGO    C216260   0.051   8.301   7.428 -0.1729 -0.2716  0.2978
 1169ERGO   ROH16261  13.310  12.633  10.196 -0.0788 -0.1166 -0.0487
 1169ERGO    R116262  13.158  12.704   9.968 -0.0963 -0.0832 -0.0258
 1169ERGO    R216263  13.269  12.832   9.750 -0.1254 -0.0054  0.0095
 1169ERGO    R316264  13.162  12.623   9.613 -0.0912  0.0138 -0.0491
 1169ERGO    R416265  13.259  12.805   9.405  0.2895 -0.1158 -0.0001
 1169ERGO    R516266  13.058  12.723   9.423  0.2087  0.0188 -0.2195
 1169ERGO    C116267  13.152  12.593   9.077  0.5634 -0.1620 -0.0608
 1169ERGO    C216268  13.100  12.561   8.724  0.2914  0.3432 -0.3269
 1170ERGO   ROH16269  17.638   9.518  10.022  0.3286 -0.0160  0.0239
 1170ERGO    R116270  17.792   9.523   9.784  0.2815  0.0551 -0.0059
 1170ERGO    R216271  17.786   9.319   9.598  0.2622  0.0997 -0.0561
 1170ERGO    R316272  17.726   9.521   9.426  0.2110  0.1373  0.0063
 1170ERGO    R416273  17.846   9.312   9.258  0.1749  0.1784 -0.0731
 1170ERGO    R516274  17.908   9.521   9.270  0.1710  0.1781 -0.0407
 1170ERGO    C116275  17.825   9.498   8.898  0.0757  0.2594 -0.0244
 1170ERGO    C216276  17.864   9.419   8.602  0.1869 -0.1715  0.3783
 1171ERGO   ROH16277   0.162   4.668   9.427 -0.0307  0.3588  0.1979
 1171ERGO    R116278   0.262   4.810   9.203 -0.0196  0.2134  0.1098
 1171ERGO    R216279   0.271   4.700   8.950 -0.0667  0.0704  0.1690
 1171ERGO    R316280   0.132   4.924   8.883 -0.0235  0.0651  0.0581
 1171ERGO    R416281   0.189   4.793   8.627 -0.0246 -0.0553  0.1213
 1171ERGO    R516282   0.234   5.000   8.680  0.0053 -0.0402  0.0338
 1171ERGO    C116283   0.010   5.057   8.376  0.0403 -0.1335 -0.0107
 1171ERGO    C216284  -0.036   5.066   7.985  0.1105  0.0750  0.2166
 1172ERGO   ROH16285   2.708   5.617   9.697  0.1224  0.2023  0.2059
 1172ERGO    R116286   2.833   5.608   9.443  0.1562  0.3242  0.2178
 1172ERGO    R216287   2.710   5.500   9.221  0.2650  0.2427  0.1964
 1172ERGO    R316288   2.768   5.742   9.111  0.0810  0.2998  0.2227
 1172ERGO    R416289   2.698   5.572   8.883  0.1764  0.2821  0.2077
 1172ERGO    R516290   2.880   5.689   8.906  0.0958  0.4085  0.2026
 1172ERGO    C116291   2.744   5.841   8.583 -0.0480  0.3587  0.2389
 1172ERGO    C216292   2.816   5.961   8.284 -0.0666  0.0524  0.1962
 1173ERGO   ROH16293   5.535  15.931   6.235  0.0704  0.1805 -0.1174
 1173ERGO    R116294   5.591  15.786   6.472 -0.0272  0.0763 -0.1526
 1173ERGO    R216295   5.623  15.910   6.718 -0.0396 -0.0174 -0.0870
 1173ERGO    R316296   5.429  15.735   6.794 -0.1185  0.0216 -0.2102
 1173ERGO    R416297   5.572  15.798   7.041 -0.0871 -0.2443 -0.1748
 1173ERGO    R516298   5.532  15.600   6.962 -0.1879 -0.1563 -0.3202
 1173ERGO    C116299   5.360  15.570   7.301 -0.1889 -0.3396 -0.3417
 1173ERGO    C216300   5.435  15.540   7.660 -0.0959  0.0185 -0.1865
 1174ERGO   ROH16301   1.847   0.708   5.889  0.3230 -0.0146  0.0082
 1174ERGO    R116302   1.908   0.812   6.145  0.1422 -0.0213  0.0557
 1174ERGO    R216303   1.716   0.849   6.340  0.0274 -0.1736 -0.0238
 1174ERGO    R316304   1.885   0.697   6.489  0.0543 -0.0977  0.0241
 1174ERGO    R416305   1.720   0.839   6.686  0.0219 -0.0829 -0.0206
 1174ERGO    R516306   1.938   0.834   6.678  0.0206 -0.0388 -0.0112
 1174ERGO    C116307   1.881   0.690   7.027  0.0440  0.0412  0.0262
 1174ERGO    C216308   1.726   0.669   7.308  0.4955 -0.1692  0.0650
 1175ERGO   ROH16309   0.093   8.042  10.231 -0.0360 -0.1974  0.0409
 1175ERGO    R116310   0.074   8.206  10.001  0.0169 -0.0589  0.1350
 1175ERGO    R216311   0.273   8.217   9.810  0.0063 -0.0358  0.1281
 1175ERGO    R316312   0.069   8.157   9.641 -0.0319  0.1482  0.1057
 1175ERGO    R416313   0.281   8.259   9.467  0.0774 -0.0261  0.1303
 1175ERGO    R516314   0.075   8.330   9.475  0.1347  0.1531  0.1136
 1175ERGO    C116315   0.094   8.227   9.109  0.0829  0.1522  0.1105
 1175ERGO    C216316   0.016   8.268   8.795  0.0464 -0.4209 -0.1449
 1176ERGO   ROH16317   0.060  11.916   6.169 -0.0381 -0.1061  0.1055
 1176ERGO    R116318  -0.012  11.909   6.443  0.0702 -0.1321  0.1336
 1176ERGO    R216319   0.155  11.808   6.638  0.2676  0.1137  0.0964
 1176ERGO    R316320   0.114  12.051   6.753  0.0144  0.0938  0.0548
 1176ERGO    R416321   0.163  11.869   6.978  0.3259  0.2047  0.0793
 1176ERGO    R516322  -0.008  12.002   6.953  0.1512 -0.0096  0.1142
 1176ERGO    C116323   0.129  12.133   7.284  0.1222  0.2390  0.0303
 1176ERGO    C216324   0.285  12.287   7.504  0.1176  0.0421  0.1400
 1177ERGO   ROH16325   4.545   7.716   6.377  0.1507 -0.1673  0.1431
 1177ERGO    R116326   4.650   7.822   6.618 -0.0090  0.0946  0.1028
 1177ERGO    R216327   4.492   7.947   6.807 -0.2151 -0.1036  0.0736
 1177ERGO    R316328   4.604   7.764   6.975  0.1077  0.1324  0.1230
 1177ERGO    R416329   4.490   7.968   7.152 -0.2817 -0.0393  0.0687
 1177ERGO    R516330   4.696   7.895   7.153 -0.1463  0.3369  0.1042
 1177ERGO    C116331   4.594   7.809   7.510 -0.0174  0.2197  0.1121
 1177ERGO    C216332   4.489   7.852   7.811  0.1676  0.1407  0.1870
 1178ERGO   ROH16333  11.048  13.786   6.278  0.1914  0.1489 -0.1803
 1178ERGO    R116334  11.116  13.738   6.549  0.0565  0.1091 -0.1532
 1178ERGO    R216335  11.358  13.814   6.658  0.0264  0.0381 -0.0370
 1178ERGO    R316336  11.200  13.939   6.840 -0.0241  0.0631 -0.0973
 1178ERGO    R416337  11.449  13.882   6.984 -0.0135  0.2003 -0.0588
 1178ERGO    R516338  11.247  13.828   7.047 -0.0004  0.1616 -0.0485
 1178ERGO    C116339  11.353  14.040   7.346 -0.0842  0.3180 -0.1282
 1178ERGO    C216340  11.358  14.207   7.699  0.0503  0.1265 -0.0629
 1179ERGO   ROH16341  16.636  14.412   6.419 -0.0276  0.0209 -0.0569
 1179ERGO    R116342  16.621  14.455   6.698 -0.1929 -0.0320 -0.0553
 1179ERGO    R216343  16.481  14.287   6.868 -0.1132 -0.1922 -0.1393
 1179ERGO    R316344  16.719  14.274   6.998 -0.1554  0.0146 -0.0409
 1179ERGO    R416345  16.519  14.213   7.203 -0.1778 -0.2177 -0.1382
 1179ERGO    R516346  16.674  14.366   7.214 -0.3325 -0.0714 -0.0435
 1179ERGO    C116347  16.765  14.159   7.521 -0.2548 -0.0384 -0.0452
 1179ERGO    C216348  16.853  14.041   7.896 -0.1114  0.1110 -0.0329
 1180ERGO   ROH16349   7.734   8.258   9.864  0.1723  0.2055 -0.0372
 1180ERGO    R116350   7.669   8.346   9.603  0.1157  0.0765 -0.0675
 1180ERGO    R216351   7.857   8.361   9.401  0.0842  0.0315 -0.0998
 1180ERGO    R316352   7.677   8.206   9.268  0.1014 -0.0687 -0.0082
 1180ERGO    R416353   7.861   8.302   9.060 -0.1159  0.1195 -0.1189
 1180ERGO    R516354   7.644   8.319   9.059 -0.1322 -0.0403  0.0419
 1180ERGO    C116355   7.695   8.122   8.737 -0.2162  0.0768 -0.0440
 1180ERGO    C216356   7.729   8.073   8.384  0.0395 -0.0987  0.0577
 1181ERGO   ROH16357   6.822   4.967   6.301  0.1807 -0.0828  0.1399
 1181ERGO    R116358   6.568   4.914   6.414  0.1272  0.0091  0.0654
 1181ERGO    R216359   6.537   4.800   6.664  0.0120  0.0017  0.0510
 1181ERGO    R316360   6.383   5.019   6.709  0.0879  0.0612  0.0216
 1181ERGO    R416361   6.338   4.847   6.943 -0.0274  0.0805  0.0094
 1181ERGO    R516362   6.185   4.932   6.813  0.0334  0.1403 -0.0194
 1181ERGO    C116363   6.077   5.080   7.147  0.0209  0.1821 -0.0425
 1181ERGO    C216364   6.151   5.254   7.442  0.1268  0.0692  0.1237
 1182ERGO   ROH16365  16.456  16.929   9.639  0.0616 -0.0256  0.0323
 1182ERGO    R116366  16.643  16.968   9.430 -0.0617  0.0615 -0.0641
 1182ERGO    R216367  16.714  16.767   9.255  0.0530  0.0502 -0.0108
 1182ERGO    R316368  16.641  16.949   9.067 -0.2011 -0.0947 -0.0547
 1182ERGO    R416369  16.718  16.712   8.914  0.0273 -0.0509  0.0051
 1182ERGO    R516370  16.794  16.913   8.887 -0.2099  0.0237 -0.0809
 1182ERGO    C116371  16.651  16.850   8.539 -0.2262 -0.2459 -0.0266
 1182ERGO    C216372  16.669  16.770   8.246  0.0517  0.0342  0.2487
 1183ERGO   ROH16373   7.294  10.245   6.471  0.0904  0.1107  0.1959
 1183ERGO    R116374   7.497  10.252   6.668  0.0887  0.0994  0.1970
 1183ERGO    R216375   7.448  10.333   6.928  0.0723  0.0212  0.2155
 1183ERGO    R316376   7.558  10.092   6.989  0.1225  0.0276  0.1559
 1183ERGO    R416377   7.477  10.203   7.247  0.1958 -0.0023  0.1961
 1183ERGO    R516378   7.675  10.129   7.195  0.1894  0.0251  0.1210
 1183ERGO    C116379   7.596   9.901   7.490  0.3150 -0.0102  0.1289
 1183ERGO    C216380   7.664   9.836   7.728  0.1168  0.0851 -0.1995
 1184ERGO   ROH16381   5.535  12.962   6.178  0.0184  0.0951  0.1638
 1184ERGO    R116382   5.644  12.857   6.418  0.1976 -0.0322  0.0293
 1184ERGO    R216383   5.905  12.903   6.495  0.1515  0.2294  0.0314
 1184ERGO    R316384   5.788  12.992   6.723  0.0692 -0.1809  0.1578
 1184ERGO    R416385   6.048  12.888   6.809  0.2678  0.1365 -0.0248
 1184ERGO    R516386   5.853  12.833   6.890  0.3693 -0.2534 -0.0190
 1184ERGO    C116387   6.021  12.962   7.207  0.2583 -0.3029  0.0612
 1184ERGO    C216388   6.135  12.820   7.481 -0.2384 -0.0416  0.3739
 1185ERGO   ROH16389   6.669  15.399   9.972 -0.0138 -0.0946  0.1901
 1185ERGO    R116390   6.645  15.210   9.762 -0.0837 -0.0021  0.1155
 1185ERGO    R216391   6.463  15.239   9.555 -0.0168  0.1867  0.0903
 1185ERGO    R316392   6.684  15.212   9.401 -0.0033  0.1031  0.1220
 1185ERGO    R416393   6.461  15.180   9.215 -0.0054 -0.0358  0.1263
 1185ERGO    R516394   6.626  15.042   9.242  0.0102 -0.0108  0.2285
 1185ERGO    C116395   6.668  15.120   8.871  0.0140 -0.2437  0.1772
 1185ERGO    C216396   6.672  15.113   8.457  0.1446  0.0164 -0.0595
 1186ERGO   ROH16397  13.135   0.789   9.847 -0.1821 -0.2273  0.0455
 1186ERGO    R116398  13.259   0.870   9.606 -0.1021 -0.1003  0.1283
 1186ERGO    R216399  13.333   0.691   9.409  0.0483 -0.0053  0.1000
 1186ERGO    R316400  13.182   0.852   9.250  0.0645 -0.0038  0.0855
 1186ERGO    R416401  13.287   0.646   9.069  0.3264  0.1586  0.0373
 1186ERGO    R516402  13.303   0.862   9.044  0.2144  0.1888  0.1765
 1186ERGO    C116403  13.118   0.771   8.723  0.5036  0.2554 -0.0128
 1186ERGO    C216404  13.115   0.733   8.400 -0.1200  0.1017 -0.1282
 1187ERGO   ROH16405  13.884   6.621   9.877  0.2180 -0.1250 -0.0168
 1187ERGO    R116406  13.813   6.709   9.618  0.1771 -0.0285  0.0276
 1187ERGO    R216407  14.000   6.780   9.428  0.1424  0.0525  0.0327
 1187ERGO    R316408  13.869   6.597   9.275  0.1315  0.1095 -0.0278
 1187ERGO    R416409  14.005   6.774   9.083  0.1966  0.1447  0.0313
 1187ERGO    R516410  13.792   6.724   9.086  0.1801  0.1778 -0.0092
 1187ERGO    C116411  13.885   6.599   8.738  0.2178  0.2518 -0.0265
 1187ERGO    C216412  14.062   6.589   8.447  0.1652  0.1657  0.0171
 1188ERGO   ROH16413   9.705  13.762   7.039  0.0397 -0.0916  0.0049
 1188ERGO    R116414   9.511  13.628   7.196  0.1314 -0.1957  0.0300
 1188ERGO    R216415   9.569  13.520   7.444  0.1487  0.1087  0.1606
 1188ERGO    R316416   9.359  13.673   7.524 -0.0931 -0.0837 -0.0861
 1188ERGO    R416417   9.325  13.420   7.667  0.3009  0.0657  0.3104
 1188ERGO    R516418   9.177  13.519   7.541  0.1413 -0.3506  0.1429
 1188ERGO    C116419   8.985  13.505   7.871  0.1628 -0.1398  0.1659
 1188ERGO    C216420   8.828  13.680   7.933 -0.2271  0.1671 -0.4487
 1189ERGO   ROH16421  14.086  13.138   9.891 -0.1814 -0.1903 -0.2521
 1189ERGO    R116422  14.177  13.292   9.671 -0.2993 -0.0417 -0.1987
 1189ERGO    R216423  14.361  13.196   9.488 -0.0360  0.2512 -0.0950
 1189ERGO    R316424  14.169  13.264   9.308 -0.0470 -0.0556 -0.2045
 1189ERGO    R416425  14.398  13.184   9.145  0.0707  0.0226 -0.0776
 1189ERGO    R516426  14.288  13.371   9.131 -0.0928 -0.0835 -0.2522
 1189ERGO    C116427  14.240  13.241   8.776  0.1224 -0.3986 -0.1704
 1189ERGO    C216428  14.237  13.162   8.508  0.0962 -0.4148  0.4378
 1190ERGO   ROH16429   6.475   0.741   9.668  0.0247  0.0517 -0.2130
 1190ERGO    R116430   6.602   0.651   9.432  0.0637  0.1944 -0.2466
 1190ERGO    R216431   6.486   0.466   9.263  0.1874  0.1319 -0.2589
 1190ERGO    R316432   6.531   0.657   9.075  0.0081  0.2003 -0.2360
 1190ERGO    R416433   6.511   0.407   8.923  0.4035  0.1726 -0.2526
 1190ERGO    R516434   6.675   0.551   8.915  0.2181  0.3941 -0.1824
 1190ERGO    C116435   6.568   0.553   8.549  0.3610  0.2605 -0.2275
 1190ERGO    C216436   6.559   0.473   8.100  0.0579  0.0159 -0.2034
 1191ERGO   ROH16437   6.129  16.789   9.797 -0.0405 -0.1178 -0.1926
 1191ERGO    R116438   6.009  16.913   9.572  0.0463  0.0682 -0.1392
 1191ERGO    R216439   6.111  17.143   9.456  0.2465  0.0176 -0.0758
 1191ERGO    R316440   6.108  16.992   9.231  0.0826  0.0909 -0.1224
 1191ERGO    R416441   6.192  17.257   9.140 -0.0136  0.1197 -0.1078
 1191ERGO    R516442   6.027  17.140   9.061 -0.0632  0.1335 -0.0143
 1191ERGO    C116443   6.236  17.181   8.744 -0.3189  0.2481 -0.1703
 1191ERGO    C216444   6.193  17.202   8.365  0.0344 -0.0356 -0.0597
 1192ERGO   ROH16445   4.545   5.737   6.251  0.3104  0.0793 -0.0232
 1192ERGO    R116446   4.715   5.716   6.476  0.2040 -0.0520  0.0465
 1192ERGO    R216447   4.846   5.934   6.585  0.3272 -0.1490  0.1020
 1192ERGO    R316448   4.725   5.851   6.814  0.1676 -0.0612  0.0499
 1192ERGO    R416449   4.975   5.977   6.903  0.1167 -0.0644  0.1779
 1192ERGO    R516450   4.906   5.776   6.953  0.0633 -0.0366  0.1965
 1192ERGO    C116451   4.937   5.924   7.303 -0.1558  0.0674  0.1732
 1192ERGO    C216452   5.131   6.158   7.636 -0.0035  0.1640  0.0057
 1193ERGO   ROH16453  10.854   0.234  10.149  0.0595  0.0609 -0.1163
 1193ERGO    R116454  10.729   0.063   9.961  0.0786 -0.0192 -0.0573
 1193ERGO    R216455  10.507   0.139   9.816 -0.0660 -0.1732  0.0738
 1193ERGO    R316456  10.662   0.068   9.604 -0.1298 -0.0400 -0.0188
 1193ERGO    R416457  10.398   0.124   9.488 -0.2811 -0.3916  0.1524
 1193ERGO    R516458  10.515  -0.058   9.463 -0.0772 -0.2562  0.1188
 1193ERGO    C116459  10.480   0.049   9.098 -0.4665 -0.3937  0.1113
 1193ERGO    C216460  10.489  -0.133   8.748  0.0828  0.0045 -0.1371
 1194ERGO   ROH16461  16.260  18.206   5.831  0.1668 -0.0149  0.2138
 1194ERGO    R116462  16.175  18.425   5.990  0.1245 -0.0118  0.1860
 1194ERGO    R216463  15.918  18.447   6.087  0.0905  0.0105  0.0802
 1194ERGO    R316464  16.045  18.472   6.327 -0.0081 -0.0061  0.1358
 1194ERGO    R416465  15.769  18.555   6.380 -0.0595 -0.0865  0.0415
 1194ERGO    R516466  15.950  18.669   6.424 -0.1009 -0.0462  0.1364
 1194ERGO    C116467  15.801  18.642   6.774 -0.2392 -0.1583  0.0711
 1194ERGO    C216468  15.707  18.653   7.093 -0.0294 -0.2206  0.1257
 1195ERGO   ROH16469   7.271   2.897   9.942  0.2348 -0.2082 -0.0555
 1195ERGO    R116470   7.151   3.075   9.757  0.1467 -0.1336  0.0728
 1195ERGO    R216471   7.297   3.211   9.565  0.0487 -0.0911  0.0299
 1195ERGO    R316472   7.116   3.098   9.396 -0.0673 -0.0123  0.0989
 1195ERGO    R416473   7.314   3.223   9.220 -0.1550  0.0211  0.0219
 1195ERGO    R516474   7.098   3.253   9.215 -0.1558  0.0508  0.1603
 1195ERGO    C116475   7.154   3.124   8.860 -0.3824  0.1603  0.0820
 1195ERGO    C216476   7.288   3.158   8.670  0.1123  0.2108  0.1184
 1196ERGO   ROH16477  13.206  18.335   6.421  0.0136  0.1005 -0.1031
 1196ERGO    R116478  13.217  18.457   6.676  0.1278  0.0374 -0.0776
 1196ERGO    R216479  13.009  18.443   6.857  0.1194  0.1836 -0.0782
 1196ERGO    R316480  13.202  18.347   7.023  0.0384 -0.0225 -0.0993
 1196ERGO    R416481  12.959  18.350   7.186  0.0376  0.1736 -0.0931
 1196ERGO    R516482  13.150  18.442   7.236  0.1275 -0.0077 -0.0812
 1196ERGO    C116483  13.110  18.205   7.533 -0.0862 -0.0257 -0.1215
 1196ERGO    C216484  13.186  18.205   7.875 -0.0535 -0.3334  0.1082
 1197ERGO   ROH16485   0.979   7.652   9.958  0.0784  0.0502  0.0346
 1197ERGO    R116486   1.172   7.647   9.751 -0.0227  0.1330 -0.0619
 1197ERGO    R216487   1.222   7.421   9.600  0.0877  0.1183  0.0045
 1197ERGO    R316488   1.174   7.589   9.392 -0.1563 -0.0046 -0.0428
 1197ERGO    R416489   1.283   7.348   9.268 -0.1257 -0.0185 -0.0074
 1197ERGO    R516490   1.355   7.551   9.241 -0.2460  0.0111 -0.1620
 1197ERGO    C116491   1.273   7.463   8.879 -0.4790 -0.2136 -0.0586
 1197ERGO    C216492   1.239   7.500   8.454 -0.2071 -0.0954  0.2552
 1198ERGO   ROH16493   1.431  15.513   6.025 -0.2644 -0.1474  0.0787
 1198ERGO    R116494   1.461  15.637   6.277 -0.1671 -0.1456  0.0677
 1198ERGO    R216495   1.528  15.497   6.506  0.0958 -0.1194  0.0147
 1198ERGO    R316496   1.728  15.680   6.521 -0.0171  0.0161 -0.1225
 1198ERGO    R416497   1.747  15.529   6.771  0.2009  0.0880 -0.0962
 1198ERGO    R516498   1.732  15.746   6.751  0.0494  0.0724 -0.1409
 1198ERGO    C116499   2.062  15.720   6.940  0.1561  0.3360 -0.2895
 1198ERGO    C216500   2.415  15.731   6.861  0.1432 -0.2019  0.1395
 1199ERGO   ROH16501  14.458  13.663   9.845 -0.0956  0.1841 -0.0903
 1199ERGO    R116502  14.601  13.735   9.611 -0.0438  0.1393 -0.0727
 1199ERGO    R216503  14.714  13.547   9.442 -0.0676  0.1032 -0.0513
 1199ERGO    R316504  14.569  13.677   9.253 -0.0090  0.1349 -0.0745
 1199ERGO    R416505  14.782  13.543   9.104 -0.2216 -0.1953 -0.0824
 1199ERGO    R516506  14.732  13.755   9.096  0.0057 -0.1455 -0.2006
 1199ERGO    C116507  14.685  13.663   8.729 -0.2565 -0.3396 -0.1221
 1199ERGO    C216508  14.660  13.551   8.422 -0.0874 -0.0016 -0.1768
 1200ERGO   ROH16509  16.936  10.419   6.211  0.2129  0.0218  0.0683
 1200ERGO    R116510  17.078  10.414   6.456  0.1055 -0.0527  0.1296
 1200ERGO    R216511  17.085  10.629   6.629  0.0729 -0.0871  0.1738
 1200ERGO    R316512  16.996  10.446   6.810 -0.0418 -0.1041  0.1012
 1200ERGO    R416513  17.150  10.638   6.969  0.0687 -0.2516  0.1794
 1200ERGO    R516514  17.178  10.422   6.964 -0.0586 -0.2686  0.0987
 1200ERGO    C116515  17.105  10.471   7.335 -0.0413 -0.3632  0.1146
 1200ERGO    C216516  16.916  10.390   7.659  0.0122 -0.0071 -0.1145
 1201ERGO   ROH16517   1.811   1.593   9.482 -0.0144 -0.0163 -0.0207
 1201ERGO    R116518   1.908   1.556   9.219  0.0812 -0.0880  0.0232
 1201ERGO    R216519   1.838   1.722   9.009 -0.1083 -0.3344 -0.1200
 1201ERGO    R316520   2.107   1.747   8.981 -0.1312  0.0034 -0.0820
 1201ERGO    R416521   2.001   1.780   8.710 -0.1279 -0.1343 -0.0931
 1201ERGO    R516522   2.155   1.639   8.773  0.0388  0.0613 -0.0704
 1201ERGO    C116523   2.349   1.836   8.510 -0.1609  0.2994 -0.0417
 1201ERGO    C216524   2.506   1.866   8.216  0.1271  0.0654 -0.0924
 1202ERGO   ROH16525  14.809   7.001   6.841  0.1417 -0.1003 -0.2108
 1202ERGO    R116526  14.913   6.753   6.929  0.0178 -0.1671 -0.2520
 1202ERGO    R216527  14.907   6.675   7.193  0.1793 -0.1082 -0.2320
 1202ERGO    R316528  14.784   6.455   7.093 -0.0843 -0.0329 -0.0842
 1202ERGO    R416529  14.911   6.362   7.341  0.2926 -0.1443 -0.3084
 1202ERGO    R516530  14.934   6.274   7.142 -0.0722 -0.1095 -0.3749
 1202ERGO    C116531  14.796   5.973   7.332  0.1112 -0.0947 -0.2141
 1202ERGO    C216532  14.924   5.652   7.607 -0.0568  0.0135 -0.0301
 1203ERGO   ROH16533   3.838  16.323   9.494  0.1088 -0.1242  0.0387
 1203ERGO    R116534   3.839  16.424   9.230  0.0998 -0.1086  0.0449
 1203ERGO    R216535   4.042  16.369   9.050  0.0343 -0.1941 -0.0010
 1203ERGO    R316536   3.837  16.285   8.893 -0.0391 -0.0861  0.0354
 1203ERGO    R416537   4.054  16.345   8.706 -0.0373 -0.1957 -0.0038
 1203ERGO    R516538   3.850  16.423   8.698 -0.0008 -0.0888  0.0342
 1203ERGO    C116539   3.868  16.252   8.358 -0.1481 -0.0954  0.0289
 1203ERGO    C216540   3.919  16.084   8.045 -0.0329 -0.0947  0.1207
 1204ERGO   ROH16541  18.031   3.709   9.473  0.1947  0.0759  0.1478
 1204ERGO    R116542  18.017   3.775   9.198 -0.0663 -0.0913  0.1156
 1204ERGO    R216543  18.226   3.897   9.063 -0.2606  0.0099 -0.1152
 1204ERGO    R316544  18.198   3.685   8.895 -0.2140 -0.1156  0.0357
 1204ERGO    R416545  18.348   3.882   8.740 -0.1746 -0.2462 -0.0726
 1204ERGO    R516546  18.164   3.783   8.680 -0.1520 -0.2866 -0.0478
 1204ERGO    C116547  18.392   3.674   8.394 -0.0810 -0.5131  0.0939
 1204ERGO    C216548  18.604   3.797   8.151  0.0489  0.0700  0.1349
 1205ERGO   ROH16549   1.594   5.799   9.787 -0.0319  0.0557 -0.0032
 1205ERGO    R116550   1.719   5.909   9.558  0.0570 -0.1615 -0.0611
 1205ERGO    R216551   1.802   5.754   9.344 -0.2084 -0.3227 -0.0505
 1205ERGO    R316552   1.649   5.927   9.201 -0.0159 -0.1446 -0.0460
 1205ERGO    R416553   1.795   5.774   8.999 -0.0811 -0.2049 -0.0472
 1205ERGO    R516554   1.787   5.991   9.017  0.0984 -0.2020  0.0189
 1205ERGO    C116555   1.648   5.948   8.664  0.1736  0.0308 -0.0410
 1205ERGO    C216556   1.550   5.990   8.307 -0.0310  0.1983  0.0568
 1206ERGO   ROH16557  16.597  10.844   9.813 -0.1311 -0.2092  0.1482
 1206ERGO    R116558  16.650  10.717   9.566 -0.0320 -0.1009  0.1133
 1206ERGO    R216559  16.452  10.595   9.416  0.0452 -0.1173  0.0287
 1206ERGO    R316560  16.546  10.758   9.220  0.0280 -0.0142  0.1047
 1206ERGO    R416561  16.440  10.526   9.077  0.2319 -0.0550  0.0073
 1206ERGO    R516562  16.640  10.609   9.057  0.1918  0.0761  0.1112
 1206ERGO    C116563  16.521  10.639   8.696  0.3248  0.0780  0.0662
 1206ERGO    C216564  16.571  10.659   8.323 -0.1197 -0.0822 -0.0563
 1207ERGO   ROH16565  17.046   1.890   9.299 -0.0910 -0.1043  0.0240
 1207ERGO    R116566  17.217   1.955   9.082 -0.0563 -0.0905  0.0561
 1207ERGO    R216567  17.251   1.788   8.864 -0.0360 -0.0666  0.0442
 1207ERGO    R316568  17.181   2.011   8.725 -0.0002 -0.0471  0.0563
 1207ERGO    R416569  17.342   1.855   8.537  0.0531 -0.0242  0.0766
 1207ERGO    R516570  17.374   2.063   8.593  0.0379 -0.0293  0.1148
 1207ERGO    C116571  17.329   2.103   8.216  0.1383  0.0188  0.1068
 1207ERGO    C216572  17.366   2.315   7.982 -0.1851  0.0795  0.1377
 1208ERGO   ROH16573   4.446  12.126   6.303  0.1801  0.0621  0.0699
 1208ERGO    R116574   4.390  12.097   6.579  0.1618  0.2192  0.0833
 1208ERGO    R216575   4.349  12.314   6.746 -0.1544  0.3094 -0.1057
 1208ERGO    R316576   4.117  12.183   6.804 -0.0004  0.0534 -0.0466
 1208ERGO    R416577   4.214  12.278   7.063 -0.1097  0.2896 -0.0883
 1208ERGO    R516578   4.160  12.074   7.012  0.1355  0.1969  0.0036
 1208ERGO    C116579   3.918  12.136   7.301  0.0609  0.0377 -0.0227
 1208ERGO    C216580   3.865  12.036   7.563  0.1976 -0.1855  0.0558
 1209ERGO   ROH16581  11.479   1.795   9.902 -0.1904  0.1066 -0.0529
 1209ERGO    R116582  11.585   1.731   9.647 -0.1130  0.0159 -0.0006
 1209ERGO    R216583  11.462   1.553   9.475 -0.0846 -0.0188  0.0034
 1209ERGO    R316584  11.477   1.761   9.301  0.0054 -0.0662 -0.0436
 1209ERGO    R416585  11.464   1.523   9.130  0.1574 -0.1048  0.0117
 1209ERGO    R516586  11.615   1.680   9.122  0.1367 -0.0900  0.0729
 1209ERGO    C116587  11.479   1.701   8.767  0.3826 -0.1994 -0.0274
 1209ERGO    C216588  11.418   1.646   8.423 -0.0586 -0.0796 -0.0244
 1210ERGO   ROH16589   7.228   5.726  10.220 -0.0241 -0.1609 -0.0933
 1210ERGO    R116590   7.231   5.897   9.994  0.0091 -0.0515 -0.0102
 1210ERGO    R216591   7.465   5.991   9.882  0.0278 -0.0986 -0.0031
 1210ERGO    R316592   7.362   5.884   9.655 -0.0574  0.0599 -0.0414
 1210ERGO    R416593   7.562   6.078   9.562  0.0891 -0.0469  0.0287
 1210ERGO    R516594   7.352   6.068   9.502  0.0757  0.1293  0.0278
 1210ERGO    C116595   7.521   6.028   9.162  0.0448  0.1319  0.0112
 1210ERGO    C216596   7.560   6.033   8.819 -0.2313  0.2460  0.1586
 1211ERGO   ROH16597  11.413   1.833   6.153 -0.0008  0.1942 -0.0572
 1211ERGO    R116598  11.462   1.737   6.415  0.0426 -0.0006 -0.1358
 1211ERGO    R216599  11.717   1.705   6.516  0.0515  0.1593 -0.1214
 1211ERGO    R316600  11.622   1.863   6.717 -0.1407 -0.1213  0.0159
 1211ERGO    R416601  11.793   1.664   6.851  0.3987  0.1653 -0.1951
 1211ERGO    R516602  11.585   1.711   6.899  0.3190 -0.2957 -0.0162
 1211ERGO    C116603  11.749   1.788   7.234  0.4205 -0.0945 -0.1092
 1211ERGO    C216604  11.818   1.624   7.454  0.1493 -0.0472  0.5663
 1212ERGO   ROH16605   9.139   2.130   7.880 -0.1906 -0.2044  0.0702
 1212ERGO    R116606   9.161   1.950   7.663 -0.1488 -0.0335 -0.0704
 1212ERGO    R216607   9.327   1.997   7.446 -0.0697  0.1169  0.0163
 1212ERGO    R316608   9.424   1.752   7.509 -0.1290  0.0517 -0.1448
 1212ERGO    R416609   9.571   1.831   7.268  0.0120  0.2455  0.0080
 1212ERGO    R516610   9.460   1.646   7.297 -0.0212  0.2318 -0.2161
 1212ERGO    C116611   9.805   1.503   7.223  0.0039  0.2592 -0.1482
 1212ERGO    C216612  10.002   1.270   7.173 -0.0607 -0.2408 -0.1980
 1213ERGO   ROH16613   2.616  13.220  10.021  0.2226 -0.1103 -0.0850
 1213ERGO    R116614   2.445  13.263   9.799  0.0470 -0.2517  0.0198
 1213ERGO    R216615   2.511  13.432   9.591 -0.3299  0.0046  0.0943
 1213ERGO    R316616   2.461  13.212   9.439 -0.0227  0.0115 -0.0216
 1213ERGO    R416617   2.433  13.437   9.254 -0.2922  0.0646  0.0872
 1213ERGO    R516618   2.286  13.280   9.291 -0.0922 -0.1455 -0.0097
 1213ERGO    C116619   2.341  13.234   8.916  0.0182  0.1060 -0.0257
 1213ERGO    C216620   2.402  13.317   8.584 -0.0579  0.0763  0.1815
 1214ERGO   ROH16621   9.280   0.866   6.324  0.0290  0.0896  0.0078
 1214ERGO    R116622   9.109   0.858   6.550 -0.0857  0.0886 -0.0772
 1214ERGO    R216623   9.171   0.716   6.778 -0.2747 -0.0472 -0.1021
 1214ERGO    R316624   9.128   0.956   6.900 -0.1957 -0.0716 -0.0268
 1214ERGO    R416625   9.034   0.756   7.093  0.0264 -0.1043  0.0388
 1214ERGO    R516626   8.921   0.926   7.017 -0.0746 -0.1158  0.1732
 1214ERGO    C116627   8.914   1.004   7.390  0.2758 -0.1605  0.1916
 1214ERGO    C216628   8.901   0.893   7.715 -0.1660  0.0498  0.0880
 1215ERGO   ROH16629   2.652   3.484   5.985  0.2673  0.1077  0.2284
 1215ERGO    R116630   2.522   3.563   6.224  0.2245  0.0425  0.2261
 1215ERGO    R216631   2.301   3.431   6.324  0.2543 -0.0296  0.1883
 1215ERGO    R316632   2.453   3.413   6.549  0.2355 -0.0151  0.2031
 1215ERGO    R416633   2.176   3.398   6.644  0.2225 -0.0637  0.1731
 1215ERGO    R516634   2.329   3.537   6.713  0.1958 -0.0397  0.1956
 1215ERGO    C116635   2.245   3.363   7.042  0.1863 -0.0700  0.1782
 1215ERGO    C216636   2.224   3.171   7.277  0.2060 -0.1025  0.5621
 1216ERGO   ROH16637   6.337   7.678   6.344  0.0154  0.0302 -0.0080
 1216ERGO    R116638   6.365   7.803   6.596 -0.1194 -0.0484  0.0458
 1216ERGO    R216639   6.173   7.782   6.794 -0.0966 -0.3404  0.0356
 1216ERGO    R316640   6.384   7.696   6.943 -0.0040 -0.1771  0.0016
 1216ERGO    R416641   6.174   7.753   7.139  0.0884 -0.0235  0.0665
 1216ERGO    R516642   6.377   7.832   7.141  0.0834  0.0071 -0.1153
 1216ERGO    C116643   6.372   7.656   7.479  0.2831  0.3142  0.0526
 1216ERGO    C216644   6.517   7.610   7.813 -0.3088  0.1370 -0.0817
 1217ERGO   ROH16645  15.281   3.974   6.424 -0.0773  0.0250 -0.2105
 1217ERGO    R116646  15.385   4.147   6.622 -0.0135 -0.0391 -0.1880
 1217ERGO    R216647  15.412   4.073   6.886  0.0150 -0.1038 -0.2110
 1217ERGO    R316648  15.670   4.149   6.848  0.0236 -0.1417 -0.2325
 1217ERGO    R416649  15.643   4.123   7.139 -0.0387  0.1389 -0.2073
 1217ERGO    R516650  15.716   4.297   7.030 -0.0154  0.0368 -0.3631
 1217ERGO    C116651  16.020   4.224   7.250 -0.0619  0.2446 -0.2255
 1217ERGO    C216652  16.379   4.291   7.158  0.0880  0.1534  0.2185
 1218ERGO   ROH16653  16.222  13.124   6.230 -0.0032 -0.1825 -0.0154
 1218ERGO    R116654  16.340  12.960   6.428  0.1298  0.0496  0.1044
 1218ERGO    R216655  16.415  13.057   6.676 -0.1180  0.2600  0.1107
 1218ERGO    R316656  16.258  12.855   6.767  0.0999  0.0726  0.1053
 1218ERGO    R416657  16.466  12.886   6.972  0.0385  0.3425  0.1319
 1218ERGO    R516658  16.412  12.702   6.868  0.2707  0.2598  0.1387
 1218ERGO    C116659  16.348  12.596   7.229  0.3342  0.2145  0.1392
 1218ERGO    C216660  16.469  12.475   7.550 -0.0398  0.1187 -0.2304
 1219ERGO   ROH16661  18.416   5.678   9.836 -0.1623 -0.1761 -0.1729
 1219ERGO    R116662  18.323   5.687   9.569 -0.2116  0.0373 -0.1510
 1219ERGO    R216663  18.218   5.917   9.456  0.0951  0.2311 -0.0644
 1219ERGO    R316664  18.406   5.870   9.265 -0.0094  0.0057 -0.1143
 1219ERGO    R416665  18.176   5.975   9.117  0.0093  0.0762 -0.0806
 1219ERGO    R516666  18.282   5.789   9.077 -0.1308 -0.0124 -0.0234
 1219ERGO    C116667  18.328   5.965   8.742 -0.1388 -0.2256 -0.1368
 1219ERGO    C216668  18.353   6.058   8.322 -0.0779 -0.2420  0.0610
 1220ERGO   ROH16669  13.831  11.881   9.939  0.1329  0.0563  0.0820
 1220ERGO    R116670  13.725  11.837   9.680  0.1035 -0.0793  0.1165
 1220ERGO    R216671  13.759  12.018   9.473 -0.0934 -0.0931  0.0753
 1220ERGO    R316672  13.859  11.802   9.343  0.0484 -0.0380  0.0890
 1220ERGO    R416673  13.871  12.017   9.146 -0.0229 -0.0169  0.0982
 1220ERGO    R516674  13.777  11.823   9.120  0.0821 -0.0690  0.0704
 1220ERGO    C116675  14.029  11.813   8.834  0.1513  0.0792  0.1244
 1220ERGO    C216676  14.331  11.796   8.509  0.4650 -0.0795 -0.0309
 1221ERGO   ROH16677   9.006   9.353  10.053  0.1480 -0.3579 -0.0599
 1221ERGO    R116678   8.866   9.400   9.812  0.1264 -0.2908 -0.0340
 1221ERGO    R216679   8.969   9.555   9.608 -0.0187  0.0129  0.1211
 1221ERGO    R316680   8.920   9.334   9.458  0.2452  0.0931 -0.0933
 1221ERGO    R416681   8.946   9.550   9.263 -0.3468  0.3965  0.1308
 1221ERGO    R516682   8.779   9.411   9.281 -0.0808  0.0590  0.1380
 1221ERGO    C116683   8.886   9.340   8.922 -0.2901  0.6951 -0.0648
 1221ERGO    C216684   8.910   9.281   8.584 -0.0996  0.0150  0.0643
 1222ERGO   ROH16685   2.701   0.139   9.437 -0.1003 -0.0488  0.0762
 1222ERGO    R116686   2.728   0.231   9.171  0.0065  0.0523  0.1208
 1222ERGO    R216687   2.973   0.284   9.056  0.0692 -0.1357  0.1608
 1222ERGO    R316688   2.885   0.113   8.865 -0.0920  0.0403  0.0748
 1222ERGO    R416689   3.096   0.269   8.733  0.2248 -0.2506  0.2248
 1222ERGO    R516690   2.892   0.241   8.662  0.2164  0.0790  0.1056
 1222ERGO    C116691   3.085   0.098   8.366  0.1640 -0.1522  0.1813
 1222ERGO    C216692   3.066   0.128   8.034 -0.1304  0.3970 -0.2534
 1223ERGO   ROH16693   6.653   9.897   6.563  0.1142 -0.1194  0.1006
 1223ERGO    R116694   6.634   9.886   6.846  0.1043  0.0505  0.1062
 1223ERGO    R216695   6.656  10.111   7.006 -0.0329  0.1617 -0.0404
 1223ERGO    R316696   6.416  10.026   7.101  0.0104  0.0892  0.0087
 1223ERGO    R416697   6.541  10.162   7.327 -0.0116  0.2156 -0.0400
 1223ERGO    R516698   6.461   9.960   7.326  0.0697  0.1745  0.0280
 1223ERGO    C116699   6.249  10.111   7.605  0.0414  0.1788  0.0063
 1223ERGO    C216700   6.204  10.148   7.954  0.0933 -0.1584  0.0423
 1224ERGO   ROH16701  10.095   0.269   6.050  0.0855  0.1932  0.0664
 1224ERGO    R116702   9.990   0.145   6.281 -0.0410  0.0623 -0.0600
 1224ERGO    R216703  10.149   0.066   6.493 -0.1669  0.0134  0.0126
 1224ERGO    R316704   9.976   0.218   6.638 -0.3078 -0.1004 -0.0331
 1224ERGO    R416705  10.132   0.072   6.838 -0.0974  0.1671  0.0141
 1224ERGO    R516706   9.915   0.079   6.823 -0.1154 -0.0805  0.0518
 1224ERGO    C116707   9.961   0.219   7.175 -0.1893  0.1499 -0.0277
 1224ERGO    C216708   9.808   0.268   7.387  0.2609 -0.2050  0.0740
 1225ERGO   ROH16709   5.618  18.101   9.627 -0.0874  0.0443 -0.0762
 1225ERGO    R116710   5.647  18.048   9.350 -0.1226  0.0647 -0.0844
 1225ERGO    R216711   5.541  18.212   9.155  0.0257  0.1921 -0.0632
 1225ERGO    R316712   5.797  18.214   9.064  0.0337 -0.0141 -0.0489
 1225ERGO    R416713   5.632  18.224   8.822  0.0615 -0.3138 -0.0793
 1225ERGO    R516714   5.790  18.081   8.865  0.0146 -0.2996  0.1391
 1225ERGO    C116715   5.925  18.234   8.542  0.0898 -0.8019 -0.0753
 1225ERGO    C216716   5.996  18.261   8.181 -0.0977 -0.0216 -0.0221
 1226ERGO   ROH16717   5.502   8.606   6.401  0.1057  0.0539  0.0208
 1226ERGO    R116718   5.374   8.538   6.645  0.1127 -0.0017  0.0088
 1226ERGO    R216719   5.429   8.305   6.781  0.1052 -0.0406 -0.0547
 1226ERGO    R316720   5.476   8.475   6.988  0.1245 -0.0968 -0.0121
 1226ERGO    R416721   5.353   8.239   7.112  0.0380 -0.0848 -0.0783
 1226ERGO    R516722   5.287   8.446   7.133  0.0954 -0.0705 -0.0454
 1226ERGO    C116723   5.354   8.360   7.499  0.0170 -0.1632 -0.0520
 1226ERGO    C216724   5.379   8.037   7.727 -0.1649 -0.0669  0.1076
 1227ERGO   ROH16725  17.342  12.928   9.695 -0.1130  0.0668 -0.0470
 1227ERGO    R116726  17.226  12.860   9.446 -0.0960  0.1721 -0.0834
 1227ERGO    R216727  17.232  13.029   9.227  0.2073  0.1297 -0.1063
 1227ERGO    R316728  17.341  12.813   9.104 -0.0129 -0.0294 -0.0307
 1227ERGO    R416729  17.240  12.981   8.885  0.4560  0.1818 -0.1097
 1227ERGO    R516730  17.195  12.771   8.919  0.0857  0.2373 -0.1812
 1227ERGO    C116731  17.348  12.751   8.570  0.3941  0.0628 -0.0407
 1227ERGO    C216732  17.339  12.773   8.204 -0.1765  0.1580  0.3619
 1228ERGO   ROH16733  13.662  18.243   9.658  0.1398  0.0255  0.0752
 1228ERGO    R116734  13.674  18.258   9.375  0.1229 -0.0029  0.0727
 1228ERGO    R216735  13.617  18.043   9.212 -0.0791  0.0324  0.0923
 1228ERGO    R316736  13.441  18.216   9.099  0.0552  0.1763  0.1007
 1228ERGO    R416737  13.550  18.063   8.873 -0.1065  0.0586  0.0995
 1228ERGO    R516738  13.544  18.280   8.893  0.0848  0.0669  0.0805
 1228ERGO    C116739  13.345  18.238   8.570  0.0036  0.2089  0.1117
 1228ERGO    C216740  13.478  18.288   8.213 -0.3719  0.1737 -0.4775
 1229ERGO   ROH16741   3.521   3.800   9.465  0.2634  0.2602 -0.0496
 1229ERGO    R116742   3.711   3.736   9.265  0.1853 -0.2009  0.0110
 1229ERGO    R216743   3.708   3.496   9.128 -0.5169 -0.1143 -0.1782
 1229ERGO    R316744   3.705   3.658   8.910  0.1177  0.0932 -0.0532
 1229ERGO    R416745   3.743   3.389   8.801 -0.4637  0.0838 -0.2376
 1229ERGO    R516746   3.867   3.563   8.762  0.0279 -0.1939  0.0344
 1229ERGO    C116747   3.760   3.479   8.406  0.1631  0.3939 -0.1548
 1229ERGO    C216748   3.750   3.361   8.086 -0.3177 -0.0650 -0.2693
 1230ERGO   ROH16749   8.571   2.734   9.779 -0.1054 -0.1234  0.0445
 1230ERGO    R116750   8.741   2.788   9.559  0.0018 -0.1604  0.1188
 1230ERGO    R216751   8.806   2.597   9.370 -0.0877 -0.1297  0.0629
 1230ERGO    R316752   8.714   2.784   9.196  0.1096  0.0124  0.1061
 1230ERGO    R416753   8.823   2.572   9.026 -0.4391 -0.2549  0.0496
 1230ERGO    R516754   8.874   2.784   9.018 -0.0373 -0.3402 -0.0403
 1230ERGO    C116755   8.746   2.734   8.662 -0.4584 -0.1945  0.0825
 1230ERGO    C216756   8.739   2.791   8.338  0.2316  0.0554  0.0585
 1231ERGO   ROH16757  11.339  13.632  10.081 -0.0557  0.0083 -0.0221
 1231ERGO    R116758  11.390  13.727   9.820 -0.1571  0.0418 -0.0301
 1231ERGO    R216759  11.576  13.609   9.653 -0.0083  0.2439 -0.0088
 1231ERGO    R316760  11.366  13.595   9.481  0.0138 -0.0259 -0.0176
 1231ERGO    R416761  11.603  13.588   9.309  0.0391  0.3505 -0.0120
 1231ERGO    R516762  11.434  13.725   9.292 -0.1632  0.1145  0.0104
 1231ERGO    C116763  11.421  13.562   8.948  0.0876  0.1593 -0.0222
 1231ERGO    C216764  11.435  13.403   8.642 -0.0877 -0.0585 -0.1582
 1232ERGO   ROH16765  14.353  16.655   9.640  0.1027 -0.1101  0.0772
 1232ERGO    R116766  14.442  16.577   9.382  0.0010 -0.0791  0.0318
 1232ERGO    R216767  14.282  16.436   9.206 -0.1013  0.0182  0.0410
 1232ERGO    R316768  14.341  16.641   9.038 -0.0784  0.0399  0.0769
 1232ERGO    R416769  14.321  16.406   8.864  0.1032  0.0349  0.0624
 1232ERGO    R516770  14.489  16.545   8.876  0.0473  0.0937  0.1591
 1232ERGO    C116771  14.399  16.582   8.507  0.2438  0.0652  0.1086
 1232ERGO    C216772  14.306  16.587   8.175  0.0974 -0.0785  0.2751
 1233ERGO   ROH16773  17.048   3.887   9.715  0.0271  0.3630 -0.0910
 1233ERGO    R116774  16.954   3.972   9.462 -0.1553  0.0626 -0.1284
 1233ERGO    R216775  17.125   4.040   9.255 -0.3011  0.1556 -0.2110
 1233ERGO    R316776  16.979   3.856   9.118 -0.0857 -0.1381 -0.0595
 1233ERGO    R416777  17.139   3.993   8.913 -0.3831  0.0384 -0.1994
 1233ERGO    R516778  16.923   3.966   8.913 -0.3565 -0.3023 -0.0848
 1233ERGO    C116779  17.011   3.792   8.585 -0.2284 -0.3055 -0.0505
 1233ERGO    C216780  17.051   3.785   8.296  0.1347  0.1789  0.0897
 1234ERGO   ROH16781  17.960  11.105   6.410  0.0039 -0.1419 -0.1617
 1234ERGO    R116782  18.136  10.983   6.596  0.0562 -0.1329 -0.2043
 1234ERGO    R216783  18.379  11.094   6.666  0.0013 -0.0406 -0.1472
 1234ERGO    R316784  18.281  11.069   6.918 -0.0016 -0.1925 -0.1629
 1234ERGO    R416785  18.573  11.075   6.951 -0.0071 -0.2179 -0.1526
 1234ERGO    R516786  18.437  10.922   7.027 -0.0088 -0.2606 -0.2476
 1234ERGO    C116787  18.594  11.040   7.354 -0.0145 -0.4639 -0.1704
 1234ERGO    C216788  18.921  11.092   7.601  0.2815  0.1432  0.2471
 1235ERGO   ROH16789   3.653   8.528  10.086 -0.2493  0.1400 -0.0238
 1235ERGO    R116790   3.843   8.513   9.876 -0.1854  0.0273  0.0413
 1235ERGO    R216791   3.869   8.291   9.714 -0.3152  0.0418  0.0036
 1235ERGO    R316792   3.834   8.473   9.515 -0.0893  0.1153  0.0280
 1235ERGO    R416793   3.952   8.239   9.382 -0.0708  0.1066  0.0521
 1235ERGO    R516794   4.025   8.444   9.374  0.0150  0.0840  0.1707
 1235ERGO    C116795   3.967   8.380   9.002  0.2836  0.2134  0.1031
 1235ERGO    C216796   3.960   8.228   8.694  0.1130 -0.1928 -0.0038
 1236ERGO   ROH16797  12.691   2.481   6.146  0.0197 -0.1389 -0.0096
 1236ERGO    R116798  12.493   2.450   6.346 -0.0424 -0.0839 -0.0602
 1236ERGO    R216799  12.554   2.437   6.614 -0.0985 -0.2690 -0.0466
 1236ERGO    R316800  12.374   2.641   6.633  0.0632 -0.1308  0.0118
 1236ERGO    R416801  12.409   2.546   6.909 -0.1797 -0.3657 -0.0512
 1236ERGO    R516802  12.220   2.568   6.801 -0.0947 -0.1224 -0.1366
 1236ERGO    C116803  12.156   2.801   7.097 -0.0751 -0.2921  0.0011
 1236ERGO    C216804  12.080   2.833   7.393 -0.4812 -0.0577  0.0516
 1237ERGO   ROH16805   7.712  18.051   6.004 -0.0421  0.0568  0.0275
 1237ERGO    R116806   7.614  18.092   6.266  0.0045  0.0855  0.0414
 1237ERGO    R216807   7.534  17.885   6.430 -0.1099  0.1116  0.0262
 1237ERGO    R316808   7.712  17.995   6.603 -0.0243 -0.0156  0.0193
 1237ERGO    R416809   7.533  17.835   6.772 -0.2297  0.2481  0.0461
 1237ERGO    R516810   7.581  18.046   6.798 -0.0047  0.2033 -0.0264
 1237ERGO    C116811   7.699  17.909   7.134 -0.2192  0.2082  0.0512
 1237ERGO    C216812   7.869  17.815   7.511 -0.0070 -0.1833 -0.2002
 1238ERGO   ROH16813  11.037   5.167  10.070 -0.1473  0.1504  0.0134
 1238ERGO    R116814  11.007   5.031   9.824 -0.0953  0.0600  0.0558
 1238ERGO    R216815  10.827   5.112   9.630 -0.0802 -0.0303  0.0003
 1238ERGO    R316816  11.047   5.112   9.471 -0.0566 -0.0564  0.0338
 1238ERGO    R416817  10.821   5.098   9.285 -0.0279  0.0075 -0.0017
 1238ERGO    R516818  10.991   4.963   9.292 -0.0569 -0.0253  0.0097
 1238ERGO    C116819  11.024   5.091   8.934  0.0246  0.0048  0.0287
 1238ERGO    C216820  11.135   5.044   8.610 -0.2243 -0.0736 -0.0497
 1239ERGO   ROH16821  12.162  12.842   6.161  0.2078  0.0711 -0.0311
 1239ERGO    R116822  12.319  12.738   6.373  0.1182 -0.0389 -0.0170
 1239ERGO    R216823  12.414  12.897   6.579  0.2791 -0.0879 -0.0512
 1239ERGO    R316824  12.290  12.712   6.734  0.1058  0.0605 -0.0106
 1239ERGO    R416825  12.473  12.850   6.916  0.0840  0.0665  0.0061
 1239ERGO    R516826  12.460  12.635   6.884 -0.0086  0.0548  0.1184
 1239ERGO    C116827  12.391  12.649   7.258 -0.1922  0.2956  0.0776
 1239ERGO    C216828  12.442  12.581   7.620  0.2206  0.3802 -0.2411
 1240ERGO   ROH16829  13.738  16.132   6.153  0.1168  0.2890 -0.0700
 1240ERGO    R116830  13.737  16.307   6.376 -0.1441  0.2705 -0.0550
 1240ERGO    R216831  13.514  16.342   6.536 -0.1367 -0.2436  0.0792
 1240ERGO    R316832  13.688  16.277   6.735  0.1334  0.1242 -0.0253
 1240ERGO    R416833  13.491  16.455   6.862 -0.2448 -0.3578  0.1124
 1240ERGO    R516834  13.708  16.479   6.863 -0.2832  0.1624  0.0004
 1240ERGO    C116835  13.640  16.461   7.238 -0.0542 -0.0791  0.0336
 1240ERGO    C216836  13.358  16.464   7.526 -0.1212  0.2411  0.1215
 1241ERGO   ROH16837   9.546  12.504   6.555 -0.2330  0.2039 -0.0086
 1241ERGO    R116838   9.721  12.505   6.777 -0.0715  0.1817 -0.1341
 1241ERGO    R216839   9.856  12.731   6.860 -0.2965  0.2659  0.0099
 1241ERGO    R316840   9.740  12.673   7.099 -0.0552 -0.1400  0.0383
 1241ERGO    R416841  10.009  12.766   7.168 -0.1585  0.2570 -0.0573
 1241ERGO    R516842   9.917  12.579   7.230  0.1931  0.0396 -0.1560
 1241ERGO    C116843   9.990  12.732   7.571  0.1484 -0.1293 -0.0698
 1241ERGO    C216844  10.089  12.860   7.862 -0.0617 -0.1505 -0.0002
 1242ERGO   ROH16845  11.002   1.950   9.801 -0.0072 -0.2093 -0.1238
 1242ERGO    R116846  11.112   1.882   9.550  0.0024 -0.2868 -0.0982
 1242ERGO    R216847  11.010   1.678   9.393 -0.2389 -0.0801 -0.2129
 1242ERGO    R316848  10.997   1.873   9.204  0.1398  0.0097 -0.1554
 1242ERGO    R416849  11.016   1.624   9.052 -0.4459 -0.0086 -0.2295
 1242ERGO    R516850  11.144   1.798   9.031 -0.0598 -0.2739 -0.2127
 1242ERGO    C116851  11.007   1.775   8.676 -0.2110  0.1172 -0.1851
 1242ERGO    C216852  10.911   1.657   8.426  0.1690  0.0847 -0.3434
 1243ERGO   ROH16853   1.991   8.902   6.299 -0.1707  0.2290  0.1357
 1243ERGO    R116854   1.886   8.926   6.561  0.0235  0.1166  0.2240
 1243ERGO    R216855   1.637   8.831   6.630  0.0031  0.2605  0.3143
 1243ERGO    R316856   1.775   8.700   6.824  0.0250  0.0085  0.1361
 1243ERGO    R416857   1.497   8.700   6.918  0.0621  0.1503  0.2951
 1243ERGO    R516858   1.671   8.770   7.029  0.1887 -0.0593  0.2527
 1243ERGO    C116859   1.546   8.500   7.267  0.1170 -0.1504  0.1166
 1243ERGO    C216860   1.346   8.522   7.607  0.0742  0.1951  0.3400
 1244ERGO   ROH16861   1.897   4.653   9.662  0.0291  0.0783 -0.2098
 1244ERGO    R116862   2.055   4.756   9.451  0.0142 -0.1287 -0.3245
 1244ERGO    R216863   2.108   4.613   9.220 -0.3110 -0.2131 -0.3482
 1244ERGO    R316864   2.008   4.835   9.099 -0.1268 -0.1017 -0.3007
 1244ERGO    R416865   2.116   4.672   8.880 -0.4137 -0.2303 -0.3545
 1244ERGO    R516866   2.164   4.881   8.922 -0.1598 -0.2780 -0.3793
 1244ERGO    C116867   2.028   4.915   8.567 -0.3007 -0.1356 -0.3137
 1244ERGO    C216868   2.003   4.877   8.217 -0.2109 -0.0852 -0.2838
 1245ERGO   ROH16869  15.423  12.276   6.188  0.1776 -0.2888 -0.1415
 1245ERGO    R116870  15.477  12.202   6.456  0.0890 -0.1692 -0.0908
 1245ERGO    R216871  15.472  12.383   6.664  0.0278 -0.0772 -0.1786
 1245ERGO    R316872  15.297  12.204   6.773 -0.0107 -0.0218 -0.1458
 1245ERGO    R416873  15.425  12.333   7.003  0.0842 -0.0569 -0.1670
 1245ERGO    R516874  15.412  12.119   6.965  0.0063 -0.0584 -0.1667
 1245ERGO    C116875  15.234  12.137   7.302  0.0807  0.0070 -0.1295
 1245ERGO    C216876  15.101  12.055   7.604  0.0626  0.1457 -0.1207
 1246ERGO   ROH16877   0.019   2.757   9.550 -0.1443  0.0825 -0.0260
 1246ERGO    R116878   0.039   2.836   9.279 -0.0955  0.0684 -0.0273
 1246ERGO    R216879   0.268   2.797   9.129 -0.0717  0.0459  0.0093
 1246ERGO    R316880   0.097   2.672   8.959 -0.0543  0.0480 -0.0086
 1246ERGO    R416881   0.287   2.811   8.784 -0.0401  0.0453  0.0114
 1246ERGO    R516882   0.070   2.826   8.778 -0.0366  0.0458 -0.0104
 1246ERGO    C116883   0.138   2.701   8.424 -0.0054  0.0470 -0.0040
 1246ERGO    C216884   0.171   2.781   8.060 -0.4833 -0.0303  0.4046
 1247ERGO   ROH16885   4.274  17.690   6.074  0.0808 -0.0654 -0.1077
 1247ERGO    R116886   4.360  17.589   6.325 -0.0104  0.0863 -0.0149
 1247ERGO    R216887   4.205  17.608   6.553 -0.2329 -0.0597 -0.1535
 1247ERGO    R316888   4.244  17.339   6.563  0.0913 -0.0146 -0.0684
 1247ERGO    R416889   4.108  17.405   6.815 -0.2068 -0.1168 -0.1880
 1247ERGO    R516890   4.296  17.295   6.793 -0.0451  0.1043 -0.0096
 1247ERGO    C116891   4.088  17.034   6.977  0.1128 -0.1080 -0.1283
 1247ERGO    C216892   3.834  16.929   7.180 -0.2048 -0.1443 -0.0639
 1248ERGO   ROH16893  18.307   0.366   9.179  0.2568 -0.1278 -0.1824
 1248ERGO    R116894  18.291   0.245   8.924 -0.0107 -0.0150 -0.2232
 1248ERGO    R216895  18.108   0.325   8.733  0.0228  0.3168 -0.1314
 1248ERGO    R316896  18.329   0.351   8.578  0.0105  0.0615 -0.1955
 1248ERGO    R416897  18.109   0.323   8.387 -0.0727  0.3640 -0.1320
 1248ERGO    R516898  18.291   0.204   8.394 -0.2222  0.1381 -0.2051
 1248ERGO    C116899  18.319   0.346   8.041 -0.1398  0.1519 -0.1924
 1248ERGO    C216900  18.399   0.331   7.725  0.2225  0.0970 -0.2565
 1249ERGO   ROH16901  17.461  18.368   5.891 -0.2140 -0.1148 -0.0023
 1249ERGO    R116902  17.463  18.285   6.161  0.2909 -0.1039  0.0033
 1249ERGO    R216903  17.279  18.107   6.264  0.1689  0.2848  0.4610
 1249ERGO    R316904  17.501  17.970   6.341  0.0956 -0.1801 -0.0787
 1249ERGO    R416905  17.286  17.869   6.515  0.2958  0.5101  0.6777
 1249ERGO    R516906  17.478  17.951   6.579  0.7303  0.1260  0.0400
 1249ERGO    C116907  17.499  17.602   6.733  0.3009  0.2048  0.2972
 1249ERGO    C216908  17.422  17.460   7.029 -0.0131  0.0413  0.1423
 1250ERGO   ROH16909   1.429  16.994   9.372  0.2157 -0.2183  0.1790
 1250ERGO    R116910   1.498  17.048   9.103  0.2592 -0.2760  0.1787
 1250ERGO    R216911   1.519  16.850   8.912 -0.1376 -0.2741  0.1273
 1250ERGO    R316912   1.342  17.006   8.777  0.1100  0.0817  0.1983
 1250ERGO    R416913   1.515  16.893   8.569 -0.2055 -0.2937  0.1251
 1250ERGO    R516914   1.471  17.104   8.601  0.2365 -0.1920  0.1318
 1250ERGO    C116915   1.346  17.064   8.243 -0.0126  0.0287  0.1903
 1250ERGO    C216916   1.147  17.081   7.929 -0.0218 -0.3244  0.1578
 1251ERGO   ROH16917   4.157  15.282   9.926  0.0867  0.0819  0.1458
 1251ERGO    R116918   4.058  15.218   9.668  0.0433 -0.0323  0.1903
 1251ERGO    R216919   4.007  15.411   9.477 -0.0113 -0.1176  0.1243
 1251ERGO    R316920   4.173  15.258   9.325 -0.0288 -0.1621  0.1491
 1251ERGO    R416921   4.072  15.462   9.141  0.2348  0.0249  0.1906
 1251ERGO    R516922   4.065  15.246   9.112  0.0897  0.0379  0.0708
 1251ERGO    C116923   4.265  15.348   8.803  0.3617  0.0661  0.2525
 1251ERGO    C216924   4.252  15.451   8.491 -0.1576 -0.1939 -0.1104
 1252ERGO   ROH16925   4.724  16.952   9.526 -0.2136 -0.2868 -0.1471
 1252ERGO    R116926   4.619  16.977   9.265 -0.1158 -0.1978 -0.1781
 1252ERGO    R216927   4.628  17.215   9.123 -0.1258 -0.1298 -0.0677
 1252ERGO    R316928   4.750  17.061   8.935 -0.0057 -0.0117 -0.0879
 1252ERGO    R416929   4.643  17.290   8.786 -0.1940 -0.0866 -0.0616
 1252ERGO    R516930   4.609  17.079   8.743 -0.0237 -0.1088 -0.0819
 1252ERGO    C116931   4.767  17.189   8.414 -0.1210  0.0493 -0.0771
 1252ERGO    C216932   4.914  17.205   8.076 -0.0129 -0.2636  0.0699
 1253ERGO   ROH16933  13.113   9.756  10.133 -0.1169 -0.1532  0.0359
 1253ERGO    R116934  13.002   9.761   9.873 -0.0721  0.1197  0.0196
 1253ERGO    R216935  13.053   9.965   9.693  0.3810  0.0474  0.0602
 1253ERGO    R316936  13.128   9.759   9.531 -0.0220 -0.0900  0.0371
 1253ERGO    R416937  13.009   9.956   9.350  0.1961  0.0957  0.0814
 1253ERGO    R516938  12.954   9.746   9.367 -0.1318  0.1751  0.1225
 1253ERGO    C116939  13.053   9.758   8.999 -0.2897 -0.0053  0.0721
 1253ERGO    C216940  13.071   9.570   8.642  0.0394 -0.0573 -0.1091
 1254ERGO   ROH16941   1.223   3.159   6.552 -0.0570  0.0754  0.0248
 1254ERGO    R116942   1.307   3.055   6.801 -0.0324 -0.0280 -0.0258
 1254ERGO    R216943   1.342   3.214   7.025  0.1287 -0.0972  0.0003
 1254ERGO    R316944   1.172   3.035   7.139  0.0665 -0.0292  0.0142
 1254ERGO    R416945   1.303   3.169   7.365  0.2807 -0.2112  0.0033
 1254ERGO    R516946   1.291   2.954   7.330  0.1151 -0.1907 -0.0826
 1254ERGO    C116947   1.120   2.974   7.670  0.3109 -0.2137  0.0181
 1254ERGO    C216948   1.065   3.024   8.012 -0.0740 -0.0667 -0.0444
 1255ERGO   ROH16949   8.298  16.610   6.371  0.2391 -0.3172  0.0830
 1255ERGO    R116950   8.333  16.575   6.650  0.2827 -0.0451  0.1138
 1255ERGO    R216951   8.370  16.786   6.823 -0.1538  0.1610 -0.0388
 1255ERGO    R316952   8.159  16.675   6.953  0.0476 -0.1659  0.0228
 1255ERGO    R416953   8.278  16.858   7.149 -0.1813  0.0452 -0.0192
 1255ERGO    R516954   8.236  16.646   7.178  0.1573 -0.0297  0.0076
 1255ERGO    C116955   8.027  16.796   7.460 -0.0080 -0.3292  0.0499
 1255ERGO    C216956   8.000  17.097   7.694  0.0625  0.1940  0.0540
 1256ERGO   ROH16957  17.860  11.264   9.974 -0.1700 -0.1079  0.1636
 1256ERGO    R116958  17.707  11.273   9.735 -0.0378 -0.1194  0.0782
 1256ERGO    R216959  17.746  11.465   9.540 -0.0029 -0.0652  0.1441
 1256ERGO    R316960  17.773  11.249   9.378  0.1737 -0.0184  0.1069
 1256ERGO    R416961  17.742  11.475   9.195 -0.2789 -0.0269  0.1460
 1256ERGO    R516962  17.624  11.292   9.196 -0.0324 -0.1983  0.2218
 1256ERGO    C116963  17.764  11.278   8.842 -0.2736  0.0392  0.1121
 1256ERGO    C216964  17.711  11.200   8.445  0.4457 -0.5149  0.0075
 1257ERGO   ROH16965   9.455  13.605   9.986  0.1140 -0.0221  0.2102
 1257ERGO    R116966   9.495  13.721   9.731  0.0561  0.0072  0.2149
 1257ERGO    R216967   9.665  13.612   9.543  0.0045  0.0231  0.1609
 1257ERGO    R316968   9.445  13.620   9.384 -0.0335  0.0525  0.2140
 1257ERGO    R416969   9.668  13.573   9.199 -0.1030 -0.1550  0.1785
 1257ERGO    R516970   9.518  13.732   9.186 -0.0275 -0.0854  0.1364
 1257ERGO    C116971   9.462  13.558   8.851 -0.2013 -0.2309  0.2385
 1257ERGO    C216972   9.502  13.391   8.537  0.0199 -0.6245 -0.1210
 1258ERGO   ROH16973   1.662  17.819   9.182 -0.2088  0.1229 -0.0504
 1258ERGO    R116974   1.624  17.823   8.902 -0.0644  0.0791 -0.0714
 1258ERGO    R216975   1.753  18.004   8.737  0.0543  0.0243 -0.0385
 1258ERGO    R316976   1.832  17.779   8.607  0.0787 -0.0140  0.0415
 1258ERGO    R416977   1.742  17.960   8.395 -0.1648 -0.1828 -0.0073
 1258ERGO    R516978   1.674  17.756   8.428 -0.0376 -0.2012  0.1635
 1258ERGO    C116979   1.809  17.724   8.072 -0.2694 -0.3396  0.0861
 1258ERGO    C216980   1.708  17.811   7.783 -0.2519 -0.2070 -0.0122
 1259ERGO   ROH16981   2.367   6.482   6.522 -0.0131  0.0304 -0.0502
 1259ERGO    R116982   2.327   6.399   6.790  0.1022 -0.0793 -0.0660
 1259ERGO    R216983   2.514   6.444   6.989  0.1795 -0.1407 -0.1208
 1259ERGO    R316984   2.303   6.559   7.116  0.2189 -0.2090  0.0070
 1259ERGO    R416985   2.515   6.549   7.318  0.3065 -0.2376 -0.0901
 1259ERGO    R516986   2.312   6.471   7.338  0.3283 -0.2719 -0.0235
 1259ERGO    C116987   2.317   6.717   7.629  0.4174 -0.3581  0.0478
 1259ERGO    C216988   2.431   7.006   7.784 -0.0950 -0.0805 -0.0351
 1260ERGO   ROH16989   8.103   0.237  10.096  0.2242 -0.0534 -0.1110
 1260ERGO    R116990   8.074   0.115   9.842  0.2869 -0.1063 -0.0930
 1260ERGO    R216991   7.896   0.208   9.651  0.0815 -0.3541 -0.0270
 1260ERGO    R316992   8.118   0.214   9.495  0.0140 -0.0607 -0.1173
 1260ERGO    R416993   7.898   0.171   9.308 -0.0031 -0.4703 -0.0156
 1260ERGO    R516994   8.078   0.050   9.326  0.1988 -0.1875 -0.0433
 1260ERGO    C116995   8.107   0.156   8.961 -0.1156 -0.2626 -0.0938
 1260ERGO    C216996   8.157   0.169   8.521 -0.1447  0.0385  0.1440
 1261ERGO   ROH16997   0.370  18.198   9.343  0.0085 -0.0361  0.0280
 1261ERGO    R116998   0.428  18.158   9.068  0.1300  0.1694  0.0203
 1261ERGO    R216999   0.307  17.959   8.919  0.4972  0.0088 -0.0828
 1261ERGO    R317000   0.242  18.167   8.755  0.1639 -0.0314 -0.0051
 1261ERGO    R417001   0.319  17.950   8.573  0.2966  0.1003 -0.0926
 1261ERGO    R517002   0.400  18.153   8.576  0.0676  0.1875 -0.1042
 1261ERGO    C117003   0.265  18.139   8.219 -0.1331  0.1162 -0.0255
 1261ERGO    C217004   0.385  18.195   7.926 -0.1066  0.0377  0.3845
 1262ERGO   ROH17005  10.468   6.728   6.660  0.0346  0.1493 -0.0956
 1262ERGO    R117006  10.458   6.776   6.938  0.2750  0.0885 -0.0736
 1262ERGO    R217007  10.655   6.919   7.072  0.2178  0.3694 -0.2725
 1262ERGO    R317008  10.443   7.068   7.155  0.0758  0.0365 -0.0164
 1262ERGO    R417009  10.666   7.152   7.327  0.1666  0.4073 -0.3061
 1262ERGO    R517010  10.470   7.082   7.393  0.3572  0.0945 -0.0499
 1262ERGO    C117011  10.474   7.427   7.554  0.0034  0.1168 -0.0852
 1262ERGO    C217012  10.318   7.705   7.530  0.3262 -0.2936 -0.0711
 1263ERGO   ROH17013   2.060  18.389   5.866  0.1762 -0.1720  0.0435
 1263ERGO    R117014   1.930  18.432   6.114  0.2099 -0.1110  0.0504
 1263ERGO    R217015   1.707  18.287   6.193  0.1437 -0.0008  0.0582
 1263ERGO    R317016   1.859  18.237   6.413  0.1266 -0.0798  0.0529
 1263ERGO    R417017   1.586  18.175   6.496  0.0660  0.2132  0.1080
 1263ERGO    R517018   1.725  18.310   6.596  0.2155  0.1139  0.0480
 1263ERGO    C117019   1.658  18.063   6.880  0.0047  0.2639  0.1319
 1263ERGO    C217020   1.563  17.886   7.140 -0.3551 -0.0581  0.1320
 1264ERGO   ROH17021  12.736   1.024   6.189  0.1610  0.0468  0.0506
 1264ERGO    R117022  12.736   1.060   6.469 -0.0204  0.0294  0.0550
 1264ERGO    R217023  12.938   1.194   6.602  0.0367 -0.2100  0.2237
 1264ERGO    R317024  12.731   1.341   6.700  0.1240  0.0254  0.0628
 1264ERGO    R417025  12.959   1.409   6.872  0.0899 -0.1578  0.1775
 1264ERGO    R517026  12.764   1.338   6.937 -0.0209  0.0563  0.0818
 1264ERGO    C117027  12.777   1.672   7.121  0.2029  0.0936 -0.0005
 1264ERGO    C217028  12.743   1.693   7.386  0.0486 -0.0928 -0.3606
 1265ERGO   ROH17029   5.519   1.822   9.544  0.0505 -0.0365  0.1711
 1265ERGO    R117030   5.692   1.744   9.334  0.0018 -0.1205  0.1612
 1265ERGO    R217031   5.623   1.554   9.147 -0.0838 -0.1205  0.1892
 1265ERGO    R317032   5.687   1.751   8.971 -0.0366 -0.1610  0.1617
 1265ERGO    R417033   5.649   1.512   8.804 -0.1566 -0.1561  0.1881
 1265ERGO    R517034   5.824   1.642   8.807 -0.1074 -0.2254  0.1474
 1265ERGO    C117035   5.724   1.673   8.440 -0.1548 -0.2147  0.1615
 1265ERGO    C217036   5.760   1.491   8.170 -0.1192  0.3588 -0.0741
 1266ERGO   ROH17037   2.662  17.537   6.103 -0.0189  0.1698 -0.0906
 1266ERGO    R117038   2.743  17.540   6.374 -0.0770  0.1284 -0.0726
 1266ERGO    R217039   2.837  17.767   6.498  0.0096  0.0820 -0.0516
 1266ERGO    R317040   2.642  17.710   6.679 -0.0592  0.1789 -0.0951
 1266ERGO    R417041   2.797  17.927   6.802  0.1533 -0.0447  0.0359
 1266ERGO    R517042   2.749  17.734   6.892 -0.0471 -0.0479 -0.0746
 1266ERGO    C117043   2.589  17.966   7.148  0.1724 -0.0276  0.0459
 1266ERGO    C217044   2.461  18.011   7.481  0.0533  0.3117 -0.2616
 1267ERGO   ROH17045   7.850   7.669   6.593  0.0421 -0.1151 -0.2187
 1267ERGO    R117046   8.051   7.828   6.715  0.1970 -0.2345 -0.3105
 1267ERGO    R217047   8.053   7.883   6.985  0.0242  0.2390 -0.3868
 1267ERGO    R317048   8.306   7.783   6.971 -0.1251 -0.2299  0.0163
 1267ERGO    R417049   8.302   7.944   7.217  0.0803  0.7210 -0.5637
 1267ERGO    R517050   8.444   7.961   7.052  0.1438 -0.1237 -0.6310
 1267ERGO    C117051   8.684   7.885   7.339 -0.0274  0.5614 -0.2883
 1267ERGO    C217052   8.893   7.741   7.523  0.0189  0.1420 -0.3633
 1268ERGO   ROH17053   8.883   1.349   9.621  0.2302  0.0307  0.1063
 1268ERGO    R117054   9.055   1.359   9.397  0.1791 -0.1470  0.0565
 1268ERGO    R217055   9.092   1.142   9.228 -0.1135 -0.1839  0.0220
 1268ERGO    R317056   9.021   1.321   9.036  0.0273 -0.0820  0.0654
 1268ERGO    R417057   9.199   1.135   8.899 -0.0198 -0.0972  0.0515
 1268ERGO    R517058   9.218   1.351   8.905  0.0731 -0.1155  0.1372
 1268ERGO    C117059   9.194   1.299   8.528  0.1670  0.0489  0.1094
 1268ERGO    C217060   9.277   1.203   8.290 -0.0715  0.2490  0.0691
 1269ERGO   ROH17061   7.596   1.979   9.868  0.3000 -0.0557 -0.2274
 1269ERGO    R117062   7.530   2.147   9.650 -0.0164 -0.0594 -0.1398
 1269ERGO    R217063   7.708   2.205   9.447 -0.1352  0.3478 -0.1374
 1269ERGO    R317064   7.508   2.114   9.288 -0.0022  0.0762 -0.1536
 1269ERGO    R417065   7.705   2.229   9.103 -0.0891  0.2437 -0.1449
 1269ERGO    R517066   7.492   2.277   9.113 -0.1484  0.0098 -0.2040
 1269ERGO    C117067   7.515   2.157   8.752  0.0627 -0.0719 -0.1645
 1269ERGO    C217068   7.621   2.012   8.450  0.0339  0.2391  0.3116
 1270ERGO   ROH17069  15.433  14.386   6.068  0.0531  0.0675  0.0937
 1270ERGO    R117070  15.373  14.323   6.337 -0.0206  0.1259  0.0915
 1270ERGO    R217071  15.552  14.194   6.503 -0.1469 -0.0374  0.1045
 1270ERGO    R317072  15.508  14.408   6.665  0.0399  0.0084  0.0970
 1270ERGO    R417073  15.555  14.185   6.849 -0.1754 -0.0293  0.1050
 1270ERGO    R517074  15.384  14.319   6.849 -0.0526  0.1281  0.0922
 1270ERGO    C117075  15.516  14.380   7.201 -0.0166  0.0184  0.0982
 1270ERGO    C217076  15.378  14.277   7.466 -0.1755 -0.0885 -0.1247
 1271ERGO   ROH17077   3.518  16.084   7.707  0.1683  0.2876  0.2889
 1271ERGO    R117078   3.688  15.885   7.599  0.0485  0.1751  0.3050
 1271ERGO    R217079   3.875  15.940   7.402 -0.0292  0.0129  0.1856
 1271ERGO    R317080   4.047  15.827   7.579  0.0206  0.0442  0.1579
 1271ERGO    R417081   4.205  15.863   7.335 -0.0726 -0.0822  0.0768
 1271ERGO    R517082   4.179  15.678   7.447 -0.0660 -0.0350  0.1587
 1271ERGO    C117083   4.559  15.711   7.463 -0.0510 -0.1083 -0.0125
 1271ERGO    C217084   4.897  15.691   7.509 -0.0238  0.1429  0.1474
 1272ERGO   ROH17085  13.831   5.436  10.013  0.0664 -0.0212  0.0505
 1272ERGO    R117086  13.775   5.259   9.799  0.0225 -0.0803  0.1103
 1272ERGO    R217087  13.639   5.338   9.572  0.0019 -0.1353  0.1037
 1272ERGO    R317088  13.857   5.238   9.445 -0.0240 -0.1948  0.1058
 1272ERGO    R417089  13.657   5.275   9.233  0.0418  0.0182  0.0769
 1272ERGO    R517090  13.766   5.092   9.278 -0.0691 -0.0653  0.0144
 1272ERGO    C117091  13.873   5.145   8.916  0.0405  0.0517  0.0633
 1272ERGO    C217092  13.798   5.180   8.609 -0.1962  0.1389  0.1120
 1273ERGO   ROH17093   5.127   1.555   9.612 -0.2680 -0.1134 -0.1396
 1273ERGO    R117094   5.045   1.604   9.345 -0.1702  0.0292 -0.1446
 1273ERGO    R217095   5.134   1.821   9.200  0.1565 -0.0796 -0.1154
 1273ERGO    R317096   5.205   1.631   9.019 -0.0932 -0.1681 -0.1238
 1273ERGO    R417097   5.191   1.880   8.864  0.5355 -0.0744 -0.0546
 1273ERGO    R517098   5.088   1.692   8.819  0.1808  0.1449 -0.1957
 1273ERGO    C117099   5.291   1.735   8.499  0.5216 -0.1544 -0.0268
 1273ERGO    C217100   5.253   1.739   8.092 -0.6636 -0.1937  0.1883
 1274ERGO   ROH17101  18.260  17.190   9.663  0.0901  0.0358  0.0309
 1274ERGO    R117102  18.262  17.072   9.405  0.1267 -0.0306  0.0609
 1274ERGO    R217103  18.049  16.926   9.306  0.1131 -0.0010  0.0417
 1274ERGO    R317104  18.067  17.101   9.099  0.2135 -0.0564  0.0035
 1274ERGO    R417105  18.023  16.842   8.972 -0.1289 -0.0299  0.0666
 1274ERGO    R517106  18.184  16.981   8.929  0.0055 -0.2143 -0.0298
 1274ERGO    C117107  18.025  16.957   8.584 -0.1756 -0.0984  0.0450
 1274ERGO    C217108  17.985  16.936   8.222  0.3092 -0.2669  0.1721
 1275ERGO   ROH17109   3.302  16.660   6.266 -0.0534 -0.1528 -0.1309
 1275ERGO    R117110   3.508  16.703   6.454  0.0493 -0.0487 -0.2644
 1275ERGO    R217111   3.537  16.548   6.681  0.0595  0.1881 -0.0977
 1275ERGO    R317112   3.790  16.515   6.586  0.0020 -0.0536 -0.1704
 1275ERGO    R417113   3.823  16.553   6.875  0.1406  0.1800 -0.2167
 1275ERGO    R517114   3.923  16.665   6.717  0.1495 -0.0212 -0.3554
 1275ERGO    C117115   4.227  16.524   6.899  0.1338 -0.0519 -0.3542
 1275ERGO    C217116   4.397  16.340   7.177 -0.0371  0.2380 -0.3229
 1276ERGO   ROH17117  14.183  17.571   9.226 -0.2792  0.1406  0.1781
 1276ERGO    R117118  14.201  17.548   8.945  0.0076  0.1892  0.1881
 1276ERGO    R217119  14.004  17.427   8.792  0.2285  0.0702 -0.0239
 1276ERGO    R317120  14.010  17.663   8.657  0.1997  0.0971  0.0239
 1276ERGO    R417121  13.948  17.462   8.453  0.0000  0.1753  0.0237
 1276ERGO    R517122  14.110  17.609   8.446  0.0316  0.1250 -0.0574
 1276ERGO    C117123  13.921  17.704   8.129 -0.1599  0.2616  0.0963
 1276ERGO    C217124  13.705  17.940   7.884  0.0266 -0.2856  0.1331
 1277ERGO   ROH17125  17.180  13.588   6.138  0.1086  0.1370  0.0856
 1277ERGO    R117126  17.128  13.538   6.411  0.1017  0.1762  0.0913
 1277ERGO    R217127  17.252  13.336   6.551 -0.0528  0.0648  0.0694
 1277ERGO    R317128  17.318  13.538   6.722  0.1446  0.0060  0.0661
 1277ERGO    R417129  17.352  13.291   6.879 -0.1641 -0.0246  0.0917
 1277ERGO    R517130  17.231  13.466   6.934  0.0214  0.1186  0.0557
 1277ERGO    C117131  17.471  13.454   7.230 -0.0438 -0.1318  0.1017
 1277ERGO    C217132  17.502  13.389   7.556  0.0521 -0.3441 -0.1398
 1278ERGO   ROH17133  16.004   9.401   9.811  0.0794  0.0493  0.1011
 1278ERGO    R117134  15.882   9.408   9.555 -0.0157 -0.0878  0.1404
 1278ERGO    R217135  15.945   9.599   9.365 -0.1548 -0.1282  0.0452
 1278ERGO    R317136  15.992   9.382   9.209 -0.1265 -0.1694  0.1123
 1278ERGO    R417137  15.908   9.590   9.021 -0.1883 -0.2574  0.0525
 1278ERGO    R517138  15.822   9.391   9.041 -0.1424 -0.2651  0.1273
 1278ERGO    C117139  15.931   9.380   8.675 -0.1813 -0.3712  0.1198
 1278ERGO    C217140  15.991   9.518   8.406  0.0478 -0.3527 -0.1415
 1279ERGO   ROH17141   2.181   9.514  10.310  0.1210  0.1550 -0.0539
 1279ERGO    R117142   2.068   9.603  10.067  0.2765  0.1596 -0.1263
 1279ERGO    R217143   2.219   9.711   9.862  0.4371 -0.0492 -0.1208
 1279ERGO    R317144   2.098   9.519   9.714  0.3195 -0.0032 -0.0847
 1279ERGO    R417145   2.166   9.729   9.521  0.3042 -0.0072 -0.0979
 1279ERGO    R517146   1.969   9.641   9.553  0.2893  0.0480 -0.0236
 1279ERGO    C117147   2.021   9.559   9.184  0.1163  0.0603 -0.0508
 1279ERGO    C217148   2.041   9.597   8.915 -0.0223 -0.1561  0.0331
 1280ERGO   ROH17149   4.085   9.539  10.126  0.2441 -0.0827 -0.0539
 1280ERGO    R117150   3.960   9.631   9.889  0.0954 -0.0590  0.0331
 1280ERGO    R217151   4.092   9.786   9.702 -0.0231 -0.0400 -0.0311
 1280ERGO    R317152   4.012   9.591   9.531 -0.1291 -0.0203 -0.0056
 1280ERGO    R417153   4.105   9.809   9.358  0.0393 -0.1072 -0.0339
 1280ERGO    R517154   3.911   9.710   9.349 -0.0280  0.0170 -0.0409
 1280ERGO    C117155   4.037   9.639   8.996 -0.0238 -0.1277 -0.0115
 1280ERGO    C217156   3.949   9.571   8.726  0.3817 -0.0322 -0.1812
 1281ERGO   ROH17157  15.711  10.518   9.841 -0.2378 -0.0543  0.0332
 1281ERGO    R117158  15.612  10.500   9.577 -0.1602 -0.1070  0.0070
 1281ERGO    R217159  15.648  10.700   9.390 -0.2173 -0.0857  0.0140
 1281ERGO    R317160  15.753  10.498   9.241 -0.0705 -0.0327  0.0450
 1281ERGO    R417161  15.575  10.642   9.057  0.0580 -0.0172 -0.0603
 1281ERGO    R517162  15.572  10.428   9.101  0.0539 -0.0255 -0.1172
 1281ERGO    C117163  15.632  10.418   8.724  0.3561  0.0723 -0.0745
 1281ERGO    C217164  15.594  10.535   8.522  0.4929 -0.0017 -0.3416
 1282ERGO   ROH17165   0.919  10.302  10.105  0.3309 -0.0446 -0.0488
 1282ERGO    R117166   0.946  10.418   9.848  0.1063  0.0128 -0.0484
 1282ERGO    R217167   1.021  10.272   9.626  0.1578  0.1122 -0.0960
 1282ERGO    R317168   0.792  10.375   9.521  0.0087 -0.1024  0.0111
 1282ERGO    R417169   0.957  10.306   9.288 -0.0004  0.1087 -0.0667
 1282ERGO    R517170   0.866  10.500   9.330 -0.1872  0.0113  0.0048
 1282ERGO    C117171   0.705  10.422   8.993 -0.2324 -0.0948  0.0510
 1282ERGO    C217172   0.846  10.402   8.640  0.4207  0.0797  0.0326
 1283ERGO   ROH17173  10.459   5.794   6.603  0.0001 -0.1067 -0.1357
 1283ERGO    R117174  10.482   5.718   6.874 -0.0504 -0.1522 -0.1433
 1283ERGO    R217175  10.663   5.835   7.047  0.0198 -0.2772 -0.1232
 1283ERGO    R317176  10.441   5.878   7.198  0.0384 -0.1619 -0.1287
 1283ERGO    R417177  10.665   5.892   7.388  0.0475 -0.0281 -0.1630
 1283ERGO    R517178  10.488   5.765   7.405  0.0513 -0.0091 -0.0517
 1283ERGO    C117179  10.458   5.965   7.729  0.0813  0.2253 -0.1913
 1283ERGO    C217180  10.455   6.162   8.050 -0.0931 -0.0269  0.3865
 1284ERGO   ROH17181   3.684  18.411   5.828  0.0135 -0.3168  0.0276
 1284ERGO    R117182   3.757  18.485   6.091 -0.1082 -0.1660  0.0209
 1284ERGO    R217183   3.848  18.738   6.156 -0.1067 -0.1394 -0.0884
 1284ERGO    R317184   3.647  18.728   6.338 -0.1988  0.0011 -0.1802
 1284ERGO    R417185   3.811  18.956   6.421  0.0218 -0.2073 -0.0137
 1284ERGO    R517186   3.751  18.787   6.545 -0.2176 -0.1999 -0.1087
 1284ERGO    C117187   3.601  19.074   6.747  0.0102 -0.1150 -0.0564
 1284ERGO    C217188   3.393  19.037   7.066  0.0149  0.0798  0.0066
 1285ERGO   ROH17189   0.871   4.368   6.300 -0.2058  0.3265  0.0508
 1285ERGO    R117190   0.864   4.326   6.579 -0.1619  0.2753  0.0437
 1285ERGO    R217191   0.970   4.101   6.699 -0.1496  0.2538 -0.0167
 1285ERGO    R317192   1.107   4.283   6.847 -0.1213  0.2201  0.0001
 1285ERGO    R417193   1.017   4.081   7.040 -0.0204  0.1241 -0.0408
 1285ERGO    R517194   0.983   4.296   7.053 -0.0511  0.1195  0.0536
 1285ERGO    C117195   1.172   4.240   7.379  0.0813  0.0168 -0.0390
 1285ERGO    C217196   1.375   4.455   7.665 -0.6223  0.1034 -0.1122
 1286ERGO   ROH17197  16.493  16.045   9.881  0.0101  0.1731 -0.0845
 1286ERGO    R117198  16.524  15.931   9.624  0.1850  0.2648 -0.1035
 1286ERGO    R217199  16.314  15.907   9.445  0.2039 -0.0914 -0.0703
 1286ERGO    R317200  16.482  16.041   9.279 -0.0600  0.2399 -0.0859
 1286ERGO    R417201  16.308  15.889   9.100  0.2705 -0.1990 -0.0684
 1286ERGO    R517202  16.525  15.887   9.101  0.2914  0.2724 -0.0436
 1286ERGO    C117203  16.462  16.004   8.744  0.0616  0.0493 -0.0819
 1286ERGO    C217204  16.440  15.930   8.546  0.2173 -0.0124 -0.0534
 1287ERGO   ROH17205  12.469   8.679  10.191  0.0749  0.1404 -0.0498
 1287ERGO    R117206  12.518   8.536   9.951  0.0816  0.1829 -0.0730
 1287ERGO    R217207  12.316   8.470   9.774  0.0352 -0.0775  0.0763
 1287ERGO    R317208  12.476   8.597   9.594 -0.2457  0.1085 -0.0516
 1287ERGO    R417209  12.290   8.440   9.430 -0.0519 -0.3024  0.1001
 1287ERGO    R517210  12.508   8.436   9.419 -0.0402  0.0640  0.0207
 1287ERGO    C117211  12.426   8.542   9.062 -0.3663 -0.2587 -0.0061
 1287ERGO    C217212  12.550   8.478   8.723  0.0888  0.1611 -0.1813
 1288ERGO   ROH17213  15.077  11.460   5.907 -0.0254  0.1265  0.0701
 1288ERGO    R117214  15.086  11.386   6.180 -0.0562 -0.0618  0.0216
 1288ERGO    R217215  15.127  11.125   6.263  0.0333 -0.1047 -0.1524
 1288ERGO    R317216  15.330  11.236   6.405 -0.0443 -0.1192 -0.0296
 1288ERGO    R417217  15.224  11.025   6.579  0.0765 -0.3624 -0.2448
 1288ERGO    R517218  15.252  11.235   6.631 -0.0575 -0.3953 -0.0325
 1288ERGO    C117219  15.472  11.071   6.897  0.0289 -0.5261 -0.1832
 1288ERGO    C217220  15.650  11.112   7.140  0.0970  0.1410 -0.0709
 1289ERGO   ROH17221  15.597  17.209   6.078  0.2374 -0.0505  0.1090
 1289ERGO    R117222  15.739  17.326   6.293  0.1390  0.1682  0.0576
 1289ERGO    R217223  15.677  17.576   6.393 -0.1905  0.0922  0.0608
 1289ERGO    R317224  15.660  17.443   6.629  0.0737  0.0781  0.0736
 1289ERGO    R417225  15.594  17.721   6.696 -0.3309 -0.0144  0.0735
 1289ERGO    R517226  15.747  17.598   6.791 -0.1163  0.2201  0.0409
 1289ERGO    C117227  15.530  17.680   7.094 -0.1645 -0.0897  0.0930
 1289ERGO    C217228  15.349  17.757   7.321 -0.1309  0.0584  0.2802
 1290ERGO   ROH17229  13.978   3.547   6.322 -0.0694 -0.0057  0.0113
 1290ERGO    R117230  13.964   3.671   6.576  0.0379  0.0835 -0.0229
 1290ERGO    R217231  13.731   3.784   6.674  0.0716  0.1250  0.0406
 1290ERGO    R317232  13.778   3.620   6.885  0.1622  0.1882  0.0664
 1290ERGO    R417233  13.700   3.874   7.006 -0.0722  0.1161  0.0286
 1290ERGO    R517234  13.881   3.760   7.049  0.0045  0.2770  0.0779
 1290ERGO    C117235  13.728   3.772   7.398 -0.0708  0.1702  0.0458
 1290ERGO    C217236  13.560   3.749   7.722 -0.0158  0.0661 -0.2410
 1291ERGO   ROH17237   5.065   5.408   9.831  0.0591  0.0773  0.1138
 1291ERGO    R117238   5.021   5.543   9.586  0.2791  0.2144  0.1448
 1291ERGO    R217239   5.228   5.628   9.423  0.4312 -0.1173  0.1397
 1291ERGO    R317240   5.095   5.484   9.235  0.1482  0.1483  0.1314
 1291ERGO    R417241   5.268   5.664   9.082  0.4007 -0.1149  0.1376
 1291ERGO    R517242   5.053   5.640   9.059  0.3637  0.2493  0.1791
 1291ERGO    C117243   5.166   5.550   8.706  0.1173  0.1359  0.1284
 1291ERGO    C217244   5.151   5.542   8.324 -0.0368 -0.2938 -0.2465
 1292ERGO   ROH17245   1.410  12.415   6.262  0.2909  0.1670 -0.1317
 1292ERGO    R117246   1.328  12.374   6.530  0.1229  0.1752 -0.1817
 1292ERGO    R217247   1.464  12.208   6.704  0.0485  0.2311 -0.0755
 1292ERGO    R317248   1.468  12.430   6.861 -0.1132  0.2466 -0.0901
 1292ERGO    R417249   1.432  12.208   7.048  0.0722  0.2203 -0.0728
 1292ERGO    R517250   1.307  12.385   7.032 -0.0707  0.1265 -0.0758
 1292ERGO    C117251   1.418  12.416   7.396 -0.0658  0.2285 -0.0849
 1292ERGO    C217252   1.621  12.347   7.766 -0.0433 -0.2677  0.2657
 1293ERGO   ROH17253  17.473   5.752   6.309  0.0233 -0.0538 -0.1074
 1293ERGO    R117254  17.408   5.817   6.577 -0.1293 -0.1801 -0.1131
 1293ERGO    R217255  17.542   5.708   6.792 -0.1401 -0.1513 -0.0952
 1293ERGO    R317256  17.578   5.968   6.861 -0.3497 -0.1460  0.0036
 1293ERGO    R417257  17.604   5.821   7.113  0.2550 -0.2882 -0.1173
 1293ERGO    R517258  17.470   5.989   7.074 -0.0282 -0.4195  0.2060
 1293ERGO    C117259  17.673   6.132   7.364  0.2885 -0.3629 -0.0374
 1293ERGO    C217260  17.946   6.268   7.610 -0.6075  0.1676 -0.2854
 1294ERGO   ROH17261   0.816  18.302   9.427 -0.1988  0.1291  0.0644
 1294ERGO    R117262   0.777  18.423   9.174  0.1658  0.2213  0.0471
 1294ERGO    R217263   0.972  18.424   8.978  0.2251 -0.2908  0.0917
 1294ERGO    R317264   0.774  18.314   8.827 -0.0351  0.1998  0.0533
 1294ERGO    R417265   0.934  18.470   8.638  0.4209 -0.2053  0.0804
 1294ERGO    R517266   0.719  18.484   8.668  0.4339  0.3475  0.0316
 1294ERGO    C117267   0.727  18.394   8.297  0.2906  0.3052  0.0377
 1294ERGO    C217268   0.874  18.343   8.034 -0.2857  0.2242 -0.0967
 1295ERGO   ROH17269   6.109   8.841  10.195 -0.2369  0.0941 -0.0136
 1295ERGO    R117270   6.250   8.779   9.957 -0.1574  0.1469  0.0202
 1295ERGO    R217271   6.164   8.585   9.780 -0.0663  0.1497 -0.0201
 1295ERGO    R317272   6.181   8.788   9.600 -0.0555  0.1674 -0.0007
 1295ERGO    R417273   6.154   8.546   9.437 -0.0885  0.1763 -0.0231
 1295ERGO    R517274   6.310   8.697   9.420 -0.0706  0.1665 -0.0162
 1295ERGO    C117275   6.163   8.714   9.068 -0.0914  0.2084 -0.0068
 1295ERGO    C217276   6.217   8.622   8.833  0.1494  0.1068  0.0811
 1296ERGO   ROH17277  15.020   1.866   9.578 -0.2327 -0.0949  0.1037
 1296ERGO    R117278  14.883   1.719   9.378 -0.2378 -0.0087  0.0406
 1296ERGO    R217279  14.730   1.841   9.181 -0.0390  0.0936 -0.0661
 1296ERGO    R317280  14.890   1.698   9.015 -0.0492 -0.0448  0.0480
 1296ERGO    R417281  14.680   1.801   8.842  0.0345 -0.0855 -0.0549
 1296ERGO    R517282  14.740   1.594   8.861 -0.0350 -0.0836  0.0717
 1296ERGO    C117283  14.800   1.643   8.488  0.0678 -0.3197  0.0586
 1296ERGO    C217284  14.691   1.691   8.184  0.1097  0.2296 -0.2130
 1297ERGO   ROH17285   2.722   7.035   9.520  0.1660 -0.1382  0.0592
 1297ERGO    R117286   2.713   7.150   9.261 -0.0451 -0.0863  0.0881
 1297ERGO    R217287   2.922   7.127   9.081 -0.0847  0.1711  0.0097
 1297ERGO    R317288   2.727   7.029   8.918 -0.0426  0.0075  0.0543
 1297ERGO    R417289   2.949   7.093   8.738 -0.0912  0.0863  0.0168
 1297ERGO    R517290   2.744   7.162   8.719 -0.1361 -0.0392  0.0129
 1297ERGO    C117291   2.783   6.981   8.385 -0.0556 -0.1166  0.0629
 1297ERGO    C217292   2.845   6.950   8.113  0.0127 -0.0928 -0.1895
 1298ERGO   ROH17293   9.459  17.923   6.171 -0.1618 -0.0731 -0.0412
 1298ERGO    R117294   9.522  17.801   6.418  0.0021  0.2741  0.0966
 1298ERGO    R217295   9.494  17.932   6.660 -0.5332  0.3904 -0.0069
 1298ERGO    R317296   9.344  17.714   6.724  0.0048  0.0097  0.0227
 1298ERGO    R417297   9.379  17.857   6.977 -0.6276  0.3182 -0.0591
 1298ERGO    R517298   9.424  17.647   6.939 -0.0051  0.4031  0.1492
 1298ERGO    C117299   9.171  17.610   7.222 -0.1776 -0.0816 -0.0617
 1298ERGO    C217300   8.985  17.623   7.608 -0.0497  0.2668  0.1144
 1299ERGO   ROH17301  12.081   3.037  10.117 -0.3814 -0.0198  0.0720
 1299ERGO    R117302  12.178   3.092   9.856 -0.2911  0.0703  0.1231
 1299ERGO    R217303  12.239   2.891   9.676 -0.0091  0.1236  0.1515
 1299ERGO    R317304  12.069   3.029   9.515 -0.0535 -0.0323  0.0642
 1299ERGO    R417305  12.236   2.874   9.331  0.1309  0.0651  0.1527
 1299ERGO    R517306  12.201   3.089   9.325 -0.0299  0.0369  0.1045
 1299ERGO    C117307  12.074   2.993   8.979  0.1708 -0.1152  0.0715
 1299ERGO    C217308  12.130   2.825   8.589  0.2372 -0.0694 -0.1341
 1300ERGO   ROH17309  12.875   0.402   9.863  0.2527 -0.1945  0.0039
 1300ERGO    R117310  12.921   0.480   9.595  0.1725 -0.1773 -0.0032
 1300ERGO    R217311  13.013   0.305   9.403  0.0113 -0.1866 -0.0614
 1300ERGO    R317312  12.793   0.388   9.267 -0.0060 -0.0712  0.0328
 1300ERGO    R417313  12.983   0.313   9.058  0.0020  0.1385 -0.0577
 1300ERGO    R517314  12.880   0.504   9.076 -0.0156  0.1232  0.1346
 1300ERGO    C117315  12.759   0.396   8.731 -0.0198  0.4362  0.0330
 1300ERGO    C217316  12.728   0.231   8.435 -0.0911 -0.0093 -0.0829
 1301ERGO   ROH17317  17.894   8.998  10.041 -0.0994 -0.1936  0.0838
 1301ERGO    R117318  17.990   8.883   9.801 -0.3082 -0.2086  0.0045
 1301ERGO    R217319  17.822   8.782   9.606 -0.4951  0.1572 -0.0351
 1301ERGO    R317320  17.962   8.950   9.445 -0.2559  0.0412  0.0466
 1301ERGO    R417321  17.798   8.792   9.262 -0.4787  0.3603 -0.0308
 1301ERGO    R517322  18.013   8.820   9.252 -0.4388  0.0620 -0.0158
 1301ERGO    C117323  17.914   8.957   8.910 -0.2447  0.3696  0.0484
 1301ERGO    C217324  17.930   8.803   8.546 -0.3360  0.3003 -0.0368
 1302ERGO   ROH17325  13.464   7.747   6.169 -0.2568  0.1986  0.0873
 1302ERGO    R117326  13.440   7.786   6.449  0.0151 -0.0941  0.1596
 1302ERGO    R217327  13.627   7.693   6.630  0.3790  0.0098 -0.1413
 1302ERGO    R317328  13.631   7.953   6.710  0.0871 -0.0506  0.0773
 1302ERGO    R417329  13.772   7.808   6.921  0.0878 -0.0823  0.0422
 1302ERGO    R517330  13.603   7.942   6.947 -0.0504 -0.2651  0.0493
 1302ERGO    C117331  13.860   8.118   7.167 -0.3559 -0.1929  0.3544
 1302ERGO    C217332  13.739   8.308   7.363  0.0406 -0.2112  0.1877
 1303ERGO   ROH17333   5.309  16.302   6.151  0.0482  0.0695 -0.0019
 1303ERGO    R117334   5.380  16.305   6.425  0.0303  0.0832  0.0029
 1303ERGO    R217335   5.235  16.443   6.615 -0.0358  0.0156  0.0017
 1303ERGO    R317336   5.228  16.201   6.739  0.0516  0.0069 -0.0111
 1303ERGO    R417337   5.223  16.397   6.957 -0.2567  0.0049 -0.0064
 1303ERGO    R517338   5.362  16.231   6.935 -0.1136  0.1063  0.0917
 1303ERGO    C117339   5.210  16.142   7.273 -0.3033 -0.0098 -0.0232
 1303ERGO    C217340   5.305  16.040   7.523 -0.0900 -0.0370 -0.0233
 1304ERGO   ROH17341   6.734  17.987   6.186  0.2495 -0.2314  0.0844
 1304ERGO    R117342   6.617  18.037   6.439  0.1836 -0.0233  0.0147
 1304ERGO    R217343   6.532  17.834   6.606 -0.1193  0.1194  0.0407
 1304ERGO    R317344   6.694  17.959   6.786 -0.0647 -0.0012  0.0766
 1304ERGO    R417345   6.566  17.744   6.938  0.0447 -0.1585 -0.0482
 1304ERGO    R517346   6.569  17.955   6.991  0.0252 -0.2000  0.1306
 1304ERGO    C117347   6.737  17.809   7.300  0.1914 -0.4333 -0.0662
 1304ERGO    C217348   6.852  17.808   7.668 -0.2372  0.2739 -0.0518
 1305ERGO   ROH17349   0.410  14.470   6.333  0.4462 -0.1507 -0.0937
 1305ERGO    R117350   0.403  14.679   6.523  0.2983 -0.0812 -0.1736
 1305ERGO    R217351   0.525  14.659   6.771  0.0305 -0.0266 -0.0350
 1305ERGO    R317352   0.647  14.890   6.693  0.1750 -0.0855  0.0125
 1305ERGO    R417353   0.648  14.900   6.986 -0.1625  0.0265  0.0178
 1305ERGO    R517354   0.571  15.053   6.851  0.0269 -0.0062 -0.1349
 1305ERGO    C117355   0.834  15.256   7.039 -0.1392  0.0020  0.0932
 1305ERGO    C217356   0.989  15.437   7.224 -0.3003 -0.0221 -0.3372
 1306ERGO   ROH17357   4.408   9.672   6.358 -0.0778  0.0382  0.1806
 1306ERGO    R117358   4.201   9.816   6.486 -0.0684  0.0663  0.1630
 1306ERGO    R217359   3.935   9.743   6.467 -0.0707  0.0853  0.1660
 1306ERGO    R317360   3.948   9.747   6.739 -0.0787  0.1125  0.1667
 1306ERGO    R417361   3.662   9.771   6.677 -0.0997 -0.0854  0.1537
 1306ERGO    R517362   3.780   9.904   6.804 -0.1904  0.0058  0.1493
 1306ERGO    C117363   3.515   9.792   7.054 -0.1241 -0.1593  0.1471
 1306ERGO    C217364   3.377   9.857   7.332 -0.2991 -0.0374 -0.2083
 1307ERGO   ROH17365  16.562   5.814  10.010 -0.1390  0.0387  0.1260
 1307ERGO    R117366  16.399   5.865   9.785 -0.0943 -0.1970  0.0366
 1307ERGO    R217367  16.439   6.083   9.618 -0.3638 -0.0876  0.1065
 1307ERGO    R317368  16.446   5.892   9.425  0.0848 -0.0452  0.0708
 1307ERGO    R417369  16.415   6.144   9.279 -0.2598 -0.0731  0.1010
 1307ERGO    R517370  16.289   5.967   9.261  0.0539 -0.2892 -0.0121
 1307ERGO    C117371  16.407   6.001   8.900  0.2220 -0.0248  0.0644
 1307ERGO    C217372  16.502   6.107   8.572 -0.2885  0.1658  0.0221
 1308ERGO   ROH17373   4.984   9.693  10.180  0.0010  0.2450  0.0577
 1308ERGO    R117374   5.123   9.581   9.960 -0.0709  0.0117  0.1283
 1308ERGO    R217375   5.003   9.410   9.780 -0.2363  0.1161  0.1315
 1308ERGO    R317376   5.096   9.589   9.597  0.0503 -0.0394  0.1189
 1308ERGO    R417377   4.987   9.368   9.437 -0.1438  0.0567  0.1340
 1308ERGO    R517378   5.187   9.453   9.422 -0.0397 -0.1871  0.1901
 1308ERGO    C117379   5.064   9.512   9.066  0.1790 -0.1240  0.1235
 1308ERGO    C217380   4.970   9.596   8.699  0.4248  0.4378 -0.1164
 1309ERGO   ROH17381  15.879   1.899   9.221  0.0289 -0.1259  0.0348
 1309ERGO    R117382  15.872   2.032   8.971  0.0642 -0.0691  0.0642
 1309ERGO    R217383  15.974   1.919   8.740  0.0900 -0.0192  0.0531
 1309ERGO    R317384  15.725   1.971   8.644  0.1039  0.0099  0.0311
 1309ERGO    R417385  15.890   1.928   8.405  0.1078 -0.0734  0.0466
 1309ERGO    R517386  15.764   2.101   8.446  0.1395 -0.0386  0.0047
 1309ERGO    C117387  15.607   1.981   8.120  0.1312 -0.0777  0.0222
 1309ERGO    C217388  15.583   2.040   7.852 -0.0214  0.1429  0.0096
 1310ERGO   ROH17389   9.042  12.836  10.027 -0.1315  0.1358  0.0312
 1310ERGO    R117390   9.006  12.725   9.769  0.0771 -0.0119  0.0614
 1310ERGO    R217391   8.780  12.771   9.617  0.0573 -0.3353 -0.0340
 1310ERGO    R317392   8.961  12.850   9.430  0.0315 -0.1919  0.0030
 1310ERGO    R417393   8.730  12.756   9.276  0.0932 -0.2037 -0.0447
 1310ERGO    R517394   8.937  12.690   9.253  0.1062 -0.1146 -0.0659
 1310ERGO    C117395   8.870  12.821   8.901  0.0898  0.0074 -0.0165
 1310ERGO    C217396   8.646  12.749   8.644  0.1600 -0.1111  0.3708
 1311ERGO   ROH17397  16.763  15.208   6.773 -0.1088  0.0939 -0.1338
 1311ERGO    R117398  16.958  15.277   6.967 -0.1957  0.0795 -0.0395
 1311ERGO    R217399  17.016  15.539   7.034 -0.1499  0.0807 -0.0691
 1311ERGO    R317400  16.963  15.452   7.286 -0.3232  0.1554 -0.0795
 1311ERGO    R417401  17.028  15.735   7.318 -0.2607  0.1392 -0.1051
 1311ERGO    R517402  17.120  15.569   7.423 -0.3726  0.1392 -0.0134
 1311ERGO    C117403  16.986  15.768   7.719 -0.4877  0.2435 -0.1359
 1311ERGO    C217404  16.958  15.667   8.068  0.1571 -0.0762  0.0753
 1312ERGO   ROH17405   7.745   6.461   6.379 -0.0721  0.0469 -0.1315
 1312ERGO    R117406   7.563   6.527   6.586  0.0629 -0.0282  0.0142
 1312ERGO    R217407   7.300   6.443   6.584  0.0300  0.0760  0.0940
 1312ERGO    R317408   7.363   6.346   6.830  0.1222 -0.1238 -0.0065
 1312ERGO    R417409   7.086   6.442   6.856  0.1994  0.0633  0.2281
 1312ERGO    R517410   7.256   6.497   6.982  0.3255 -0.1365  0.1569
 1312ERGO    C117411   7.021   6.350   7.245  0.3846 -0.1318  0.2119
 1312ERGO    C217412   6.999   6.429   7.541  0.1467  0.3421 -0.0317
 1313ERGO   ROH17413   9.660   6.769   9.975  0.0775  0.1516  0.0526
 1313ERGO    R117414   9.549   6.754   9.715  0.0399  0.2329  0.0634
 1313ERGO    R217415   9.580   6.956   9.528  0.2526  0.1698  0.0276
 1313ERGO    R317416   9.675   6.754   9.374  0.0149  0.0352  0.0529
 1313ERGO    R417417   9.592   6.959   9.183  0.3944  0.1835  0.0326
 1313ERGO    R517418   9.531   6.750   9.183  0.0808  0.2684 -0.0064
 1313ERGO    C117419   9.689   6.770   8.837  0.2539  0.0650  0.0592
 1313ERGO    C217420   9.655   6.873   8.497 -0.2108  0.0405 -0.0250
 1314ERGO   ROH17421   5.903   6.360  10.319 -0.1059  0.1910  0.0289
 1314ERGO    R117422   5.850   6.321  10.044 -0.0616 -0.0885  0.0569
 1314ERGO    R217423   5.834   6.530   9.865 -0.3529 -0.2389 -0.1016
 1314ERGO    R317424   6.021   6.386   9.730 -0.1569 -0.0878  0.0051
 1314ERGO    R417425   5.838   6.484   9.522 -0.2830 -0.4708 -0.0713
 1314ERGO    R517426   5.898   6.277   9.556 -0.0094 -0.3726  0.0740
 1314ERGO    C117427   6.016   6.323   9.196 -0.0583 -0.4639  0.0467
 1314ERGO    C217428   5.923   6.441   8.919  0.1131 -0.1729  0.1811
 1315ERGO   ROH17429   3.268   8.813  10.053  0.2282  0.0511  0.1271
 1315ERGO    R117430   3.199   8.847   9.780  0.1980 -0.0560  0.1206
 1315ERGO    R217431   3.304   9.050   9.625  0.1095 -0.0596  0.0534
 1315ERGO    R317432   3.374   8.845   9.461  0.1801 -0.0815  0.1113
 1315ERGO    R417433   3.249   9.042   9.284  0.0040 -0.2275  0.0731
 1315ERGO    R517434   3.196   8.831   9.302  0.1370 -0.2526  0.1733
 1315ERGO    C117435   3.284   8.845   8.931  0.0089 -0.3457  0.1391
 1315ERGO    C217436   3.287   8.825   8.587  0.1934 -0.2732 -0.0645
 1316ERGO   ROH17437  10.260   3.964   6.277  0.1222 -0.0628  0.1224
 1316ERGO    R117438  10.384   3.943   6.531  0.0352 -0.0003  0.1698
 1316ERGO    R217439  10.304   4.094   6.749 -0.1492 -0.0694  0.1463
 1316ERGO    R317440  10.282   3.850   6.868 -0.0365 -0.0915  0.1248
 1316ERGO    R417441  10.325   4.037   7.089 -0.3571 -0.0483  0.1643
 1316ERGO    R517442  10.440   3.858   7.048 -0.1718  0.0432  0.2458
 1316ERGO    C117443  10.317   3.776   7.399 -0.3722 -0.0567  0.1546
 1316ERGO    C217444  10.155   3.636   7.684  0.1226  0.1315 -0.2046
 1317ERGO   ROH17445   4.522  12.178   9.788 -0.2178  0.1162  0.0164
 1317ERGO    R117446   4.431  12.022   9.570 -0.0463  0.0243  0.0070
 1317ERGO    R217447   4.251  12.118   9.383 -0.0949 -0.1347 -0.0391
 1317ERGO    R317448   4.444  12.041   9.207  0.0103  0.0164  0.0106
 1317ERGO    R417449   4.207  12.084   9.042  0.0068 -0.2620 -0.0395
 1317ERGO    R517450   4.329  11.904   9.048  0.1815 -0.1335  0.0214
 1317ERGO    C117451   4.362  11.992   8.679  0.1646 -0.1942  0.0068
 1317ERGO    C217452   4.192  12.133   8.336  0.2121  0.2754  0.0732
 1318ERGO   ROH17453  12.276   5.670   6.676 -0.1826 -0.0598  0.0497
 1318ERGO    R117454  12.228   5.883   6.857 -0.0012  0.0482 -0.0284
 1318ERGO    R217455  12.129   5.842   7.111 -0.1242  0.2336 -0.0497
 1318ERGO    R317456  12.350   5.982   7.186  0.0101  0.0136 -0.0207
 1318ERGO    R417457  12.203   5.934   7.436 -0.1802  0.3204 -0.0605
 1318ERGO    R517458  12.271   6.127   7.360  0.0895  0.2049 -0.1366
 1318ERGO    C117459  12.453   6.119   7.695 -0.0868  0.1645 -0.0395
 1318ERGO    C217460  12.429   6.250   8.008  0.1031  0.4050  0.2057
 1319ERGO   ROH17461  13.277  13.411   6.299 -0.1023  0.0521 -0.0728
 1319ERGO    R117462  13.277  13.522   6.559  0.0238 -0.0687 -0.0196
 1319ERGO    R217463  13.059  13.653   6.665  0.1495  0.0839  0.0625
 1319ERGO    R317464  13.090  13.474   6.868  0.0070 -0.0437 -0.0269
 1319ERGO    R417465  12.928  13.690   6.983  0.4380  0.1762  0.1727
 1319ERGO    R517466  13.115  13.610   7.064  0.3688 -0.1557  0.0088
 1319ERGO    C117467  12.882  13.544   7.359  0.4725  0.1103  0.1530
 1319ERGO    C217468  12.493  13.514   7.623 -0.0317 -0.0463  0.0677
 1320ERGO   ROH17469  15.253  10.562   9.979 -0.0188  0.0191 -0.0338
 1320ERGO    R117470  15.115  10.585   9.732 -0.0472  0.0694 -0.0139
 1320ERGO    R217471  15.189  10.766   9.537  0.0229  0.0086 -0.0476
 1320ERGO    R317472  15.196  10.545   9.380 -0.1262 -0.0148 -0.0221
 1320ERGO    R417473  15.181  10.769   9.192  0.2101 -0.0172 -0.0526
 1320ERGO    R517474  15.048  10.596   9.198  0.0242  0.1227 -0.1057
 1320ERGO    C117475  15.183  10.563   8.843  0.1790 -0.0539 -0.0316
 1320ERGO    C217476  15.125  10.612   8.585 -0.1145  0.1619  0.1137
 1321ERGO   ROH17477  15.252   0.948   9.430 -0.0848  0.2050  0.0613
 1321ERGO    R117478  15.257   0.795   9.192  0.1553  0.3124 -0.0032
 1321ERGO    R217479  15.029   0.735   9.048  0.2395 -0.0446  0.0181
 1321ERGO    R317480  15.167   0.847   8.843  0.0017  0.2949  0.0307
 1321ERGO    R417481  14.963   0.682   8.713  0.3386 -0.1495  0.0130
 1321ERGO    R517482  15.177   0.675   8.677  0.3733  0.3232  0.0069
 1321ERGO    C117483  15.055   0.756   8.325  0.1732  0.1080  0.0219
 1321ERGO    C217484  14.820   0.674   8.035 -0.2524 -0.3983  0.0796
 1322ERGO   ROH17485   4.004   6.359   9.892  0.2277  0.4207  0.0646
 1322ERGO    R117486   3.960   6.438   9.624  0.2639  0.2809  0.0165
 1322ERGO    R217487   4.167   6.473   9.443  0.2729 -0.0505 -0.0448
 1322ERGO    R317488   4.023   6.298   9.294  0.0709 -0.0114  0.1004
 1322ERGO    R417489   4.198   6.433   9.102  0.0554 -0.2024 -0.0485
 1322ERGO    R517490   3.981   6.415   9.089  0.0357 -0.0618  0.0794
 1322ERGO    C117491   4.080   6.245   8.762 -0.2607 -0.2542  0.0857
 1322ERGO    C217492   4.116   6.369   8.425 -0.1319  0.3426 -0.1101
 1323ERGO   ROH17493   0.794  16.151   6.153 -0.0688  0.0916 -0.1628
 1323ERGO    R117494   0.718  16.294   6.384 -0.1677  0.0494 -0.1669
 1323ERGO    R217495   0.760  16.197   6.640 -0.2624  0.0068 -0.1584
 1323ERGO    R317496   0.886  16.436   6.675 -0.2847  0.0054 -0.0799
 1323ERGO    R417497   0.741  16.390   6.926 -0.2954 -0.0618 -0.1152
 1323ERGO    R517498   0.730  16.568   6.799 -0.2952 -0.0358 -0.0624
 1323ERGO    C117499   0.848  16.727   7.125 -0.3355 -0.1030 -0.0164
 1323ERGO    C217500   0.829  16.813   7.520 -0.1647 -0.0970 -0.0119
 1324ERGO   ROH17501  13.272  12.943   6.149 -0.1048  0.0135  0.0323
 1324ERGO    R117502  13.286  12.863   6.420 -0.0209  0.0640  0.0450
 1324ERGO    R217503  13.374  12.612   6.497 -0.2749 -0.0359  0.0462
 1324ERGO    R317504  13.545  12.756   6.652  0.0113 -0.1994 -0.1107
 1324ERGO    R417505  13.430  12.557   6.833 -0.2332  0.1055  0.0621
 1324ERGO    R517506  13.434  12.773   6.863  0.1186  0.1184 -0.0795
 1324ERGO    C117507  13.622  12.660   7.175  0.0597  0.0343 -0.0759
 1324ERGO    C217508  13.814  12.386   7.347 -0.0954  0.0001 -0.0584
 1325W        W17509   2.516   0.181   3.624 -0.3666 -0.0083 -0.2020
 1326W        W17510   8.459   8.136   1.323 -0.1521  0.1979 -0.1593
 1327W        W17511   9.653   8.491  13.926  0.0387 -0.0823 -0.1907
 1328W        W17512   9.204  15.967  11.234  0.0810 -0.1026  0.2139
 1329W        W17513  11.457  10.364  14.826 -0.1733  0.1582  0.2657
 1330W        W17514  12.782   2.950   0.444 -0.0304 -0.0231 -0.3332
 1331W        W17515   1.312  10.975  12.658  0.0507 -0.2225 -0.1537
 1332W        W17516  16.600   4.047  15.898  0.1942  0.0214 -0.0687
 1333W        W17517   4.183   0.038   5.775 -0.1285  0.1758 -0.1419
 1334W        W17518  15.138  17.051   1.973  0.2452 -0.1135  0.0232
 1335W        W17519   6.597   8.247   0.458  0.1453  0.1670  0.2018
 1336W        W17520   9.338  12.968   1.847  0.0625  0.0509  0.1149
 1337W        W17521  15.344  18.242   0.299  0.1804  0.0068  0.0186
 1338W        W17522  15.637   6.454   4.221 -0.0489 -0.1959 -0.0181
 1339W        W17523   4.882   5.146  13.813 -0.0122  0.1151 -0.2014
 1340W        W17524   5.721   6.637   2.894 -0.2463 -0.1371 -0.0289
 1341W        W17525   7.845   1.506  11.521 -0.1841 -0.2272 -0.2945
 1342W        W17526   8.287   8.192   2.327  0.2372 -0.0748  0.3186
 1343W        W17527   0.496   7.397  15.084 -0.1243  0.1506  0.1492
 1344W        W17528   5.528  14.707   2.095  0.2171  0.2150  0.2486
 1345W        W17529   7.655   3.518  13.780  0.2494  0.1579 -0.0675
 1346W        W17530   9.853  10.218   2.963  0.2396  0.0128  0.0621
 1347W        W17531   0.995  18.136   3.575 -0.2007 -0.0158  0.1613
 1348W        W17532  15.857  13.412  14.099 -0.0852  0.0323 -0.1101
 1349W        W17533   2.086  14.682  12.850 -0.0256  0.1833  0.1076
 1350W        W17534   5.779  17.765  11.486  0.0587 -0.0211 -0.1598
 1351W        W17535   5.748  11.389   3.420 -0.1408 -0.1440 -0.3216
 1352W        W17536   2.088  12.028  13.015  0.0113 -0.0158 -0.2420
 1353W        W17537   6.460  15.587  14.645 -0.0250  0.0676  0.0659
 1354W        W17538   8.788   1.131   0.416 -0.0951 -0.1412  0.1765
 1355W        W17539   6.416   8.647  13.231 -0.3235 -0.3748 -0.2650
 1356W        W17540   8.992   7.154   4.875  0.0340  0.0008 -0.0087
 1357W        W17541   2.297  12.232  11.805 -0.0316  0.1755 -0.0155
 1358W        W17542  16.249   1.357  10.586 -0.3218 -0.0974 -0.0861
 1359W        W17543  15.428   7.392   1.380 -0.1674 -0.0506 -0.2053
 1360W        W17544  15.984   1.848  13.688 -0.2226 -0.0509  0.0326
 1361W        W17545   9.500   0.891   0.141  0.0278  0.0010 -0.1877
 1362W        W17546   2.331  12.096   2.535  0.1860 -0.0050 -0.2084
 1363W        W17547  10.909   6.150   1.281 -0.0479 -0.0805 -0.1678
 1364W        W17548   9.567   4.683  15.922 -0.0531  0.0161 -0.2542
 1365W        W17549  12.823   7.898   2.422 -0.2929 -0.1090  0.0295
 1366W        W17550  12.349  17.312   4.547 -0.3956 -0.3074  0.2572
 1367W        W17551  12.221   6.935  15.730  0.2145 -0.1859  0.0544
 1368W        W17552  17.585  12.929  14.591 -0.1588 -0.0665 -0.3414
 1369W        W17553  17.618   4.961   1.330  0.0713  0.0023 -0.2445
 1370W        W17554  15.405   9.861   3.707 -0.0787  0.2035  0.0523
 1371W        W17555  14.585  16.054  15.002  0.2096  0.1570  0.1130
 1372W        W17556   1.342  10.749   5.177 -0.1361  0.0914 -0.1266
 1373W        W17557  12.799  12.249   1.778  0.1125 -0.2203  0.0999
 1374W        W17558   8.451   2.653   6.191 -0.1510  0.3435 -0.2311
 1375W        W17559  10.384  12.903   1.538 -0.0778 -0.4647 -0.0112
 1376W        W17560   3.020   9.368  12.317  0.4538 -0.0022 -0.0610
 1377W        W17561   8.979   4.877   1.728  0.4373 -0.1935  0.3383
 1378W        W17562  14.041  16.548   4.202 -0.0947 -0.4981 -0.4710
 1379W        W17563  15.034  13.616  12.257 -0.1889  0.1474 -0.1013
 1380W        W17564  10.574   8.552   2.455 -0.2248  0.4548 -0.1412
 1381W        W17565  11.351   7.544   0.691 -0.1544 -0.2200 -0.0645
 1382W        W17566  14.443   4.571  12.208 -0.1502 -0.1960  0.0013
 1383W        W17567  12.388  12.185   0.628  0.1684  0.1319  0.0934
 1384W        W17568   5.236   2.359  10.653  0.2737 -0.1971 -0.1736
 1385W        W17569  15.271  16.069  11.428 -0.2366  0.0091  0.0997
 1386W        W17570   1.772   7.506   3.283  0.0323  0.0026  0.2466
 1387W        W17571   7.880   7.834  11.915  0.3894  0.0123 -0.1716
 1388W        W17572   2.410   2.754  15.046 -0.3053  0.1607  0.3031
 1389W        W17573  17.212  11.766   3.069 -0.1691  0.1365  0.2984
 1390W        W17574  13.494  15.950  14.472 -0.1216 -0.0780 -0.0007
 1391W        W17575  16.347  14.219  12.422  0.0200 -0.1692 -0.1306
 1392W        W17576  13.999   7.429  11.808  0.0708  0.1221 -0.2938
 1393W        W17577   8.076   9.390  14.782  0.0592 -0.1307 -0.0251
 1394W        W17578  10.029  18.217   4.350 -0.0230 -0.0549 -0.2942
 1395W        W17579  11.216   2.140  13.915  0.2345 -0.1071  0.0051
 1396W        W17580   8.022  10.652   0.994  0.0870  0.1133 -0.1700
 1397W        W17581   8.145  14.737   0.888  0.1763  0.0836  0.0288
 1398W        W17582   3.110  12.784   5.115 -0.0856  0.1218 -0.1393
 1399W        W17583  10.134   8.582  13.810 -0.1400 -0.1668  0.0546
 1400W        W17584  13.768   2.445  14.784 -0.0482 -0.0100 -0.1199
 1401W        W17585  18.224  12.016   0.533  0.0427 -0.1179  0.1082
 1402W        W17586  17.521   3.789  14.784 -0.0774 -0.0988  0.2013
 1403W        W17587  13.686  12.700   2.505 -0.2139  0.1299  0.1564
 1404W        W17588  16.390   1.314  12.924 -0.2519  0.2277 -0.1736
 1405W        W17589   7.050   5.391  16.118 -0.0697 -0.0841 -0.3226
 1406W        W17590   6.460  10.828   4.732  0.0747  0.3989  0.0471
 1407W        W17591  18.105   1.444  12.588 -0.0560  0.1129  0.2823
 1408W        W17592   3.568   2.190  11.056  0.3769  0.3134 -0.3521
 1409W        W17593   2.685  13.848   5.756 -0.0366 -0.2039  0.0710
 1410W        W17594  15.797  15.653   5.679  0.1914  0.1656 -0.1583
 1411W        W17595   3.085  14.644  15.859 -0.1479 -0.2984  0.0126
 1412W        W17596   7.985   3.044   4.569  0.0816 -0.0908 -0.1821
 1413W        W17597  14.729  14.708   3.591  0.2347 -0.0293 -0.1268
 1414W        W17598  14.853   2.432  14.605 -0.2401 -0.3011  0.3504
 1415W        W17599  13.395   7.611  13.724 -0.4383  0.0406 -0.2025
 1416W        W17600   4.524   7.959   5.334 -0.0285 -0.0245 -0.4113
 1417W        W17601  12.167   5.179  15.627  0.0331  0.1038  0.3215
 1418W        W17602   0.252   4.911   4.164  0.0022 -0.1116  0.0364
 1419W        W17603   7.436  14.145   3.082  0.1171 -0.0812 -0.0025
 1420W        W17604  12.689  14.612   2.780  0.3632  0.3305  0.0622
 1421W        W17605   0.825   1.982   1.973  0.2026 -0.1318 -0.1570
 1422W        W17606   8.468   4.383   2.363  0.1219 -0.0127 -0.0562
 1423W        W17607  15.972  16.886   9.725  0.2124  0.3560 -0.0210
 1424W        W17608  12.478  13.782   4.346  0.1041 -0.2179 -0.2471
 1425W        W17609   6.354   9.255   1.221 -0.2759 -0.2227 -0.0779
 1426W        W17610  11.600  13.328   4.951 -0.2454  0.3358  0.1314
 1427W        W17611   2.500   1.602  15.796  0.1037 -0.2962  0.0487
 1428W        W17612   3.679   7.104  12.336  0.5356  0.2064 -0.3048
 1429W        W17613   9.221  12.995  12.091 -0.1069  0.0990  0.0374
 1430W        W17614   6.035  11.653   3.093 -0.0604 -0.0846  0.6004
 1431W        W17615   2.767  16.581   2.245 -0.0241  0.2582 -0.2827
 1432W        W17616   8.150   6.814   1.239 -0.2902 -0.1959 -0.2114
 1433W        W17617  15.958  17.217  14.593 -0.0408 -0.0879 -0.0920
 1434W        W17618  13.191  11.318   2.478  0.1373  0.1985  0.4396
 1435W        W17619   7.159  16.763  11.903  0.1978  0.1738  0.0827
 1436W        W17620   9.335  18.433  11.306 -0.0086 -0.2219  0.4125
 1437W        W17621   7.846  10.599  15.350  0.0189  0.4084  0.0507
 1438W        W17622   9.361  11.558  16.145 -0.2334  0.1104  0.1487
 1439W        W17623  16.327  16.793  10.860  0.0250  0.0022  0.2915
 1440W        W17624   2.950  10.234   6.195  0.0693  0.2686 -0.3164
 1441W        W17625   4.906   3.218  10.596 -0.2665 -0.0609  0.1523
 1442W        W17626   0.233   0.670  13.063  0.1011 -0.0703 -0.0596
 1443W        W17627  12.784  13.112  12.843  0.1405 -0.3056 -0.1537
 1444W        W17628   9.846   2.626   3.951  0.0065  0.1291 -0.2222
 1445W        W17629   7.333  16.743   0.326 -0.1851  0.0848  0.3952
 1446W        W17630   4.703   7.229   2.571 -0.2296 -0.1452 -0.0320
 1447W        W17631  14.081   5.616   2.167 -0.1457 -0.0311  0.1606
 1448W        W17632  17.802  11.835   0.639  0.0065  0.0956 -0.0200
 1449W        W17633   2.765   4.873  15.802  0.0680 -0.3148  0.2040
 1450W        W17634   2.985   6.063  13.250  0.0684 -0.1485  0.0962
 1451W        W17635   8.164  12.032  14.314 -0.0403  0.0621 -0.1411
 1452W        W17636   2.228  17.694   5.319 -0.1149  0.1482 -0.1136
 1453W        W17637  16.577  14.489   5.505 -0.0378 -0.1842  0.1454
 1454W        W17638   0.030   2.974  15.516  0.2849  0.4092 -0.0053
 1455W        W17639  15.401  10.858  14.364 -0.2776  0.0954 -0.1130
 1456W        W17640  16.843  14.466  13.883  0.0470  0.1561 -0.0788
 1457W        W17641  11.411   5.652   5.832  0.1016  0.0109  0.3116
 1458W        W17642  17.842   6.882  12.785 -0.0001  0.2115  0.1847
 1459W        W17643   9.886  14.159   2.564  0.2079  0.1133 -0.3877
 1460W        W17644   0.270   9.256   1.089 -0.0734  0.1443  0.0969
 1461W        W17645  14.906  11.483  15.556  0.1646  0.0613 -0.1226
 1462W        W17646  15.798   4.932  15.443 -0.3169 -0.2956  0.2642
 1463W        W17647  11.476  12.857  13.429 -0.0217  0.1231 -0.1030
 1464W        W17648   8.958  12.528   1.241  0.1681 -0.3570  0.1649
 1465W        W17649  15.160   6.061   2.486  0.2648 -0.1041 -0.1889
 1466W        W17650  12.537   9.878  14.974  0.1793 -0.2294 -0.1327
 1467W        W17651  15.962  10.452  11.226  0.1616  0.2556  0.1867
 1468W        W17652   8.733  11.957  13.471  0.3253  0.2490  0.0740
 1469W        W17653  15.694  11.914   2.641 -0.1215 -0.2762  0.0835
 1470W        W17654   8.502  10.946   0.983 -0.0496 -0.2106  0.2055
 1471W        W17655  15.434   0.307  11.953 -0.0084 -0.1131 -0.0756
 1472W        W17656  15.774  13.095  12.169 -0.1070  0.0892 -0.0251
 1473W        W17657   5.606  10.690  10.845 -0.1781 -0.1496 -0.2140
 1474W        W17658   2.216  14.999  13.732  0.0455 -0.2008 -0.1615
 1475W        W17659   0.369   6.032  14.522  0.1152 -0.2433  0.0614
 1476W        W17660   0.782   8.875   2.066  0.2841 -0.0288 -0.3679
 1477W        W17661  12.061  18.086   0.363  0.2609 -0.1273 -0.1335
 1478W        W17662   5.890  10.657  11.240  0.0022 -0.0168 -0.3893
 1479W        W17663  15.500  15.871   1.108  0.0427 -0.1654  0.0458
 1480W        W17664   1.715   8.920   1.009 -0.1819 -0.1844 -0.0257
 1481W        W17665   0.891   5.191   6.155  0.1292 -0.0369 -0.2948
 1482W        W17666   7.866   1.671   4.347  0.1504  0.0316 -0.2267
 1483W        W17667  18.027   9.672  12.070  0.0754  0.0286 -0.6528
 1484W        W17668   8.739  16.994   5.801  0.1891  0.1413 -0.0549
 1485W        W17669   6.008   7.214  13.965  0.4172 -0.2066  0.0694
 1486W        W17670  10.330  10.679   2.786  0.1337  0.0166  0.3418
 1487W        W17671  13.798  13.362  12.757  0.0960  0.0635 -0.0650
 1488W        W17672  10.313  11.761   4.854  0.1308  0.2004  0.0128
 1489W        W17673   7.574  16.673   3.016  0.0122 -0.1087  0.1430
 1490W        W17674   2.923  16.908  12.894  0.0812  0.1745  0.1846
 1491W        W17675   4.659   6.136   4.204  0.0590 -0.0312 -0.1668
 1492W        W17676   5.079   7.640   4.311 -0.3315  0.0249  0.2105
 1493W        W17677  17.482  15.022   4.625 -0.1487 -0.1692  0.0350
 1494W        W17678  18.094  18.097   3.375  0.3154 -0.0136 -0.0817
 1495W        W17679  14.928  15.914   1.193  0.0503  0.1065  0.3152
 1496W        W17680   6.293   2.690   2.505  0.1523  0.2416 -0.2354
 1497W        W17681  15.388  15.227  14.492  0.0919 -0.0991  0.1536
 1498W        W17682  18.243  16.051   2.664 -0.2579 -0.0032 -0.0452
 1499W        W17683  14.434   4.209   1.520  0.0567  0.3378  0.4973
 1500W        W17684   2.508   0.903  14.650 -0.0665 -0.0179  0.2212
 1501W        W17685  13.775  15.447   0.779 -0.0073 -0.0928  0.0939
 1502W        W17686   3.178  14.066   3.540 -0.0811  0.2799 -0.2055
 1503W        W17687   4.020  18.311  14.440  0.2369 -0.0508 -0.1684
 1504W        W17688  16.372  13.815  12.686 -0.0481 -0.1121 -0.4139
 1505W        W17689   5.058   3.290  15.236 -0.0620 -0.1150 -0.0868
 1506W        W17690   2.887   6.674  11.790 -0.1009 -0.0661 -0.3013
 1507W        W17691   8.200   9.235   2.160  0.0570 -0.1460  0.0204
 1508W        W17692   5.739   5.297  11.871 -0.2633 -0.2428 -0.2376
 1509W        W17693   2.586   3.409   2.505  0.0969  0.6042  0.0567
 1510W        W17694   9.282  11.499  12.935 -0.1363 -0.0942 -0.0832
 1511W        W17695   8.759   2.269   2.022 -0.0708  0.2751  0.1686
 1512W        W17696  12.041   3.208   0.197  0.1507 -0.0871 -0.0868
 1513W        W17697   1.082   0.782   9.487  0.2122 -0.0203  0.0954
 1514W        W17698  18.108  11.696  14.985  0.1853 -0.0412  0.0774
 1515W        W17699   4.517  12.956  13.549 -0.0771 -0.0151  0.2063
 1516W        W17700   0.747   9.664  13.006  0.2196 -0.0836  0.1733
 1517W        W17701   7.514   2.138   2.647  0.2084 -0.0217  0.1844
 1518W        W17702   5.316  14.954  15.963  0.1235  0.0553 -0.1102
 1519W        W17703  13.713  18.293   2.510 -0.1014 -0.1027  0.1511
 1520W        W17704  10.933   0.404  11.960  0.2467 -0.1601 -0.0097
 1521W        W17705  13.934   2.793  14.033 -0.1913  0.4208 -0.0926
 1522W        W17706   0.764  16.495  11.500 -0.2902  0.0110  0.0401
 1523W        W17707   4.937  13.926   3.128 -0.1026  0.0076  0.2159
 1524W        W17708  16.545  16.172   0.143 -0.0417  0.0577 -0.1426
 1525W        W17709   1.951   2.387   4.821  0.1508 -0.3727 -0.3821
 1526W        W17710  18.377   0.897   4.543  0.2318  0.0260  0.1615
 1527W        W17711  14.430   4.531  13.106 -0.0233 -0.1732  0.0179
 1528W        W17712   3.985   7.283   3.346  0.3516 -0.1868 -0.0793
 1529W        W17713  15.264  12.586   0.480 -0.0841 -0.1173 -0.0941
 1530W        W17714  14.870  16.685   2.977 -0.1150  0.2991 -0.1162
 1531W        W17715  12.508  12.684   1.310  0.0710 -0.0109  0.0006
 1532W        W17716   4.085   7.025   0.673  0.0580 -0.1922  0.3504
 1533W        W17717   3.231  15.624   3.325 -0.2953  0.1419  0.0930
 1534W        W17718   2.761   2.818   0.838  0.1365 -0.0835 -0.1054
 1535W        W17719   3.980  13.268   2.535  0.3285  0.0170 -0.0020
 1536W        W17720   5.137  12.391  11.758  0.3680  0.1134  0.1395
 1537W        W17721  14.266  10.868  15.635 -0.1977  0.2149  0.2949
 1538W        W17722   3.147  10.233   0.433  0.0289 -0.0894  0.0270
 1539W        W17723  16.423   3.531   3.157 -0.0252  0.2023  0.1567
 1540W        W17724   2.457   0.644  11.430 -0.2243  0.1846 -0.1429
 1541W        W17725   9.562   6.431   6.122  0.0919  0.1637 -0.0802
 1542W        W17726  12.784  11.521  13.343  0.1586 -0.1299  0.0357
 1543W        W17727   9.913  13.137  13.976  0.1068 -0.2772 -0.0261
 1544W        W17728  17.243   9.309  11.503 -0.2443  0.1809 -0.2695
 1545W        W17729   9.398  14.555  16.071  0.1548 -0.1794 -0.1438
 1546W        W17730   3.361   8.782   1.716  0.0246  0.0658 -0.2217
 1547W        W17731   6.663   2.882   6.159 -0.0210 -0.1525 -0.2225
 1548W        W17732  14.772   0.211  11.453  0.1911 -0.1485  0.5460
 1549W        W17733   0.128  11.455   1.482 -0.0009 -0.2846 -0.2091
 1550W        W17734   2.454   7.886  15.419  0.1981 -0.1087 -0.3954
 1551W        W17735   0.899   0.540   2.425 -0.2383  0.3902 -0.0772
 1552W        W17736  12.278   2.535   5.220 -0.0984  0.0278 -0.0601
 1553W        W17737  18.114   5.795  15.777 -0.0209 -0.0612 -0.1294
 1554W        W17738  17.414  14.121  12.797  0.2542 -0.1713  0.2305
 1555W        W17739   2.224   7.456  14.676 -0.0659 -0.2450 -0.0708
 1556W        W17740  12.408  18.067  16.059 -0.0755 -0.0608 -0.3109
 1557W        W17741   2.181  14.461  12.415 -0.0697 -0.2129 -0.0731
 1558W        W17742   9.539  17.771   3.273 -0.2187  0.2443 -0.2910
 1559W        W17743   1.053   1.186   1.103  0.0759  0.2335 -0.1798
 1560W        W17744   5.185   0.922   3.875 -0.1436 -0.5375 -0.4584
 1561W        W17745   2.526  10.357   1.937 -0.2195  0.2886  0.0633
 1562W        W17746  16.980  11.526   2.074 -0.2808  0.0862  0.3497
 1563W        W17747  16.163   0.946   3.652 -0.1497 -0.0558 -0.3006
 1564W        W17748   3.176   3.860  15.643 -0.1790  0.2133  0.0494
 1565W        W17749   3.756  12.755  14.029  0.0982 -0.1843  0.0523
 1566W        W17750  11.928   5.266   3.965  0.2767  0.0148 -0.2701
 1567W        W17751  11.196   9.379  12.368  0.2978  0.1421 -0.2293
 1568W        W17752   1.834  13.266   1.224  0.0157 -0.0643  0.0940
 1569W        W17753   1.490  15.597  13.243  0.0501  0.1492 -0.1472
 1570W        W17754  15.570   3.347   3.608  0.1602  0.1206 -0.0378
 1571W        W17755   1.067   3.829   1.457  0.0188  0.2610  0.3544
 1572W        W17756   5.943  10.094  12.828 -0.1163 -0.0209  0.1714
 1573W        W17757  15.099  17.784  15.507  0.1458 -0.3021  0.1003
 1574W        W17758   8.103   9.674   1.350  0.1619 -0.0594  0.1057
 1575W        W17759  10.174   6.404  12.123  0.2860  0.1848 -0.0527
 1576W        W17760   5.329   4.472   1.021 -0.0022  0.1310 -0.0307
 1577W        W17761  16.979  15.751  11.513 -0.3158 -0.2534 -0.0431
 1578W        W17762   1.173  15.066  15.507 -0.0633  0.2694  0.1945
 1579W        W17763   2.623  10.707  13.141  0.0169 -0.0023 -0.0207
 1580W        W17764   9.003   2.228  11.134  0.0470 -0.0491 -0.0585
 1581W        W17765  15.744   5.191  12.146 -0.3172 -0.1686  0.1336
 1582W        W17766   5.364   5.630  16.018  0.2977 -0.3431  0.0811
 1583W        W17767  14.775  14.585  12.762 -0.1599 -0.0352  0.2831
 1584W        W17768  15.978   6.802   0.787  0.0720  0.0925  0.0229
 1585W        W17769   2.446  13.482   3.678  0.0903  0.0837  0.2716
 1586W        W17770   0.453   9.295  11.907 -0.1920  0.2390  0.1435
 1587W        W17771   1.919  11.219   0.720 -0.1288 -0.6557 -0.3453
 1588W        W17772   0.012   6.265  12.918  0.1629  0.0275 -0.3614
 1589W        W17773  17.938   1.846  14.493  0.3729  0.1057  0.2875
 1590W        W17774   1.305   8.226   1.776 -0.0616 -0.0432 -0.2294
 1591W        W17775  17.654   3.478   2.405  0.2758  0.0883  0.1133
 1592W        W17776  17.720  12.924  13.198 -0.1586 -0.3148  0.2449
 1593W        W17777  11.034  16.095  11.595 -0.2829 -0.0124  0.0966
 1594W        W17778  11.003   4.700   1.950  0.2181  0.0097 -0.0377
 1595W        W17779   1.311   4.497   6.029 -0.3467  0.0752  0.0359
 1596W        W17780  13.422  16.242   1.411  0.0074  0.1255 -0.1362
 1597W        W17781  10.498  10.963   3.249  0.5065 -0.2614  0.1478
 1598W        W17782   7.311  15.171   3.782  0.1470 -0.0095 -0.3393
 1599W        W17783  13.213   0.483   2.630 -0.2438  0.0611  0.1940
 1600W        W17784   6.539   1.263   1.991  0.0965 -0.2006 -0.1763
 1601W        W17785  10.643  17.176  14.489  0.1866 -0.2388 -0.0807
 1602W        W17786  17.325  16.040   0.644  0.0945  0.0586 -0.1879
 1603W        W17787  16.511  12.212  15.316  0.0407  0.1167 -0.1506
 1604W        W17788   2.543   9.419  14.055 -0.1607  0.1202 -0.0450
 1605W        W17789  18.228   1.202   1.099  0.0825 -0.0290 -0.2693
 1606W        W17790   8.819  14.656   4.845  0.3026  0.0495  0.1034
 1607W        W17791   2.551  13.224   1.934  0.3108  0.1671 -0.1136
 1608W        W17792  16.195  16.467   4.587 -0.0483 -0.1520 -0.2047
 1609W        W17793   8.125   5.413  14.028 -0.3073 -0.0360 -0.3299
 1610W        W17794  16.762  13.664   3.781 -0.3253  0.0930  0.1352
 1611W        W17795   9.486   2.415   0.052  0.0323  0.0570 -0.0540
 1612W        W17796   3.443   1.354  13.086 -0.0675  0.3430 -0.0030
 1613W        W17797   3.109   0.343  10.900 -0.1644  0.0779 -0.1424
 1614W        W17798  11.918   1.952  14.062  0.0761  0.3595 -0.1346
 1615W        W17799  11.018  10.542   2.372 -0.2236  0.1284  0.0581
 1616W        W17800  15.523  11.418  12.838  0.2080 -0.1185  0.1134
 1617W        W17801   3.326   9.642   5.099 -0.0416 -0.1969  0.1960
 1618W        W17802   1.772   7.492   1.341  0.4916 -0.0949  0.1617
 1619W        W17803   7.595  17.071   0.031 -0.1090 -0.3020  0.2799
 1620W        W17804  10.909  10.609  12.299 -0.1199  0.2330  0.0769
 1621W        W17805  15.110  10.050  13.957 -0.1670 -0.3044  0.1284
 1622W        W17806   2.872  14.224  11.059  0.0626  0.0541 -0.0190
 1623W        W17807   0.027  18.094  12.265 -0.0504  0.0978  0.0609
 1624W        W17808  10.486   9.404  12.661  0.1147  0.1851 -0.4483
 1625W        W17809   9.627  12.195   2.435 -0.0188 -0.1134  0.1643
 1626W        W17810   5.522   6.183   3.866  0.3282 -0.0504 -0.1944
 1627W        W17811  10.134   8.896   3.921 -0.0433 -0.5002  0.1189
 1628W        W17812  17.161   2.295   0.979 -0.1107  0.2614  0.2034
 1629W        W17813   8.174   6.169  15.842 -0.1131  0.2541  0.1249
 1630W        W17814  15.582   1.050   9.901 -0.1949  0.1717  0.0978
 1631W        W17815  16.641   2.416   5.270 -0.1034 -0.0763 -0.0347
 1632W        W17816  16.124   7.757  14.748 -0.0343  0.0246  0.2122
 1633W        W17817   5.586   1.609   5.913  0.1228  0.2440 -0.1516
 1634W        W17818  11.958   2.871  11.752 -0.2347  0.3416 -0.0207
 1635W        W17819   1.042  16.110   4.409 -0.5713  0.2443 -0.1471
 1636W        W17820  14.640   3.530   0.362 -0.0089  0.3057 -0.1774
 1637W        W17821   5.750   9.812  14.984 -0.0830 -0.2902 -0.1083
 1638W        W17822  16.717   3.161  10.252 -0.2387  0.1168  0.0056
 1639W        W17823  14.977   8.846  13.165 -0.1986  0.3293  0.1504
 1640W        W17824   1.051   3.829   5.412  0.0191 -0.0684  0.0657
 1641W        W17825   0.753  13.502  15.403 -0.0082  0.1688  0.1801
 1642W        W17826  11.550   0.485   2.734 -0.3638 -0.2194 -0.1995
 1643W        W17827   6.895  11.658   5.920 -0.3081 -0.1399  0.2229
 1644W        W17828   1.534  16.670  15.294  0.2420  0.1389  0.0501
 1645W        W17829  13.161   7.639   2.079 -0.2493 -0.1564 -0.0958
 1646W        W17830  17.613   7.912  15.308  0.0263 -0.0634 -0.1291
 1647W        W17831   4.482   7.200   4.572 -0.1992  0.1179  0.0657
 1648W        W17832   2.224   3.420  12.511 -0.1311 -0.1598  0.1390
 1649W        W17833  12.675  11.882   3.956  0.2709 -0.3521  0.1076
 1650W        W17834   7.908  15.675   1.027 -0.0114  0.0493  0.1664
 1651W        W17835   9.181   6.776   3.987 -0.2594  0.1358  0.2391
 1652W        W17836   4.110   3.580  13.567 -0.2594  0.1714  0.1035
 1653W        W17837   9.299   9.974   0.554  0.0162 -0.0713 -0.0233
 1654W        W17838  10.431  14.400  15.267 -0.4042 -0.1428  0.2017
 1655W        W17839   6.825  10.259  14.472 -0.5995  0.1576  0.1890
 1656W        W17840  11.588  13.413   0.415  0.0613 -0.0041  0.0426
 1657W        W17841  15.167  16.449  14.258  0.1289 -0.3293 -0.2601
 1658W        W17842  12.827   9.160  16.014  0.0918 -0.0554 -0.1177
 1659W        W17843   4.738  11.056   2.465 -0.1511  0.2530 -0.0638
 1660W        W17844   6.670   6.278   0.876  0.1403  0.0182  0.4166
 1661W        W17845   4.312   9.007   4.742  0.0700  0.1956  0.1569
 1662W        W17846  13.619   7.455   2.570  0.1578  0.1306  0.2009
 1663W        W17847  17.812   7.281   1.796 -0.4448  0.4827  0.0342
 1664W        W17848   9.329  18.381  13.918 -0.2945 -0.0255 -0.0969
 1665W        W17849   3.607  16.966  10.833  0.1928  0.1920  0.3701
 1666W        W17850  12.111  12.956   1.356  0.1599 -0.0258 -0.1333
 1667W        W17851   6.142   4.615  14.869 -0.0583 -0.0340  0.1173
 1668W        W17852  16.331   0.208   3.993  0.4227 -0.1618  0.2780
 1669W        W17853   4.730   9.782  14.962  0.2937  0.2129  0.0220
 1670W        W17854  11.067  15.095  15.446  0.1393  0.1820 -0.0127
 1671W        W17855  12.330   1.033  12.094  0.2287 -0.0022 -0.0344
 1672W        W17856  17.066   7.576  15.826  0.1758  0.1448  0.2476
 1673W        W17857  17.362   3.178   3.625 -0.1387  0.2101 -0.1464
 1674W        W17858   2.181   8.120  15.104 -0.3130 -0.1512 -0.1273
 1675W        W17859   8.070  13.803  16.030  0.1576  0.1246 -0.1710
 1676W        W17860   3.676   1.004   1.000 -0.0105 -0.0651  0.1844
 1677W        W17861  10.045  10.649  12.937  0.1790 -0.5130 -0.0565
 1678W        W17862  16.791   5.838   4.773 -0.0331 -0.3047 -0.0611
 1679W        W17863   4.194  15.582  11.262  0.0097 -0.2208  0.0154
 1680W        W17864  16.044  11.273  11.472  0.3575 -0.1343  0.1094
 1681W        W17865   8.103   3.399  13.511  0.1339  0.0243 -0.2492
 1682W        W17866   5.320  13.386   4.597  0.1165 -0.0849 -0.2154
 1683W        W17867   4.789  10.824   5.875 -0.0345 -0.0672 -0.0934
 1684W        W17868  14.874  18.113  10.596 -0.0017  0.0565 -0.1486
 1685W        W17869   6.216  13.385  12.846  0.0948 -0.0112 -0.1585
 1686W        W17870   3.377   0.160   3.638  0.1399 -0.3521  0.2798
 1687W        W17871  12.430   4.045   2.611  0.2083 -0.2410 -0.2764
 1688W        W17872  13.805   4.530   2.748  0.4257  0.1298 -0.0442
 1689W        W17873   3.960  17.549  13.995  0.1549 -0.0691  0.1442
 1690W        W17874   6.509   7.226  15.132 -0.0682 -0.0183 -0.1096
 1691W        W17875  11.906   0.141   5.836  0.0997  0.2617 -0.1560
 1692W        W17876  17.022   0.507  12.572  0.2528 -0.2394  0.2832
 1693W        W17877  10.840  11.764   4.645  0.1090  0.3024 -0.3369
 1694W        W17878  17.268   0.453   0.675 -0.1008 -0.1565 -0.3142
 1695W        W17879   8.793  12.424   5.415 -0.0564  0.0257 -0.0412
 1696W        W17880  16.833   3.249   0.740 -0.2501  0.2803 -0.0335
 1697W        W17881  12.835   1.892   1.336  0.1528 -0.1015 -0.1769
 1698W        W17882  15.791  16.692   4.673  0.0764  0.1547 -0.0729
 1699W        W17883   7.668   7.075  16.028 -0.1502  0.2753 -0.1408
 1700W        W17884   5.311   9.980  13.254  0.3512  0.0480  0.0737
 1701W        W17885  17.974  16.940  10.001  0.3700  0.2356  0.0983
 1702W        W17886  16.735   3.833   2.331  0.0036 -0.0012  0.1467
 1703W        W17887  14.502  15.460  16.011  0.0476 -0.2399  0.0900
 1704W        W17888  14.183   0.159   3.300  0.3665  0.2171  0.2148
 1705W        W17889  11.512  14.496   1.473 -0.1622  0.2033  0.4064
 1706W        W17890   6.954  10.607   4.846 -0.1710  0.2161  0.0035
 1707W        W17891   0.708   8.365  12.136 -0.0636 -0.1370  0.1615
 1708W        W17892   3.506   9.669  13.529 -0.5639 -0.1684 -0.2661
 1709W        W17893   6.903   5.485  11.690  0.3678 -0.2253  0.0865
 1710W        W17894  17.300  17.774   1.923 -0.3910 -0.1595  0.0327
 1711W        W17895   7.114  12.732  12.095  0.1564 -0.2203 -0.2457
 1712W        W17896   8.893   1.524  12.207 -0.1226  0.2021  0.0956
 1713W        W17897  10.371   9.926   4.152  0.1633  0.1694 -0.0548
 1714W        W17898  11.535   9.081  13.343 -0.0743  0.0426  0.1438
 1715W        W17899   7.202  13.648   2.289 -0.1001  0.1665  0.1890
 1716W        W17900   9.125  15.529   0.422 -0.1556 -0.2022  0.0874
 1717W        W17901   1.689  12.444  13.108  0.1602  0.2186 -0.3659
 1718W        W17902   3.248  14.004   4.079 -0.2433 -0.4216 -0.2888
 1719W        W17903  17.848   8.548  15.363 -0.0225 -0.2925  0.4513
 1720W        W17904   6.363   2.045  13.792  0.0720 -0.2328 -0.1897
 1721W        W17905   1.186   3.949  14.199 -0.1318 -0.3352  0.0343
 1722W        W17906   0.680  12.264  11.690 -0.1578 -0.0027  0.2846
 1723W        W17907  12.694  11.027  12.456 -0.1055  0.1727 -0.1131
 1724W        W17908  10.644   7.169   4.434 -0.3199  0.1730  0.2247
 1725W        W17909   2.414   8.283   0.265  0.1606  0.0230  0.3609
 1726W        W17910   2.464   5.481  15.159  0.1395 -0.2205 -0.1271
 1727W        W17911  17.162   2.440  13.869  0.3405  0.2338  0.1723
 1728W        W17912  17.626   8.136  12.257  0.0637  0.0044 -0.0020
 1729W        W17913   9.399   2.652   3.738  0.0408 -0.3789 -0.1987
 1730W        W17914   5.771  12.256   4.072 -0.3766  0.0699  0.0229
 1731W        W17915  13.668   6.870   3.836  0.5150 -0.1417 -0.1091
 1732W        W17916  17.846  10.141   4.355 -0.0904  0.0397  0.1052
 1733W        W17917   8.928   7.821   0.721  0.1498 -0.0191  0.1406
 1734W        W17918   7.437   3.740   2.729  0.4396  0.1717 -0.0658
 1735W        W17919   1.070   8.771  14.874 -0.0947  0.0510  0.3327
 1736W        W17920   5.580  12.671   3.798  0.2570  0.0831  0.0377
 1737W        W17921  12.107  13.852  14.046  0.1198  0.0706  0.0301
 1738W        W17922   7.987  18.253   1.326  0.3784 -0.2578 -0.0003
 1739W        W17923  10.025  13.299   0.940 -0.2133 -0.1180  0.1249
 1740W        W17924  11.188  18.505  13.774  0.0459  0.5468 -0.0753
 1741W        W17925  10.230   2.862  11.296 -0.3914  0.0281  0.1561
 1742W        W17926   4.971   1.788   3.536  0.3666 -0.1880  0.0303
 1743W        W17927  12.250   2.300   3.358  0.0093 -0.2047 -0.0351
 1744W        W17928  17.158  17.359   5.693 -0.4977 -0.0269 -0.1137
 1745W        W17929  11.655  12.934   1.615 -0.2480 -0.0306 -0.1595
 1746W        W17930   5.967   9.682   3.283  0.0515 -0.0356 -0.1270
 1747W        W17931  17.334   3.975  13.749 -0.0466 -0.0663  0.0780
 1748W        W17932  16.585  18.371   1.737  0.0035  0.2200 -0.1230
 1749W        W17933   4.677   4.616   4.127 -0.0241 -0.4734 -0.1279
 1750W        W17934   7.581  12.002  13.309  0.0732  0.0551  0.2323
 1751W        W17935  16.494  12.256  14.761 -0.4612  0.1285  0.3094
 1752W        W17936   0.609  10.525   1.584 -0.1551 -0.2795  0.1630
 1753W        W17937  16.450  11.753   1.123  0.2481 -0.3010 -0.2346
 1754W        W17938   8.077  12.930   1.019  0.0659  0.0136  0.3187
 1755W        W17939   5.770  14.800   1.262  0.0768  0.2321  0.0150
 1756W        W17940  15.145   8.315  14.175 -0.0951 -0.3334  0.0520
 1757W        W17941  16.846  18.158  14.321 -0.1826  0.2801  0.2025
 1758W        W17942  16.335   1.061   2.227  0.3146  0.3338  0.0889
 1759W        W17943   2.848   0.711  13.176 -0.2603 -0.0464 -0.3332
 1760W        W17944   2.265   7.505   4.194 -0.2962  0.0314 -0.1054
 1761W        W17945  10.497  17.104   0.603 -0.0958 -0.0630 -0.3946
 1762W        W17946   2.704   3.730   0.346  0.1011  0.1170 -0.0214
 1763W        W17947  14.641   5.417  12.667  0.1697 -0.1053  0.0749
 1764W        W17948  13.715   0.089  12.516 -0.4275  0.0105 -0.2355
 1765W        W17949  12.904  12.029   0.764  0.2837 -0.0475  0.1147
 1766W        W17950   4.785   6.994  10.390 -0.0751  0.2069  0.1327
 1767W        W17951  14.322  14.211   4.232 -0.2479 -0.0498  0.0505
 1768W        W17952  13.863  13.496   3.720  0.0948  0.0382 -0.1658
 1769W        W17953   8.414  17.810   1.843  0.0813  0.1225 -0.0726
 1770W        W17954   9.606  12.780   3.844 -0.0997  0.0427 -0.3916
 1771W        W17955  12.978   6.962   3.551  0.0563  0.0094 -0.0854
 1772W        W17956  15.446  16.660   2.771 -0.2390 -0.0335 -0.2313
 1773W        W17957   8.924   4.037   0.701  0.2670  0.2142  0.0034
 1774W        W17958   4.115  17.865   4.444  0.0964  0.1997  0.2314
 1775W        W17959  15.745   5.574   1.179 -0.4634  0.1726  0.0699
 1776W        W17960  12.063   8.466   1.084  0.1175 -0.1320  0.3997
 1777W        W17961   7.290  16.642   0.858 -0.0913  0.2841 -0.2451
 1778W        W17962   2.325   0.434  14.593  0.0564 -0.1079  0.0120
 1779W        W17963   5.497  16.604   4.420  0.0352  0.0018  0.0946
 1780W        W17964   1.915  15.779  13.919 -0.0300  0.0409  0.1949
 1781W        W17965   7.416  10.131   1.225 -0.2560  0.0449  0.0054
 1782W        W17966   9.451   1.346  13.317 -0.3334  0.1901  0.0036
 1783W        W17967  16.452   9.395  14.967  0.1046 -0.0921 -0.0233
 1784W        W17968   7.135   9.474   0.501 -0.0158  0.0136 -0.1325
 1785W        W17969   7.244  16.779  14.372  0.0108  0.0087 -0.0079
 1786W        W17970   5.152   5.248   0.681 -0.0065  0.1403 -0.1325
 1787W        W17971  13.820   5.881   3.916 -0.0796 -0.0421  0.0351
 1788W        W17972   6.514   4.044   0.664 -0.0337  0.1456  0.1449
 1789W        W17973  15.524  12.071   2.168  0.1592  0.0353 -0.0059
 1790W        W17974  11.272   9.613   5.943  0.3044 -0.0965  0.0724
 1791W        W17975   6.767   4.250   2.344  0.1450  0.3657  0.0291
 1792W        W17976   4.463   0.553   2.548 -0.0348 -0.0563 -0.1063
 1793W        W17977   0.218  17.732   1.007 -0.1105 -0.1475  0.3252
 1794W        W17978   0.545  10.991  11.180 -0.1627  0.1796 -0.1646
 1795W        W17979   4.255  15.056   1.825 -0.1725 -0.1139  0.0045
 1796W        W17980   5.730  14.708   5.549 -0.0653  0.0387 -0.2768
 1797W        W17981  17.963   8.511  13.841  0.2575  0.1142 -0.0498
 1798W        W17982   6.107  14.881   4.404 -0.2330 -0.1329 -0.1094
 1799W        W17983  11.530  16.437   2.107  0.0412  0.2509  0.0423
 1800W        W17984   2.606   0.736   3.843 -0.3979 -0.2188 -0.1518
 1801W        W17985  18.291  16.156   3.735 -0.2860  0.2564  0.1127
 1802W        W17986   7.399  12.354   2.639 -0.0389  0.0170  0.1198
 1803W        W17987  18.053   5.974   1.409  0.2664 -0.2177  0.1445
 1804W        W17988  11.855  17.531   3.476 -0.2059  0.0659  0.2169
 1805W        W17989   8.623  15.613   0.500 -0.1333 -0.0769 -0.1382
 1806W        W17990   5.184   5.384  15.578 -0.1176 -0.2288  0.2135
 1807W        W17991   4.469  12.098   0.923 -0.2280  0.0857 -0.1355
 1808W        W17992   4.240  11.403  13.732 -0.0339  0.0801  0.1093
 1809W        W17993  11.640  15.590   5.142  0.1946  0.1057  0.3326
 1810W        W17994  12.874   7.235  15.746 -0.2071 -0.2958  0.1799
 1811W        W17995  17.196  14.042  13.826 -0.2124 -0.2861  0.1907
 1812W        W17996   8.032   5.524   5.514  0.0961 -0.1812 -0.2309
 1813W        W17997   1.913  12.570  15.702  0.0741 -0.0130 -0.1178
 1814W        W17998   8.275  17.461   3.131 -0.3164  0.1479  0.1017
 1815W        W17999   7.460  12.791   1.630  0.1773 -0.1796 -0.2836
 1816W        W18000   8.371   7.047   2.254  0.0103  0.3286  0.1570
 1817W        W18001  11.233  15.625   3.734 -0.2401  0.0919 -0.1416
 1818W        W18002  16.229  18.459  12.758  0.0165  0.0960  0.1480
 1819W        W18003   6.486   5.005  14.875  0.1349 -0.1836  0.2767
 1820W        W18004  10.283  11.317   4.636  0.2170  0.0282  0.1575
 1821W        W18005   4.543  13.619  15.962 -0.0618 -0.1438  0.1657
 1822W        W18006   8.729   0.035  13.035 -0.4832 -0.1405  0.1836
 1823W        W18007   1.992   6.217   2.585 -0.0603  0.0613 -0.1190
 1824W        W18008  14.482   9.053   0.972 -0.6953 -0.2211  0.2315
 1825W        W18009   4.446   4.150  10.911 -0.0961 -0.0657  0.1196
 1826W        W18010   4.304  16.543  13.037 -0.1769 -0.2015  0.0117
 1827W        W18011  16.983   7.992   0.046  0.1450 -0.1912 -0.3580
 1828W        W18012   6.108  15.007  15.280  0.1083  0.2337 -0.1159
 1829W        W18013   6.752  13.605  12.068 -0.0419  0.0717 -0.1619
 1830W        W18014  16.224   4.172   4.698  0.1453  0.2235 -0.0016
 1831W        W18015   6.770  15.622  14.235  0.0488 -0.0746  0.3135
 1832W        W18016   7.718  11.514  15.349 -0.0454 -0.0981 -0.1398
 1833W        W18017   8.474   3.052   0.411 -0.0707 -0.0293  0.0503
 1834W        W18018  14.126  14.903   4.614 -0.0595  0.1720  0.1241
 1835W        W18019   6.613  18.189  11.885 -0.0189  0.0159  0.0626
 1836W        W18020   2.865   9.959   5.006 -0.0620  0.2366  0.0311
 1837W        W18021  10.978  12.118   0.666 -0.0021  0.2777 -0.1343
 1838W        W18022   1.406   0.622  12.248  0.1421  0.0272 -0.3770
 1839W        W18023   2.893  10.511  11.949 -0.4301 -0.0619  0.1494
 1840W        W18024   7.851   0.942  12.310 -0.0404 -0.2355  0.1862
 1841W        W18025   1.708  12.046  13.824 -0.0976 -0.1465 -0.1308
 1842W        W18026   1.755   9.408  14.551  0.0534  0.1661  0.1677
 1843W        W18027  15.312   0.416  15.656 -0.1829  0.0474  0.0087
 1844W        W18028   7.553  16.585  13.222 -0.1137 -0.4433 -0.2398
 1845W        W18029   5.260   4.540   5.405 -0.2212 -0.1165 -0.5273
 1846W        W18030   7.250   8.330  11.687  0.0608  0.3597 -0.2850
 1847W        W18031   8.912   4.441  12.657 -0.2261 -0.4041 -0.0946
 1848W        W18032  10.245  10.811  11.885 -0.0504  0.2584  0.0064
 1849W        W18033  16.965   5.082   0.345  0.2349  0.0548  0.2131
 1850W        W18034  12.615   2.004  15.140  0.0835  0.1033 -0.0804
 1851W        W18035   1.279  15.116  13.172  0.1301  0.0471  0.2826
 1852W        W18036   7.658   8.349   4.105 -0.0367 -0.3407  0.2990
 1853W        W18037  14.776  15.472   3.929 -0.0578 -0.2633 -0.1510
 1854W        W18038   2.526  18.269   3.392  0.0390  0.2338  0.1710
 1855W        W18039  12.503   3.599   2.146 -0.1921  0.1880 -0.2968
 1856W        W18040   8.100   9.768   4.062 -0.1961  0.5014 -0.1922
 1857W        W18041  14.999  17.809   1.725 -0.0986 -0.3729 -0.3835
 1858W        W18042   4.403   9.622   2.521  0.2524  0.3144 -0.0437
 1859W        W18043  13.706   4.787   1.067 -0.0911 -0.1532  0.2490
 1860W        W18044  12.383   2.576  14.415  0.0565  0.0359  0.0433
 1861W        W18045   0.896   9.649   5.912  0.2419 -0.2387 -0.1136
 1862W        W18046   3.077  16.089  12.243 -0.2242  0.1349  0.0506
 1863W        W18047  12.704  10.963   0.752 -0.1951 -0.1259  0.1342
 1864W        W18048  13.354   3.690  15.437 -0.0143  0.2668  0.0914
 1865W        W18049   5.912   8.983   0.305 -0.3653  0.2455 -0.0869
 1866W        W18050   9.419   4.918   3.417 -0.1170 -0.2768 -0.2090
 1867W        W18051  17.419  11.915  16.129  0.1481 -0.1866 -0.1609
 1868W        W18052  15.836   5.736  11.296 -0.1494  0.0997 -0.0113
 1869W        W18053   9.925  14.135  13.917  0.1190  0.2939 -0.0137
 1870W        W18054  10.359   1.622   2.110  0.1832  0.0299  0.1815
 1871W        W18055   8.627  10.613   2.856  0.2255 -0.3021  0.3876
 1872W        W18056   4.370   1.049   2.254 -0.1932 -0.1009  0.1454
 1873W        W18057   7.937   3.059   0.208  0.2452 -0.1514  0.2476
 1874W        W18058  14.956  17.385   2.367  0.0524  0.0487  0.0841
 1875W        W18059   7.998  11.546   2.965  0.2163 -0.0096 -0.1625
 1876W        W18060   0.374  17.202   9.897  0.0027  0.2026 -0.1356
 1877W        W18061   3.863   3.913   4.797 -0.2173 -0.1749  0.0677
 1878W        W18062   5.851   2.314  11.257  0.0438  0.0133  0.4799
 1879W        W18063   6.917  17.441   0.915  0.1592  0.1493 -0.4390
 1880W        W18064   3.469  17.896  15.828 -0.0530 -0.3708  0.0482
 1881W        W18065   9.196   1.019   1.363  0.0788  0.1174  0.1294
 1882W        W18066   5.664   7.127  15.064  0.0327  0.1384  0.2920
 1883W        W18067   1.956   1.133   3.186 -0.3737  0.0196  0.0561
 1884W        W18068   4.648  16.376   1.045  0.2353  0.2100 -0.1643
 1885W        W18069  16.054   9.451  16.001 -0.0338 -0.2011 -0.4215
 1886W        W18070  10.771   4.613  14.969 -0.0955  0.0728 -0.3582
 1887W        W18071   9.770  16.998   2.657 -0.1936 -0.2363  0.0220
 1888W        W18072  12.062  10.848  11.273  0.0802  0.3636  0.1331
 1889W        W18073   4.925   7.800  14.726  0.1283  0.0229 -0.0530
 1890W        W18074  16.934   7.033   3.723  0.1647  0.2885  0.0008
 1891W        W18075  15.665  16.416   5.037  0.1642  0.0628 -0.0865
 1892W        W18076   4.040  10.693  14.297 -0.2577 -0.0212  0.2181
 1893W        W18077  13.315  12.254  13.476 -0.0483  0.1227  0.1704
 1894W        W18078   0.604  13.156  12.138 -0.0124 -0.2128 -0.0389
 1895W        W18079  14.011   8.154  12.045 -0.0051 -0.1214  0.2229
 1896W        W18080  14.413   6.579  13.270  0.0648 -0.1917  0.1547
 1897W        W18081  18.366   4.007   3.653  0.0041 -0.1342  0.1998
 1898W        W18082  17.367   1.490  11.873  0.0458 -0.0892  0.1152
 1899W        W18083  14.713  14.494   4.486 -0.1510  0.0522  0.0137
 1900W        W18084   0.009  13.804   0.440  0.2220 -0.1139  0.2777
 1901W        W18085  16.871   0.952  12.059 -0.1770 -0.2813  0.1660
 1902W        W18086  11.151  18.146   0.772  0.1776 -0.0836  0.0471
 1903W        W18087  17.575  14.808   5.643  0.0113  0.2341  0.0537
 1904W        W18088  14.936  10.264   4.366  0.1423 -0.0799  0.2457
 1905W        W18089   7.821  10.085   2.221  0.1145  0.1639  0.1336
 1906W        W18090  15.762   7.728   0.615  0.2953  0.0464  0.0075
 1907W        W18091  10.280  18.028   0.762  0.2383 -0.1540 -0.4278
 1908W        W18092   8.812   0.436   3.352 -0.1215 -0.1278 -0.0283
 1909W        W18093  12.934  10.158  12.596 -0.0198 -0.0308  0.1377
 1910W        W18094   0.735  11.272  12.058  0.0471 -0.2157  0.0171
 1911W        W18095  11.024  12.188   0.173  0.0765  0.0634  0.3006
 1912W        W18096  17.002  17.521  10.908  0.0643 -0.1599  0.0107
 1913W        W18097  10.541   7.541   1.157 -0.2990  0.2527 -0.2164
 1914W        W18098   0.404   4.136  13.521  0.1591 -0.3216  0.1010
 1915W        W18099   1.611  13.580  12.054 -0.0668  0.0561  0.4564
 1916W        W18100   7.833   4.505   0.194  0.0227  0.0775 -0.0145
 1917W        W18101  10.503  12.279  16.094 -0.1581 -0.0166  0.0717
 1918W        W18102  13.531   9.033   1.358 -0.1482 -0.0078  0.3037
 1919W        W18103   7.692  15.911  11.327  0.1014 -0.1880 -0.4851
 1920W        W18104   6.639   3.138   0.783 -0.2134 -0.0080 -0.2028
 1921W        W18105   8.868   7.498   1.731  0.1940  0.0247 -0.0609
 1922W        W18106  11.337   4.949  13.896 -0.0221  0.1014  0.3681
 1923W        W18107   0.238   7.840   0.397 -0.0467  0.0118  0.3101
 1924W        W18108   8.142  12.991  11.944  0.2859  0.1895 -0.0461
 1925W        W18109   6.919   0.466   1.807 -0.0097  0.0263  0.1491
 1926W        W18110  17.983   3.105   2.592  0.5339 -0.0323  0.0634
 1927W        W18111  13.561   4.524   3.572 -0.0568  0.1741 -0.0410
 1928W        W18112   3.817  17.166  13.363  0.4142  0.0225  0.3735
 1929W        W18113   6.514  10.243   0.786 -0.0010  0.1179 -0.2277
 1930W        W18114   7.605  10.434   0.867  0.1108  0.2078  0.1033
 1931W        W18115   4.442   3.267  11.221 -0.0548 -0.3927 -0.0160
 1932W        W18116  13.664  11.975   1.967 -0.3956  0.0141 -0.2313
 1933W        W18117  16.199   5.402  12.236  0.0579 -0.1105 -0.0137
 1934W        W18118   9.523  11.646  14.621 -0.0761 -0.0532 -0.0601
 1935W        W18119  18.002   6.611   2.127 -0.1104 -0.4493 -0.2369
 1936W        W18120   6.822  14.594   2.534 -0.0554 -0.4751 -0.2803
 1937W        W18121   3.970  12.173   5.561 -0.3728  0.0186 -0.0121
 1938W        W18122  12.414   9.694  11.431 -0.1254 -0.0592 -0.1323
 1939W        W18123   4.000   8.614   4.727  0.1499 -0.1007  0.0058
 1940W        W18124   4.961   0.255  13.041  0.2211 -0.1436 -0.0301
 1941W        W18125  12.992   2.769   2.653  0.0126  0.0326 -0.1209
 1942W        W18126  10.998   7.735  11.288  0.0228 -0.1273 -0.2414
 1943W        W18127   5.092   7.055   4.398 -0.1325  0.0610 -0.1045
 1944W        W18128  18.425   7.407   4.830 -0.1524 -0.1034 -0.0431
 1945W        W18129   5.850  11.559   3.975 -0.0472 -0.3864  0.0599
 1946W        W18130  11.169   4.595  13.167 -0.1754  0.4473 -0.0737
 1947W        W18131  17.639   1.482   5.161  0.4036 -0.2886 -0.3218
 1948W        W18132   7.121  16.393  13.899 -0.3114 -0.1861  0.0796
 1949W        W18133   1.981  14.931  12.414 -0.0775 -0.1445 -0.1417
 1950W        W18134   6.501   8.375  11.152 -0.1903  0.1681 -0.1735
 1951W        W18135   9.821  18.454   1.447  0.0353 -0.0686  0.1867
 1952W        W18136  16.283  14.906  11.869  0.3411  0.3094 -0.1569
 1953W        W18137   9.441  15.554   1.791  0.1034 -0.1815 -0.0654
 1954W        W18138   6.727  11.485  14.901  0.2473  0.2996 -0.2249
 1955W        W18139   8.458   3.865   2.468  0.3282  0.1092 -0.2255
 1956W        W18140  18.337   8.543  13.514 -0.0296  0.0438 -0.1036
 1957W        W18141  10.450  10.560   5.625 -0.0503  0.0478  0.1278
 1958W        W18142   9.094  13.258   0.577  0.1580  0.0198 -0.1673
 1959W        W18143   6.030   1.688   1.306 -0.1832 -0.0534  0.3231
 1960W        W18144  13.934   1.401  11.472 -0.2678 -0.1591 -0.1691
 1961W        W18145   0.968  17.362  11.857  0.2657 -0.2283 -0.1908
 1962W        W18146   4.874   6.396   0.540  0.1491  0.1179 -0.0253
 1963W        W18147  14.024   5.314  11.095  0.1734  0.2112 -0.4030
 1964W        W18148  12.265   5.598  13.632  0.1482 -0.2958  0.1779
 1965W        W18149   8.665   3.405   4.537  0.2291  0.3966  0.1809
 1966W        W18150   1.137   0.082   2.194 -0.0313  0.1959 -0.0463
 1967W        W18151  14.897   9.701   0.437 -0.2609  0.0362  0.1378
 1968W        W18152   8.050   6.021   3.861 -0.2349  0.3048  0.0817
 1969W        W18153   9.494  15.094  16.016  0.0119 -0.1128  0.0066
 1970W        W18154   6.794  15.258   5.705  0.4230  0.0730 -0.0403
 1971W        W18155  18.246   6.300  15.683 -0.3514  0.0623  0.3699
 1972W        W18156  17.853   6.791   3.045 -0.1486  0.3044  0.1469
 1973W        W18157   7.792   1.535   0.525  0.1864  0.0213  0.0576
 1974W        W18158   0.712   3.637  13.371 -0.1554 -0.0699  0.1353
 1975W        W18159   2.702  11.644   0.584  0.2513  0.0611 -0.0752
 1976W        W18160  11.078   2.488  12.578  0.0719 -0.0643 -0.0618
 1977W        W18161  13.916  12.062   6.241 -0.0149  0.2229  0.2525
 1978W        W18162  16.084   3.104  10.855 -0.0463  0.1548 -0.0137
 1979W        W18163   5.272   5.287   3.885  0.0480 -0.3280 -0.0842
 1980W        W18164   4.901   1.875   0.576  0.0626 -0.2346 -0.1422
 1981W        W18165   5.025  16.342  13.500  0.0139  0.1997 -0.1967
 1982W        W18166   7.615   7.729   2.982 -0.2108  0.1006  0.0792
 1983W        W18167  18.423   3.145   0.769 -0.2992 -0.0064  0.3307
 1984W        W18168   7.918   1.810  12.229  0.1681  0.5707 -0.0431
 1985W        W18169  18.401  17.353   0.831  0.0584  0.0028  0.0715
 1986W        W18170  13.218   6.089  16.047  0.2035  0.1811 -0.3513
 1987W        W18171   9.701   0.133   0.963  0.3141 -0.3776  0.1836
 1988W        W18172  10.079   7.636  15.375 -0.0928 -0.0663 -0.1581
 1989W        W18173   6.341   5.931  12.893 -0.0204  0.0687 -0.1337
 1990W        W18174  10.007  17.517   0.799  0.2369 -0.1611 -0.4504
 1991W        W18175  11.229  16.045   5.873 -0.0221  0.1508 -0.2796
 1992W        W18176   2.846  10.853   3.331  0.2955  0.0470 -0.3961
 1993W        W18177  12.743   4.925  14.853 -0.0223  0.0454 -0.1365
 1994W        W18178  18.278  14.270   2.528 -0.1275 -0.0333  0.2084
 1995W        W18179   3.938   0.825   5.361 -0.1798 -0.2657 -0.1945
 1996W        W18180  14.065  14.743  14.264  0.2902 -0.2264 -0.0806
 1997W        W18181   7.783   5.078  13.041 -0.1836  0.1690  0.1165
 1998W        W18182   6.743  16.520  13.514 -0.2672 -0.3418  0.3169
 1999W        W18183   3.985  18.053  15.800  0.0094  0.2134  0.0517
 2000W        W18184   7.717   9.841  15.916  0.0299  0.3554  0.1442
 2001W        W18185   6.213   8.103   1.998 -0.0829  0.0053 -0.1932
 2002W        W18186  10.797   4.618   1.504 -0.1411 -0.1227  0.0946
 2003W        W18187   1.980  13.903  11.349 -0.2302 -0.2255  0.3830
 2004W        W18188   4.652   6.403   1.664  0.0981  0.0328  0.1202
 2005W        W18189  12.744   9.044  13.115  0.1631  0.1063  0.1993
 2006W        W18190  12.562   0.010  12.156 -0.3299 -0.0381  0.0236
 2007W        W18191  11.436  11.217  14.229  0.0885  0.3228  0.2230
 2008W        W18192  14.259   3.529   5.431  0.2041 -0.0488  0.0431
 2009W        W18193  11.667   8.724   5.088  0.0318 -0.2770 -0.2154
 2010W        W18194   2.156   5.711   1.138  0.0015 -0.3378 -0.0542
 2011W        W18195   6.156   9.225   3.583  0.1193 -0.2166 -0.0161
 2012W        W18196   7.509  12.323   5.064  0.1256  0.3839 -0.2902
 2013W        W18197   6.799  15.972  12.023 -0.1069  0.0574 -0.3260
 2014W        W18198   3.805  17.973   3.088  0.0483  0.3055 -0.1321
 2015W        W18199  15.703  13.828  16.145  0.2789 -0.0250  0.1706
 2016W        W18200  10.774  13.991  15.297 -0.0624 -0.1531  0.0290
 2017W        W18201   6.089  15.941  15.561 -0.2431  0.1531 -0.3837
 2018W        W18202   3.588  11.912   5.818  0.0517 -0.1143 -0.0273
 2019W        W18203  12.132   2.898  12.822  0.1281 -0.0835  0.0534
 2020W        W18204   0.916  14.517  11.340  0.3887 -0.1872  0.1930
 2021W        W18205   4.279   4.588  10.674 -0.1867  0.0634 -0.0965
 2022W        W18206   5.106  10.373   2.007  0.0410  0.0348  0.2589
 2023W        W18207  16.884  12.517   5.239 -0.0666  0.0916 -0.1403
 2024W        W18208   1.349   6.882   4.170  0.2242  0.0996  0.5638
 2025W        W18209  11.696   7.423   2.064  0.0448  0.0840 -0.0814
 2026W        W18210  14.592   2.720   0.351 -0.0225 -0.0756 -0.1548
 2027W        W18211   7.339   2.105   1.027 -0.0702  0.1720  0.2701
 2028W        W18212   2.369  15.316   3.662  0.0662  0.0478  0.0902
 2029W        W18213   1.724  16.872   2.592  0.0583 -0.0722 -0.2210
 2030W        W18214  12.152   3.536  15.976 -0.0359  0.1396  0.1712
 2031W        W18215   1.259  10.893  13.667 -0.2806  0.1728 -0.0939
 2032W        W18216   5.788   7.579  14.254 -0.0501 -0.1345  0.2016
 2033W        W18217   2.824  17.665  11.633 -0.1890 -0.2860  0.5486
 2034W        W18218   1.099   4.823  12.699 -0.4617 -0.1467  0.3136
 2035W        W18219  14.547  16.210  11.490 -0.1134 -0.1865 -0.1982
 2036W        W18220   5.744  18.514   3.305 -0.0276  0.0221  0.1408
 2037W        W18221   8.355  18.287   1.648 -0.0537  0.0146  0.1702
 2038W        W18222  17.375   4.288  15.618  0.0786  0.1174 -0.4210
 2039W        W18223   8.317   1.259  13.981  0.0739 -0.0283 -0.0001
 2040W        W18224   5.944  12.690  15.226 -0.1023 -0.1063  0.1080
 2041W        W18225   0.299   0.658   2.393  0.3685 -0.1201 -0.1207
 2042W        W18226   9.941  17.530   3.546 -0.0597  0.0107  0.0382
 2043W        W18227  11.435  12.512   4.247 -0.3926  0.1115 -0.0667
 2044W        W18228   7.993  15.325   5.018  0.1510  0.1370 -0.2242
 2045W        W18229  16.939  15.395   3.395  0.0188  0.1153  0.0124
 2046W        W18230   4.103   3.847  14.074 -0.1802 -0.1596 -0.0668
 2047W        W18231   5.978  15.708   1.245  0.4480 -0.0856 -0.0939
 2048W        W18232   5.154   7.815   3.344 -0.2886 -0.0274 -0.2187
 2049W        W18233   0.259   8.042   0.920  0.0922  0.2889  0.0729
 2050W        W18234  11.696   5.625  16.073 -0.0175 -0.0171  0.1795
 2051W        W18235  13.419  13.197   4.523 -0.0723  0.3116 -0.0999
 2052W        W18236  15.844   3.384  12.459  0.2633 -0.0224  0.0294
 2053W        W18237   2.265   5.383   2.739  0.4119 -0.0537 -0.0644
 2054W        W18238   5.952   6.046   4.056  0.5489  0.2215 -0.2426
 2055W        W18239   0.951  17.991  13.269 -0.0978 -0.0016 -0.2842
 2056W        W18240   6.115  16.298   4.916  0.0402  0.1156  0.0552
 2057W        W18241   1.578  11.238   1.085  0.2733 -0.0237 -0.0435
 2058W        W18242  14.375   7.648   1.045 -0.4919  0.1217  0.0319
 2059W        W18243   1.285   9.832   4.922  0.1317  0.0021  0.0489
 2060W        W18244   7.336   0.797  11.112 -0.1825 -0.1882  0.0275
 2061W        W18245   3.761  11.346   5.506 -0.2003  0.0621 -0.1103
 2062W        W18246   4.265   9.114  15.547  0.3700 -0.5865 -0.1457
 2063W        W18247   0.889  17.873   3.139  0.0890 -0.0361  0.0104
 2064W        W18248  14.628  13.592  16.026 -0.1920  0.1959  0.2276
 2065W        W18249   5.061  10.484   4.330  0.2859 -0.0190 -0.3126
 2066W        W18250  11.287  13.814  15.489  0.0773  0.0666  0.2265
 2067W        W18251  16.689  13.318  13.362  0.3686  0.0838  0.2195
 2068W        W18252   2.794  14.557   0.926  0.0402  0.0209  0.0881
 2069W        W18253   8.935  10.550  13.291 -0.0971  0.0127  0.0765
 2070W        W18254   7.691   5.485  13.229  0.2750 -0.1562 -0.0261
 2071W        W18255   1.124  13.213  15.671 -0.0507  0.3966  0.3281
 2072W        W18256   7.200  15.611   0.517  0.0444  0.1640  0.0050
 2073W        W18257  18.174   6.749  14.177  0.1635  0.2666 -0.0623
 2074W        W18258  15.206  12.991  14.373 -0.2101  0.0239  0.3955
 2075W        W18259   8.978   3.099  11.279  0.1081 -0.3436 -0.1656
 2076W        W18260   5.242   8.395   3.586 -0.1283 -0.1726  0.0746
 2077W        W18261  12.672  14.292  12.367 -0.0787 -0.1426  0.0222
 2078W        W18262   0.446  11.188  14.808 -0.1513  0.0744  0.2698
 2079W        W18263   0.347   9.346   4.793 -0.4978 -0.1171  0.1739
 2080W        W18264  14.668  11.662  13.812  0.0331 -0.0689 -0.2387
 2081W        W18265   9.565  10.359   1.179 -0.0312 -0.1583 -0.2401
 2082W        W18266  17.631   7.000  15.371 -0.2092 -0.2324  0.0243
 2083W        W18267  11.281   7.482   2.665 -0.0606 -0.0271 -0.2683
 2084W        W18268  18.116   3.155   4.087 -0.1117  0.3614  0.0942
 2085W        W18269   1.523   2.565  13.287 -0.1137 -0.2543 -0.4002
 2086W        W18270   6.581  12.449  13.399 -0.0051 -0.1674 -0.3878
 2087W        W18271   3.929   4.037  15.239  0.0793 -0.0405  0.2050
 2088W        W18272  16.039  11.943  12.027  0.0356  0.1006 -0.0427
 2089W        W18273   4.585   3.540  13.245  0.4101 -0.1672  0.0949
 2090W        W18274   3.765  18.481   1.130  0.2171  0.2384 -0.0332
 2091W        W18275  11.575  16.478  12.258 -0.1975 -0.2854 -0.1915
 2092W        W18276  10.752   1.170   6.089 -0.0467  0.2717 -0.2066
 2093W        W18277   9.385   3.070  12.183  0.1269  0.1700  0.0992
 2094W        W18278   6.863   8.343   1.092  0.0319  0.6500 -0.0930
 2095W        W18279   3.962  12.193   1.135 -0.0188  0.3680 -0.0128
 2096W        W18280   0.590   9.793   0.837 -0.3377  0.0375  0.0187
 2097W        W18281  14.682  14.268   5.205 -0.2875  0.1290  0.2391
 2098W        W18282  17.650   9.934   3.917  0.1032 -0.1538 -0.0901
 2099W        W18283  16.275   7.593   2.854 -0.0073  0.1347 -0.1202
 2100W        W18284   4.518  17.449  13.057  0.0762 -0.0109 -0.2547
 2101W        W18285  17.903   1.511  13.068 -0.1274  0.0972  0.1303
 2102W        W18286   4.680  11.524   2.596 -0.3649 -0.1584  0.3808
 2103W        W18287   8.490   4.233   5.300  0.0590  0.1471  0.6628
 2104W        W18288  14.620  10.865  15.069  0.0403  0.1453 -0.1558
 2105W        W18289  18.161   4.134   2.387 -0.1977  0.1513  0.0827
 2106W        W18290  14.287  13.617  10.736  0.1748 -0.2689  0.3781
 2107W        W18291   9.666   5.581   3.008 -0.3375 -0.0803 -0.1873
 2108W        W18292   9.060  11.017   5.126 -0.0103  0.0640 -0.0202
 2109W        W18293   8.443   6.309   4.197  0.3370  0.1398 -0.4357
 2110W        W18294  18.018  15.619   1.254 -0.3888  0.0228  0.1517
 2111W        W18295   3.682   6.670  15.528  0.0163  0.2850 -0.0743
 2112W        W18296   2.016   1.022   0.960  0.0512 -0.0853  0.1806
 2113W        W18297   2.976  12.101  14.505 -0.3504 -0.1181  0.1355
 2114W        W18298   9.484   9.209   2.728 -0.1567 -0.1924 -0.0349
 2115W        W18299  13.365  14.477   0.269  0.0596 -0.1171  0.0201
 2116W        W18300  16.922   2.704   4.391  0.1207  0.1179  0.1988
 2117W        W18301  14.683   8.730   3.081 -0.1115  0.0314  0.0278
 2118W        W18302  15.568  15.495   5.285 -0.0235  0.2432  0.0560
 2119W        W18303   3.316   7.495   2.448 -0.0882 -0.0821 -0.2682
 2120W        W18304   0.315   5.366   3.793  0.4489 -0.2032  0.1750
 2121W        W18305   3.055  16.388   5.885  0.0473 -0.2189 -0.3066
 2122W        W18306   2.909  12.202   0.851  0.1843 -0.0504  0.3585
 2123W        W18307  17.688   4.056  11.712 -0.2009  0.2835  0.1553
 2124W        W18308  10.680  18.026  15.086 -0.1711 -0.0268  0.0816
 2125W        W18309  18.102   8.679  15.825  0.1780  0.0262 -0.0355
 2126W        W18310  12.031   9.522  12.896 -0.0216  0.0229  0.1152
 2127W        W18311  16.933   7.098   4.226  0.0338  0.0611  0.1404
 2128W        W18312   0.515   9.272  12.877  0.2188 -0.0535 -0.1839
 2129W        W18313  14.665  16.791  12.976  0.0864 -0.1317 -0.0531
 2130W        W18314   0.255  14.403  11.632 -0.0635 -0.0226  0.1129
 2131W        W18315  15.369   6.445   2.186 -0.5473  0.0550 -0.2450
 2132W        W18316   2.694   0.849  12.227 -0.2548  0.0367 -0.3646
 2133W        W18317  12.732   6.082   3.479  0.0505 -0.0443 -0.0576
 2134W        W18318  17.908   2.069   3.060 -0.3044  0.1379 -0.0603
 2135W        W18319   8.740  10.175   5.937  0.0938  0.2193 -0.1227
 2136W        W18320  17.319   0.505  15.484 -0.1148  0.2895  0.0544
 2137W        W18321   6.475   0.307   3.917  0.0179 -0.1805  0.2413
 2138W        W18322  13.481  14.444   1.658  0.1986 -0.0512 -0.0134
 2139W        W18323   0.288  17.857  14.133  0.1300 -0.0074  0.0891
 2140W        W18324   2.365  11.144   1.563  0.1779 -0.0476  0.0772
 2141W        W18325  13.324  14.412   4.696  0.0245  0.1013  0.1157
 2142W        W18326  10.700  14.504   0.988 -0.0288 -0.0340  0.1488
 2143W        W18327   4.687  11.784  14.465 -0.2134  0.1070  0.1428
 2144W        W18328   8.049  11.339   4.723 -0.1583 -0.2573 -0.0927
 2145W        W18329  10.981  10.153   1.939 -0.0363 -0.0413 -0.0919
 2146W        W18330   3.692   5.590  11.167  0.0210  0.5062  0.0058
 2147W        W18331  13.166  18.394   3.406 -0.0099  0.4007  0.2497
 2148W        W18332   8.849  11.449   5.164 -0.0349 -0.0480 -0.1724
 2149W        W18333  12.049  13.273   3.382 -0.1233  0.0360  0.0646
 2150W        W18334  11.429   6.698   3.397  0.0331  0.1511  0.2695
 2151W        W18335  15.739  13.860   5.024 -0.0092  0.1278  0.0643
 2152W        W18336  15.045   5.437  13.230  0.1843  0.0469 -0.0671
 2153W        W18337   0.342   6.534  12.491 -0.4617  0.2721 -0.1296
 2154W        W18338   7.529   2.784  11.845  0.0301 -0.1243  0.1023
 2155W        W18339  13.641  17.508   2.539  0.0396  0.1410 -0.1820
 2156W        W18340   9.415   8.714  13.538 -0.0557 -0.2665 -0.0342
 2157W        W18341  11.618   6.755  15.183  0.2469 -0.2251  0.2950
 2158W        W18342   0.531   2.858   0.545 -0.3676 -0.0287 -0.1978
 2159W        W18343  18.519   9.236   2.946 -0.1561  0.1347 -0.2776
 2160W        W18344   9.854   7.275  15.006  0.2946  0.0342  0.0166
 2161W        W18345   7.277   0.660   3.674 -0.0694 -0.2767 -0.1718
 2162W        W18346  16.245   9.929  13.184  0.1962 -0.0708  0.0878
 2163W        W18347  14.130   7.653  16.144 -0.0408  0.5861  0.3340
 2164W        W18348   7.240  18.240  13.965 -0.0398  0.2925  0.0956
 2165W        W18349  10.557  15.946  11.518  0.2210  0.2243  0.2094
 2166W        W18350  12.380  17.517   0.118 -0.2712 -0.0799  0.1501
 2167W        W18351  13.227  16.040  12.560  0.0322  0.3657 -0.0380
 2168W        W18352   1.941  15.564  11.582 -0.0963 -0.0224  0.0853
 2169W        W18353  12.944  12.842   1.323  0.0751 -0.0893  0.3802
 2170W        W18354   1.419   1.078  15.760 -0.0782 -0.3682  0.3443
 2171W        W18355   1.581  16.074  11.899 -0.1208 -0.4662 -0.2025
 2172W        W18356  15.917   8.753  12.840  0.3023  0.0150  0.1021
 2173W        W18357  10.426  18.082   4.103 -0.0301  0.2145  0.0146
 2174W        W18358  12.809  15.950  15.109  0.1446 -0.2291 -0.0823
 2175W        W18359  17.470   4.574  11.476 -0.2143 -0.0186 -0.1662
 2176W        W18360  18.264   1.225  15.280 -0.0847 -0.0408  0.2337
 2177W        W18361   2.028  15.523   2.503  0.0149  0.1730  0.2459
 2178W        W18362  13.157  10.927  12.214  0.3061  0.0265  0.4112
 2179W        W18363  15.249  14.636  13.753 -0.0496 -0.0909 -0.0366
 2180W        W18364   4.132   6.057   2.247  0.0255  0.0834 -0.3299
 2181W        W18365   7.788   5.018  12.536  0.0359 -0.1151  0.3004
 2182W        W18366  14.029  15.735   0.068  0.2178 -0.1831  0.3738
 2183W        W18367  15.162   2.166   3.502  0.0834  0.1289  0.0634
 2184W        W18368  11.147   3.063  16.132  0.0652  0.1051  0.2280
 2185W        W18369   4.015   5.397  14.269 -0.2208  0.3316  0.3258
 2186W        W18370   8.404  13.001   5.145  0.1068  0.2206  0.0632
 2187W        W18371   1.699   9.462  13.989  0.0114 -0.3379 -0.1933
 2188W        W18372  10.477  15.929   2.664  0.2432 -0.3496  0.1132
 2189W        W18373   3.015  12.622  11.314  0.2863  0.0023  0.0525
 2190W        W18374  18.339   7.497   0.281 -0.4862 -0.0785  0.0035
 2191W        W18375   9.617   4.054  14.912 -0.3182 -0.0304 -0.0537
 2192W        W18376   8.254   4.551   0.642  0.1507 -0.0994 -0.0166
 2193W        W18377   2.743   5.422   4.831  0.0736 -0.0110  0.1089
 2194W        W18378   9.052   1.740  13.192  0.0111  0.3075 -0.1540
 2195W        W18379  17.566   2.660  14.067 -0.0591 -0.2233 -0.0332
 2196W        W18380   9.155   8.265  14.543  0.1645 -0.2823 -0.2687
 2197W        W18381   5.198  16.443   3.093 -0.1101 -0.3915 -0.1920
 2198W        W18382  16.020   9.171  14.094 -0.1205 -0.1776 -0.3251
 2199W        W18383  14.923   6.401  15.203  0.0975 -0.0805 -0.2217
 2200W        W18384  14.344   8.417   3.365 -0.0219  0.0665 -0.0489
 2201W        W18385   5.623   7.190   0.765 -0.1358  0.0281  0.1084
 2202W        W18386   7.432  15.562  11.748 -0.3043  0.2191  0.0681
 2203W        W18387  16.972   5.307  11.659  0.0319  0.0674  0.0756
 2204W        W18388  11.456   8.845   4.596  0.1659 -0.1556  0.1412
 2205W        W18389  12.627  13.085   1.005  0.2347 -0.2294 -0.2069
 2206W        W18390   4.738   8.029   4.298 -0.2092 -0.1139 -0.1241
 2207W        W18391   8.157   4.934  15.550  0.0922  0.2266 -0.0314
 2208W        W18392  12.455   4.873  11.508  0.0364 -0.1499  0.0512
 2209W        W18393   8.461   8.102   4.682  0.1431 -0.0296 -0.2034
 2210W        W18394  11.228   4.266  12.151  0.1709 -0.0967 -0.0074
 2211W        W18395  11.021   6.349   2.567 -0.0755 -0.2252 -0.2655
 2212W        W18396   2.724   0.968  11.706 -0.3121 -0.1952 -0.1560
 2213W        W18397  13.784  13.523  13.203 -0.0508 -0.1378 -0.0986
 2214W        W18398   6.189   2.881   0.820  0.1573 -0.1702 -0.2303
 2215W        W18399   9.637   9.519   2.311  0.0758 -0.4271  0.1086
 2216W        W18400   2.329  16.211  10.840  0.0376 -0.0011 -0.0386
 2217W        W18401   8.166  12.549   4.499  0.2308 -0.1398  0.1729
 2218W        W18402  16.812   6.311   1.882 -0.0011  0.1117  0.2180
 2219W        W18403  13.766   6.303  11.367 -0.1010 -0.0709 -0.0907
 2220W        W18404   2.413  17.335   4.438 -0.1483  0.1656  0.2180
 2221W        W18405   2.229  13.768   3.120  0.4536 -0.0099 -0.3549
 2222W        W18406  10.223  13.355  11.950 -0.1572 -0.0297 -0.0745
 2223W        W18407   2.117   1.304  12.530  0.0346  0.0276 -0.4458
 2224W        W18408  16.055   6.601  14.064 -0.1401 -0.0706  0.0138
 2225W        W18409  13.189   6.199   5.133  0.0546  0.1274 -0.1593
 2226W        W18410  11.073   5.017   4.768 -0.3724 -0.2457  0.4814
 2227W        W18411  15.944   0.086   5.064  0.0860 -0.2629  0.2270
 2228W        W18412   9.384   0.580  15.079 -0.0265 -0.1330 -0.0013
 2229W        W18413  10.416  14.276  11.216 -0.1087  0.2572 -0.1260
 2230W        W18414  13.797  15.847   4.530 -0.0757  0.1004 -0.4420
 2231W        W18415  11.172   9.425   3.808  0.0526  0.0401  0.1465
 2232W        W18416  17.777   3.448  15.232  0.0310  0.0995  0.2577
 2233W        W18417  17.704   4.665  14.757 -0.0555  0.0185 -0.0105
 2234W        W18418   9.961   9.750  13.915 -0.0331 -0.0690  0.0105
 2235W        W18419  16.544   8.305  13.555  0.0976 -0.0668 -0.2458
 2236W        W18420   7.781  12.416  14.324  0.0579  0.1355 -0.2961
 2237W        W18421  12.756   1.110  16.114 -0.1406 -0.2985 -0.0644
 2238W        W18422   5.546  13.722  12.336  0.0263 -0.5893 -0.1827
 2239W        W18423  10.668   2.678  12.349  0.1177 -0.2675 -0.1615
 2240W        W18424   4.047  18.511   0.040  0.2397 -0.0956  0.0549
 2241W        W18425   8.664   6.472  14.489 -0.2786  0.1316 -0.3126
 2242W        W18426  18.458   4.156   0.732  0.2256  0.1556  0.0643
 2243W        W18427   3.978  11.978  12.929 -0.4375 -0.3595 -0.0353
 2244W        W18428   2.426  16.243   5.276 -0.1277 -0.3436 -0.4495
 2245W        W18429   0.813  12.916   2.998  0.1201  0.0825  0.1704
 2246W        W18430  15.447   0.646   5.031  0.3719 -0.0428 -0.1944
 2247W        W18431   7.326   6.940  15.340  0.3597  0.2785 -0.0830
 2248W        W18432   6.888   0.588  11.931  0.0668 -0.2571 -0.0072
 2249W        W18433  13.920  14.969  10.559 -0.1629 -0.2179  0.1468
 2250W        W18434   7.439  14.244   0.151 -0.0256  0.1536  0.4868
 2251W        W18435   6.658   9.217   3.604 -0.3046 -0.1505  0.2513
 2252W        W18436  17.027   6.642   4.107  0.1645  0.2957  0.0220
 2253W        W18437   5.754   9.531  12.219  0.0041 -0.3514  0.2913
 2254W        W18438   9.542   1.858   1.459  0.4580 -0.0253 -0.1816
 2255W        W18439   2.061  10.268   3.826  0.1317  0.0963  0.0173
 2256W        W18440   3.632  18.433  13.359 -0.1506  0.0251  0.4211
 2257W        W18441   6.520   4.546   6.088 -0.6655 -0.1410 -0.0890
 2258W        W18442   5.989   0.261   4.011  0.0728 -0.6097  0.1850
 2259W        W18443  15.281  13.595   0.076  0.3372 -0.0640 -0.1730
 2260W        W18444  14.215   6.299   2.822  0.1548  0.2004 -0.3557
 2261W        W18445  11.105  16.675  15.104 -0.0169  0.3145  0.0483
 2262W        W18446  17.007   6.938  14.010 -0.1332  0.2230  0.1129
 2263W        W18447  16.357   8.040   4.411 -0.1768  0.1300  0.1329
 2264W        W18448  14.248   0.622  15.731  0.0197  0.0545  0.5826
 2265W        W18449  16.895   3.946  15.196  0.0437  0.3686 -0.0984
 2266W        W18450  11.179   3.465   0.892 -0.0454 -0.0988  0.0786
 2267W        W18451  13.843   8.608   1.621  0.1457  0.6815  0.2304
 2268W        W18452  16.736   9.174   0.095  0.3810 -0.0676 -0.3420
 2269W        W18453   8.899  11.077  12.942  0.1041 -0.0558  0.0233
 2270W        W18454  18.085   7.112  14.524 -0.0344 -0.0864 -0.2230
 2271W        W18455  14.670  11.959  12.095  0.1583  0.1455  0.1826
 2272W        W18456   6.457  15.150  12.685 -0.3112 -0.1908  0.4129
 2273W        W18457  12.357  10.594  12.569 -0.0338 -0.0535 -0.2751
 2274W        W18458   4.901  17.714  12.820  0.1688 -0.0483 -0.2260
 2275W        W18459   9.499   9.325  15.016 -0.2941 -0.1889  0.2090
 2276W        W18460   1.800   4.349   1.887 -0.0579 -0.1618  0.0158
 2277W        W18461  16.457  11.322  13.232 -0.2581  0.0709 -0.0220
 2278W        W18462  16.434   8.572  13.008  0.0298 -0.0443  0.1774
 2279W        W18463  11.486   7.988  11.590  0.0697  0.0069  0.1663
 2280W        W18464  10.816  10.462  14.492 -0.0643 -0.3624  0.0615
 2281W        W18465   3.732   5.844   2.511  0.3820  0.2268  0.0226
 2282W        W18466   8.994  10.482   4.008  0.1340  0.1248 -0.0453
 2283W        W18467  16.071   3.748   5.241 -0.0924  0.0678 -0.2791
 2284W        W18468   7.428  10.199  12.239  0.3105  0.3272 -0.2310
 2285W        W18469  14.140  15.680  12.762 -0.2237 -0.2319 -0.1564
 2286W        W18470   8.425   5.772   4.079 -0.2274 -0.1393 -0.0690
 2287W        W18471   5.690   9.121   6.131  0.0374 -0.2985  0.0411
 2288W        W18472  11.599   9.713   0.405 -0.0657  0.0105 -0.1266
 2289W        W18473   6.035  11.181  15.866  0.1954  0.4104  0.2257
 2290W        W18474   9.295  17.044   5.787 -0.1906  0.0548 -0.0772
 2291W        W18475  16.297   3.494   0.351 -0.0735 -0.1517  0.0219
 2292W        W18476   1.059   6.231  12.127 -0.4784  0.2825 -0.0004
 2293W        W18477  13.552   8.608  15.497  0.2832 -0.3473 -0.4320
 2294W        W18478   8.790  17.044   3.562  0.1816  0.2647 -0.2277
 2295W        W18479  12.611  10.115   2.273  0.1861 -0.7183  0.1211
 2296W        W18480   4.372  18.382  15.637  0.2015  0.1152  0.0090
 2297W        W18481   4.859   7.188  13.184 -0.1534  0.0841 -0.0720
 2298W        W18482   5.437   2.035  12.831  0.2594 -0.2844  0.0267
 2299W        W18483  18.461   9.252  12.908  0.0584  0.4578 -0.0982
 2300W        W18484  18.416   0.702  13.940  0.0880 -0.2182 -0.0555
 2301W        W18485  10.123  10.166  15.953  0.4228 -0.0852  0.1021
 2302W        W18486   1.908   7.389  12.226  0.0528  0.1559  0.2594
 2303W        W18487   2.864   7.038  10.979 -0.2244  0.1105  0.1856
 2304W        W18488   1.754   6.274  16.034 -0.3438  0.0667 -0.0037
 2305W        W18489   9.876  15.051   1.487 -0.3269 -0.2835  0.1725
 2306W        W18490   8.725   0.509   4.771 -0.0178  0.1745  0.0711
 2307W        W18491  15.150   2.776  14.878  0.1008 -0.3810 -0.0122
 2308W        W18492  15.778   5.109  14.415  0.2740 -0.1185  0.0851
 2309W        W18493  15.722   9.815   1.740 -0.0436  0.1834  0.0320
 2310W        W18494   2.181   4.775   4.235 -0.1238 -0.1540 -0.1411
 2311W        W18495   4.897  16.367   3.876 -0.1057 -0.0290  0.1780
 2312W        W18496   3.650  15.277  14.480  0.0264 -0.1443  0.2466
 2313W        W18497   0.098  15.018  12.386  0.1788 -0.1888  0.0784
 2314W        W18498  13.650   1.236  16.113  0.0041  0.0622  0.1740
 2315W        W18499  11.961   9.114   4.611  0.1442  0.0462  0.0884
 2316W        W18500  11.594  13.437  14.716  0.1853 -0.1594  0.1881
 2317W        W18501   7.224   4.205   0.027 -0.1600 -0.0259  0.1466
 2318W        W18502  14.959  14.148  13.974  0.0454 -0.0609 -0.0537
 2319W        W18503   5.211   0.213  14.607 -0.0136 -0.0202 -0.0228
 2320W        W18504   4.523   5.844   2.466  0.0547  0.0210 -0.0132
 2321W        W18505   6.825   0.852  12.789 -0.1335 -0.1596  0.1972
 2322W        W18506  15.212  18.000   4.962  0.2156 -0.0802 -0.2002
 2323W        W18507  12.346  17.560  14.569  0.6314  0.0436  0.1307
 2324W        W18508  11.263   6.090  16.016 -0.0235 -0.2839 -0.2021
 2325W        W18509   3.079  12.088   4.007 -0.2317 -0.3688 -0.3803
 2326W        W18510   8.547  14.024  12.386  0.1484 -0.1530  0.0069
 2327W        W18511  11.996  13.136   4.751 -0.0167 -0.2324 -0.1695
 2328W        W18512  12.807   8.987  15.479 -0.0360  0.2109  0.2552
 2329W        W18513  14.106   1.159  15.712 -0.0002  0.0491 -0.2491
 2330W        W18514   6.162  14.907  11.619 -0.4816 -0.2637  0.2699
 2331W        W18515  11.292  13.489  15.869  0.5348 -0.0047  0.0088
 2332W        W18516  18.337   4.335   4.610 -0.0382 -0.4431  0.1464
 2333W        W18517   9.549  10.951  15.519  0.1384 -0.1496  0.1766
 2334W        W18518   7.946  18.110  15.777 -0.1488  0.2361 -0.1582
 2335W        W18519   6.580   1.285  12.408 -0.1144 -0.0832  0.2212
 2336W        W18520   0.258   3.615  16.099 -0.2909  0.2038 -0.2164
 2337W        W18521   0.249   0.225  11.580  0.1826 -0.0367  0.0058
 2338W        W18522   4.647  15.152   4.694  0.1769 -0.5023  0.0215
 2339W        W18523   6.506  15.600  12.983  0.0810  0.0720  0.1872
 2340W        W18524   2.209   3.868   1.850 -0.1691 -0.1106  0.3236
 2341W        W18525   1.113  16.504   3.699  0.1917  0.1957  0.0822
 2342W        W18526  17.347   3.544  13.544 -0.0251  0.0755  0.0354
 2343W        W18527   5.063   2.882   0.914  0.0998  0.3224 -0.1043
 2344W        W18528  14.999  11.246  13.105  0.1258  0.1124  0.0102
 2345W        W18529   8.356   4.060   1.946 -0.0225 -0.4270 -0.2834
 2346W        W18530  10.971  10.273  15.579 -0.3435  0.2989 -0.1433
 2347W        W18531  14.625  15.602   3.523  0.2410 -0.1602 -0.4235
 2348W        W18532  13.375  14.448  13.628  0.0201  0.2539  0.2479
 2349W        W18533  12.273  11.941  12.780 -0.0804  0.0446  0.1085
 2350W        W18534  12.037   9.328  11.415  0.0084 -0.0535  0.1637
 2351W        W18535   4.095   4.414  14.864  0.2185 -0.1215 -0.0755
 2352W        W18536  14.829   7.063  11.684  0.2460 -0.4193 -0.1082
 2353W        W18537  15.684  10.709   0.421 -0.0511 -0.0635 -0.0267
 2354W        W18538  16.602  10.119   3.104  0.0747 -0.0527 -0.1464
 2355W        W18539   6.573   0.987   2.394  0.0600 -0.1299  0.1764
 2356W        W18540   5.229  14.578   4.788 -0.1049  0.1336 -0.4585
 2357W        W18541   0.062  14.040  14.646 -0.0293 -0.0812 -0.0519
 2358W        W18542   6.344   6.404   3.544  0.0057  0.1782 -0.1001
 2359W        W18543   4.876  10.189   3.946 -0.4477 -0.1475 -0.2345
 2360W        W18544  13.991   8.615  14.205  0.0499  0.2071 -0.0920
 2361W        W18545   7.413  13.098  13.803  0.3623 -0.1466 -0.2859
 2362W        W18546   7.901  16.713   0.147 -0.0841 -0.1518 -0.0714
 2363W        W18547   3.861  14.494   3.444  0.1139 -0.2788 -0.3313
 2364W        W18548  12.257  18.233   2.308  0.0832 -0.2265 -0.1482
 2365W        W18549   1.828  17.086   3.786  0.0258  0.0716  0.0673
 2366W        W18550  18.375   5.212   4.004  0.3009  0.1397  0.2732
 2367W        W18551   6.942   7.503   4.209  0.0467 -0.0826  0.0557
 2368W        W18552  14.015   7.784  13.882  0.0430 -0.1174 -0.0996
 2369W        W18553  17.128   2.324   4.145  0.1287 -0.0755  0.1509
 2370W        W18554   0.853  12.156   4.394  0.1246  0.0225 -0.0606
 2371W        W18555  17.934  17.607  11.554 -0.2400  0.0577 -0.7664
 2372W        W18556   5.056  14.426   2.926  0.0231 -0.1804 -0.0802
 2373W        W18557   8.154   1.419   2.846 -0.0868 -0.1156  0.1345
 2374W        W18558  13.894  12.348   0.595  0.1370  0.1378  0.3774
 2375W        W18559  18.078  16.848  13.055  0.1307  0.2371 -0.1564
 2376W        W18560   2.461   6.198  13.726 -0.0922  0.2495 -0.0054
 2377W        W18561   8.567  10.510   1.178 -0.1523 -0.1457 -0.0403
 2378W        W18562  12.549  12.174  15.181 -0.1461  0.1412 -0.0133
 2379W        W18563  15.703   3.051   4.504  0.2358  0.1694  0.2086
 2380W        W18564   0.114   0.140   4.782  0.1152  0.0297 -0.2754
 2381W        W18565  11.073  12.994  15.520  0.2982 -0.1066  0.1564
 2382W        W18566   8.997   0.731   4.399  0.2386  0.0198 -0.0366
 2383W        W18567  13.444  12.235  12.233 -0.1908  0.1687 -0.0374
 2384W        W18568  16.756   2.474   1.956  0.0230  0.2227 -0.0092
 2385W        W18569   5.164  14.575  13.949  0.0166  0.0522  0.1523
 2386W        W18570   5.582  15.543   2.106 -0.6277  0.1209  0.0146
 2387W        W18571  14.248   6.871  12.342 -0.2266  0.1586 -0.1024
 2388W        W18572   9.851  17.945   0.473 -0.2125  0.0548 -0.1746
 2389W        W18573  15.468   9.092   0.309 -0.3583  0.0184 -0.1479
 2390W        W18574   0.822  14.757   1.680 -0.0812 -0.0010 -0.2378
 2391W        W18575  17.106   1.490   3.060  0.0484  0.1295  0.2447
 2392W        W18576  15.315  14.777  11.713  0.2311  0.0094 -0.1430
 2393W        W18577  10.737  13.088  11.710  0.1361  0.2412  0.1608
 2394W        W18578   1.075  12.585   3.942 -0.1749  0.3565  0.1842
 2395W        W18579   2.836  15.388  15.234  0.0729  0.1626  0.0027
 2396W        W18580  13.551  14.022  11.365  0.1491  0.2953  0.0365
 2397W        W18581  14.665   6.287  15.793  0.2966 -0.0156 -0.3421
 2398W        W18582   6.299   1.156  15.034  0.1242  0.2121 -0.0099
 2399W        W18583   2.511   7.969  11.319  0.1374 -0.0944 -0.1465
 2400W        W18584  17.723  15.339  14.020 -0.3961 -0.0319 -0.2610
 2401W        W18585  13.213   3.787  14.592  0.0102  0.0625 -0.0857
 2402W        W18586  12.849  11.241   1.794  0.1499 -0.1670 -0.1350
 2403W        W18587  17.284   5.436   3.282  0.0148  0.1342 -0.1298
 2404W        W18588  10.666   3.140  14.997  0.3295 -0.0786 -0.0394
 2405W        W18589   8.365   2.946   2.641  0.0144  0.0044 -0.0043
 2406W        W18590   4.383   3.191  13.628 -0.1075  0.1686 -0.0334
 2407W        W18591   6.674   1.443  14.078 -0.0754 -0.2324  0.0026
 2408W        W18592   2.622  12.054  13.601 -0.1573  0.0655  0.1634
 2409W        W18593  15.046   8.875   0.087  0.2824  0.0643 -0.0774
 2410W        W18594  12.989  15.753   4.870  0.1224  0.0150  0.1601
 2411W        W18595  13.750   7.099   1.681 -0.1130  0.0708 -0.0739
 2412W        W18596   2.179  11.437   6.233 -0.1396  0.0111  0.0597
 2413W        W18597  14.906   9.074   3.573  0.2250  0.0293  0.1735
 2414W        W18598  16.128   6.722  14.536  0.1072  0.5009  0.1886
 2415W        W18599  12.795  14.771   0.912 -0.1407  0.0704 -0.2887
 2416W        W18600   2.717   2.186   1.433 -0.1282  0.0807  0.1062
 2417W        W18601   5.298   1.547  11.386  0.3688  0.2582 -0.0396
 2418W        W18602   6.554  14.466  15.699 -0.3166  0.1393 -0.0606
 2419W        W18603   9.636  11.748   0.946 -0.3218 -0.4096 -0.0335
 2420W        W18604   5.127   0.607  10.351 -0.1577  0.1699  0.0639
 2421W        W18605   4.852   3.530   5.766 -0.2266 -0.3208 -0.2477
 2422W        W18606   6.880   9.665  14.779 -0.2766  0.0225  0.1256
 2423W        W18607  15.429  16.043  14.412  0.0536  0.0818  0.1495
 2424W        W18608  16.661  11.524  14.391 -0.1894 -0.0732 -0.2163
 2425W        W18609   7.270   5.509  15.690  0.2405 -0.3379  0.2187
 2426W        W18610   5.881   5.027  12.439 -0.0175  0.0179  0.1304
 2427W        W18611   7.916   7.660  13.434  0.0034 -0.0167  0.0879
 2428W        W18612   2.999   2.680   3.532  0.0426 -0.3355  0.1003
 2429W        W18613  12.310   1.603   3.616 -0.0411  0.1376  0.1517
 2430W        W18614   7.718  12.038  15.473 -0.1056 -0.1710  0.0696
 2431W        W18615   0.235  15.890  13.714  0.3702 -0.1101 -0.0708
 2432W        W18616  18.012   3.300  11.881  0.0246  0.3545 -0.3026
 2433W        W18617   6.126   3.371   0.877  0.3604  0.1691  0.0478
 2434W        W18618   1.037  18.232  12.048 -0.2685  0.0492  0.0343
 2435W        W18619  16.119   6.137   0.698  0.0802  0.2500  0.1520
 2436W        W18620   3.612  12.833  14.523 -0.0204  0.1158  0.2597
 2437W        W18621  16.485   4.876   0.166  0.2006  0.0883  0.2030
 2438W        W18622   8.693   9.122  14.350 -0.1763 -0.1510  0.0184
 2439W        W18623   7.928  12.880  13.961  0.2377  0.0461  0.0521
 2440W        W18624   7.864  15.614  12.657 -0.1308  0.0640 -0.2806
 2441W        W18625   8.620   2.653  12.046 -0.1260 -0.0646  0.0854
 2442W        W18626  10.824  15.718  14.624 -0.1776  0.0601  0.1311
 2443W        W18627  16.032  15.948   0.948 -0.0295  0.0522  0.2030
 2444W        W18628   7.846  10.675   4.631  0.2751 -0.0208  0.0232
 2445W        W18629  10.884   3.515  11.223 -0.2168 -0.0049 -0.1468
 2446W        W18630   1.862   0.395  15.600 -0.1946  0.0569 -0.0653
 2447W        W18631  11.240  11.498   4.861 -0.3195 -0.1557  0.1178
 2448W        W18632   2.771  17.908  10.710  0.1214 -0.0234  0.2232
 2449W        W18633   4.846   2.563   4.228  0.1682  0.0757 -0.1065
 2450W        W18634  14.879   2.550   3.434  0.1435 -0.1679 -0.0584
 2451W        W18635  15.631  15.112   1.363  0.1966 -0.2000  0.0329
 2452W        W18636   9.148  15.204  12.141  0.1077  0.0453 -0.1510
 2453W        W18637   9.455   1.970  11.113 -0.0412  0.2408  0.4797
 2454W        W18638  16.088   6.634   3.403  0.1834 -0.0632 -0.0381
 2455W        W18639  16.662   3.944  11.852  0.1012 -0.2166  0.2435
 2456W        W18640  18.239  12.825  15.382 -0.2671 -0.0191 -0.4825
 2457W        W18641  17.518  15.689   0.333  0.0878 -0.2053 -0.2283
 2458W        W18642   8.662  13.748  12.768 -0.0182 -0.0560 -0.3486
 2459W        W18643  15.387   5.239  15.453 -0.2178  0.1006  0.1449
 2460W        W18644  10.168   1.903  12.318  0.3084  0.2023 -0.1960
 2461W        W18645   1.388   0.520   3.774  0.3914 -0.3012  0.1919
 2462W        W18646  14.585  16.742   0.755  0.1737 -0.0623  0.2593
 2463W        W18647   7.812   1.813  12.752  0.1854 -0.3054 -0.0177
 2464W        W18648   8.012   5.602  13.574  0.0637 -0.2346  0.0126
 2465W        W18649  10.263  10.044  13.683  0.1626  0.0729 -0.1566
 2466W        W18650   9.187   3.457  12.575 -0.0647  0.0090 -0.0059
 2467W        W18651   0.455   7.482  12.778  0.1682  0.1967 -0.2437
 2468W        W18652   8.984   1.365   5.160  0.0340 -0.0145  0.2342
 2469W        W18653   1.335  12.633   0.834 -0.3005 -0.0865 -0.1313
 2470W        W18654   2.938  16.125   2.153 -0.1959  0.1268  0.2256
 2471W        W18655   3.756   9.806   5.205  0.4190  0.0615 -0.1948
 2472W        W18656  15.673   7.075   4.765 -0.1521 -0.1419  0.4430
 2473W        W18657   4.779   0.606   5.414  0.0349 -0.3054 -0.1076
 2474W        W18658  13.135   7.703  15.087  0.1867  0.0557  0.1472
 2475W        W18659  13.679   2.276  11.844 -0.1438 -0.1220 -0.0401
 2476W        W18660   0.587  10.511  13.494 -0.2280  0.1028 -0.0118
 2477W        W18661  15.792  14.671   4.678 -0.1781  0.0585 -0.0408
 2478W        W18662   1.637  17.732   5.202  0.2739 -0.0688 -0.0339
 2479W        W18663  16.568   6.603   5.455 -0.4554 -0.0290 -0.0612
 2480W        W18664  14.366  13.700   3.518  0.1350  0.2109 -0.1988
 2481W        W18665   5.381   1.690   1.759  0.1933  0.2742  0.1321
 2482W        W18666   7.425   0.871  12.574 -0.0431 -0.2779 -0.1716
 2483W        W18667  17.113   1.518   4.448  0.1454 -0.1855  0.0444
 2484W        W18668  16.561   9.811  13.699 -0.0141 -0.2620  0.2059
 2485W        W18669   5.211  14.574   3.644  0.1716  0.1537 -0.1044
 2486W        W18670  16.502  11.112  11.777  0.0496 -0.0199 -0.1384
 2487W        W18671  13.423   2.079   0.306 -0.0418  0.1723 -0.1167
 2488W        W18672   9.534   5.022   2.860 -0.1950  0.0390 -0.0613
 2489W        W18673   5.901  15.862  15.036  0.0429 -0.2237 -0.1364
 2490W        W18674   6.736  13.012  11.930 -0.2445  0.0024 -0.1443
 2491W        W18675   9.804  15.650   4.967 -0.2439  0.1589 -0.0621
 2492W        W18676   0.038   8.894  12.499 -0.0818  0.0897 -0.0939
 2493W        W18677  16.660   4.863  14.983  0.1777  0.1212  0.0437
 2494W        W18678  16.432  11.808  11.219  0.2440 -0.2002 -0.0054
 2495W        W18679  14.290   7.767   1.497  0.0030 -0.1946  0.2781
 2496W        W18680   4.636  10.590  13.565 -0.3598 -0.1599  0.2850
 2497W        W18681  12.344  12.008   1.625  0.1196 -0.0421  0.0613
 2498W        W18682   3.453   5.666   3.761  0.3258 -0.2227 -0.3993
 2499W        W18683  10.757  18.393   2.346 -0.2932 -0.1274  0.1054
 2500W        W18684   1.464   5.527  16.138 -0.1414 -0.2859 -0.0664
 2501W        W18685  13.813  10.146  12.320 -0.0405 -0.2905  0.0046
 2502W        W18686  14.490  13.282   5.629 -0.2091  0.1533  0.3126
 2503W        W18687   5.841  17.429   1.271 -0.1986 -0.0210  0.0801
 2504W        W18688   2.832   8.543  15.674  0.0651  0.1075  0.1143
 2505W        W18689  13.479   0.110  15.496 -0.2574  0.2419  0.2902
 2506W        W18690  11.849  16.892   0.745  0.0114  0.1853 -0.1984
 2507W        W18691   0.019  16.289  13.501 -0.1582  0.2092  0.1460
 2508W        W18692  12.523   1.981   4.526 -0.2183  0.2399 -0.0310
 2509W        W18693  11.551   2.547   3.580  0.0923 -0.2509 -0.0434
 2510W        W18694   8.257  16.247   4.720 -0.0107  0.2438  0.0407
 2511W        W18695  16.320  13.576  13.741  0.1654 -0.1067 -0.0160
 2512W        W18696   6.808   7.486  12.811 -0.2723 -0.2578 -0.0682
 2513W        W18697   4.560   3.228   3.538 -0.2836 -0.0520  0.0391
 2514W        W18698   0.374   4.184  14.933  0.0043 -0.0745  0.2655
 2515W        W18699   0.023   1.866  12.395  0.2679 -0.1858  0.0156
 2516W        W18700   6.138   8.365   5.927 -0.3209  0.2107 -0.0722
 2517W        W18701  17.600  13.067   4.693  0.0119  0.1754 -0.0142
 2518W        W18702  16.572   2.650  15.504  0.1936  0.2539  0.0917
 2519W        W18703   8.453  11.177   3.653  0.0877  0.0719  0.1187
 2520W        W18704   9.111   2.021   1.710  0.4237 -0.1123  0.0438
 2521W        W18705  15.492   1.125  12.520  0.0503 -0.2529  0.0938
 2522W        W18706   9.872   1.893   3.153  0.0196  0.0272 -0.2446
 2523W        W18707   8.988   6.551  12.408  0.1593 -0.3344  0.2289
 2524W        W18708  10.386   6.337   2.894 -0.3834 -0.2415 -0.0637
 2525W        W18709  10.277   5.191  11.559 -0.2006 -0.0650 -0.0555
 2526W        W18710  10.536  16.594   0.650  0.0307  0.1130 -0.3323
 2527W        W18711  12.037   5.191  11.495  0.0543 -0.0918 -0.0964
 2528W        W18712   9.631   8.766   5.322 -0.0773  0.0496  0.2498
 2529W        W18713   8.637  15.567  11.975  0.0149  0.3398 -0.0688
 2530W        W18714  15.729  17.538  13.543 -0.0179  0.0805  0.0217
 2531W        W18715  10.078  11.076  15.720  0.0828  0.1388  0.1333
 2532W        W18716  13.893  12.700  15.879  0.2055  0.0864 -0.1971
 2533W        W18717   7.008   2.854   0.423  0.1380  0.0743 -0.1269
 2534W        W18718   6.532  11.184  11.677  0.0137 -0.0381  0.2631
 2535W        W18719   7.047   1.117  13.270  0.3570  0.1149 -0.2416
 2536W        W18720   9.561  16.459   4.940 -0.2222 -0.0822 -0.0057
 2537W        W18721  11.304   1.277   3.686  0.0326  0.3633  0.0637
 2538W        W18722   4.340  15.317   0.466 -0.0622 -0.1785  0.1834
 2539W        W18723   6.652  13.360  15.461  0.3702  0.1409 -0.0973
 2540W        W18724  13.317   2.410   2.437 -0.3297 -0.1158  0.2186
 2541W        W18725   1.280   7.049  11.104 -0.2624  0.1628  0.2092
 2542W        W18726   3.364  12.760   1.465 -0.2868  0.1204  0.1648
 2543W        W18727  10.854   2.278   4.623  0.0590  0.3543  0.0156
 2544W        W18728  16.336   6.695  13.666 -0.3011  0.1359 -0.0280
 2545W        W18729   7.801   1.185   0.142  0.0556 -0.3107 -0.0477
 2546W        W18730   4.383  16.468   0.629  0.1973 -0.3236 -0.0974
 2547W        W18731  11.039  13.261   5.486  0.2817  0.2328 -0.0619
 2548W        W18732  11.847   0.395   2.319  0.1820  0.0003  0.0823
 2549W        W18733  14.366  11.179  11.460 -0.2283  0.2973  0.2190
 2550W        W18734   5.276  15.874  15.992  0.2997 -0.1136  0.1860
 2551W        W18735  15.929   4.963  13.338  0.2166 -0.1473  0.3040
 2552W        W18736  16.823  10.762  11.553  0.3266 -0.1702 -0.0224
 2553W        W18737  11.620   5.109   4.926 -0.5196  0.4076 -0.1955
 2554W        W18738   6.172   2.197   1.516 -0.2435 -0.0057 -0.0684
 2555W        W18739  17.438  12.174  11.275  0.0321 -0.1268 -0.0758
 2556W        W18740   0.851  17.597   1.203  0.1281  0.0546  0.2027
 2557W        W18741  12.347   8.174   5.108 -0.2114  0.1548  0.1699
 2558W        W18742  16.991   2.017  12.475  0.0769 -0.0380  0.0138
 2559W        W18743  17.923  10.378   2.045 -0.3212  0.0034 -0.2439
 2560W        W18744  18.459  14.774   0.239  0.3302 -0.1050 -0.2129
 2561W        W18745   1.116  10.323   0.508 -0.1858  0.0340  0.2272
 2562W        W18746   3.574  16.307  13.044  0.0129 -0.0521 -0.2938
 2563W        W18747   6.955   2.140   1.721  0.0134  0.0345  0.0766
 2564W        W18748  11.909   3.707   0.205 -0.0724  0.0999 -0.1689
 2565W        W18749  16.963   4.907  16.010  0.1044  0.0041  0.0508
 2566W        W18750   6.264   0.463  13.089 -0.1403 -0.1012 -0.3454
 2567W        W18751   6.295  12.923  11.703 -0.4046  0.1286 -0.0120
 2568W        W18752  15.719  17.239   3.466 -0.0816  0.0562  0.1159
 2569W        W18753   0.177  10.956  13.410 -0.1751 -0.2840 -0.0059
 2570W        W18754   7.349  11.423   5.978  0.0915 -0.3373 -0.0063
 2571W        W18755  16.282  15.485   0.743  0.1890  0.1665 -0.0849
 2572W        W18756   5.736  12.785   1.073 -0.1040 -0.2283 -0.0200
 2573W        W18757   5.365  14.162   1.636 -0.0227 -0.1066  0.0251
 2574W        W18758  11.335  12.137  15.264  0.3198  0.6817 -0.0043
 2575W        W18759   0.662  18.367   3.214 -0.1714  0.2763 -0.1414
 2576W        W18760   6.909  12.549  15.080  0.2085 -0.0740 -0.2941
 2577W        W18761  17.397  13.843   2.122  0.1347  0.1094  0.0390
 2578W        W18762   0.343  16.481   2.349 -0.0808  0.2574 -0.3797
 2579W        W18763  17.482  16.534  11.178 -0.0131  0.0879 -0.5373
 2580W        W18764  13.571   3.550   3.586 -0.0854  0.1721 -0.2050
 2581W        W18765   1.512   4.595  15.097  0.1765 -0.0351 -0.3544
 2582W        W18766  11.772   8.245  13.360 -0.3183  0.1620  0.0591
 2583W        W18767  14.657   6.752  12.744  0.0320  0.1621  0.2216
 2584W        W18768   1.395   1.832  14.865 -0.2918 -0.2031 -0.2520
 2585W        W18769   2.411  11.343   0.924  0.0594 -0.0651  0.0224
 2586W        W18770  18.241   7.910   5.151 -0.2520 -0.1342 -0.1786
 2587W        W18771  12.676  15.276  15.793 -0.2543  0.6778 -0.1820
 2588W        W18772   2.278   9.255   4.826 -0.2887  0.0381  0.1684
 2589W        W18773   6.449   2.463  14.059  0.0930  0.0125 -0.0133
 2590W        W18774  14.964   7.649  13.824  0.3891 -0.3511 -0.3006
 2591W        W18775   8.981  17.932   0.843  0.1798  0.0306 -0.3394
 2592W        W18776   9.440  12.239   4.742  0.3979  0.0043 -0.4191
 2593W        W18777  11.078   8.366   2.595 -0.2759  0.1459 -0.1642
 2594W        W18778  10.132   3.365   4.126 -0.1425 -0.1683 -0.0196
 2595W        W18779   7.887   5.643   4.642 -0.0921  0.4317 -0.0292
 2596W        W18780  18.261   4.657  13.204 -0.0230  0.1588 -0.1744
 2597W        W18781   5.555  13.777  14.551 -0.0197 -0.1881  0.4496
 2598W        W18782  12.928  11.539   0.814 -0.0435  0.0418  0.4141
 2599W        W18783  14.096   8.126   4.843 -0.0993 -0.3618  0.2375
 2600W        W18784   6.579   4.964  11.101 -0.1708  0.1174 -0.0897
 2601W        W18785   8.839   1.320   1.165  0.0744 -0.2017  0.2145
 2602W        W18786   0.507   1.913   9.789  0.0056 -0.0450  0.2368
 2603W        W18787  18.479  11.558  15.383 -0.0330  0.3414 -0.3282
 2604W        W18788  13.474  16.969  15.795 -0.1233 -0.1721 -0.3513
 2605W        W18789   9.992  14.022  15.159  0.0068  0.0197  0.1514
 2606W        W18790  13.719   9.442   1.013  0.0974  0.0986  0.1602
 2607W        W18791  15.837   2.732   1.209 -0.2701  0.1568  0.1147
 2608W        W18792   2.264  16.092  12.135  0.0246  0.0598  0.2577
 2609W        W18793   5.706   5.794   4.700 -0.1784 -0.2678  0.3958
 2610W        W18794   7.550   0.330  14.756  0.3066 -0.1362 -0.3433
 2611W        W18795   3.582  10.336   1.436  0.1450  0.0373  0.0316
 2612W        W18796  17.938  12.517   2.109 -0.2001  0.0709  0.3407
 2613W        W18797  16.371   2.397  13.003 -0.0584  0.1789  0.1543
 2614W        W18798  14.730   0.063  15.200 -0.1239  0.1053  0.0247
 2615W        W18799   7.355   0.226  13.912  0.1365 -0.2745 -0.0136
 2616W        W18800  10.139  13.391   0.002  0.3099 -0.0893  0.1625
 2617W        W18801   3.646   4.411  14.044 -0.1677 -0.0000  0.0952
 2618W        W18802  13.153   9.590   3.348 -0.1935 -0.2938  0.0721
 2619W        W18803   1.412  13.556   5.181  0.0067  0.0667  0.0964
 2620W        W18804  15.261   2.117  12.905  0.1080  0.0370 -0.0773
 2621W        W18805   8.201   6.375  11.758 -0.2289 -0.0632 -0.1791
 2622W        W18806   6.690  18.474   3.053  0.2064 -0.0860  0.2090
 2623W        W18807   8.065  17.573   0.428 -0.2659 -0.1011  0.0396
 2624W        W18808  14.670   6.191  13.582  0.0634  0.2274  0.0743
 2625W        W18809  14.952  15.405  13.070  0.3013 -0.4807 -0.1710
 2626W        W18810  15.379  15.363   4.807  0.1622  0.4625  0.1789
 2627W        W18811   3.816   9.632   0.186 -0.0150 -0.0724 -0.1238
 2628W        W18812   8.592   0.155   3.773 -0.6233  0.1890 -0.1467
 2629W        W18813  12.780  11.485   4.210  0.0608 -0.1061 -0.0286
 2630W        W18814  15.610   5.535   4.044  0.0815  0.1018 -0.0756
 2631W        W18815  16.726   6.610  15.695 -0.0041  0.1673 -0.1254
 2632W        W18816   1.508  13.520   4.396 -0.2744 -0.3814  0.0877
 2633W        W18817   3.553   3.398   3.188 -0.1442  0.2110 -0.1738
 2634W        W18818   8.382   3.120  11.987 -0.2740 -0.3934  0.1026
 2635W        W18819   8.836  18.049  15.490 -0.0842 -0.0143  0.4102
 2636W        W18820   5.278  15.833  14.323  0.0102 -0.2856 -0.0432
 2637W        W18821   8.649  17.814  13.683 -0.1761 -0.1471  0.0975
 2638W        W18822  12.991   8.763   1.272 -0.1652 -0.4242  0.2339
 2639W        W18823   1.670  10.493  13.486 -0.2564 -0.2104  0.0232
 2640W        W18824   2.530   0.906   0.833 -0.0669 -0.1992  0.1284
 2641W        W18825  14.090  10.249   2.400 -0.1961 -0.0744 -0.1295
 2642W        W18826  15.328   0.083  14.898  0.0949 -0.0708  0.2170
 2643W        W18827   5.546  10.436  12.025 -0.4194 -0.1404  0.3292
 2644W        W18828   6.252  13.692  10.877  0.0173  0.1039 -0.0068
 2645W        W18829   8.247  16.765   3.754  0.4163 -0.0410  0.2203
 2646W        W18830  18.252   9.844   0.547  0.1997  0.0070 -0.2050
 2647W        W18831  16.110  14.746  14.549 -0.3723 -0.0591 -0.0247
 2648W        W18832   0.633  13.134  13.070  0.1494  0.0702 -0.2233
 2649W        W18833   7.194  17.315   4.477  0.0660  0.3709  0.0755
 2650W        W18834  10.053  12.295  15.520 -0.0649 -0.2519  0.1697
 2651W        W18835   9.790   4.570  15.187 -0.0197  0.1882  0.3907
 2652W        W18836   4.155  12.441  11.242  0.1120  0.2106 -0.1754
 2653W        W18837   2.002   0.785  14.754  0.0273 -0.1457 -0.0849
 2654W        W18838   6.746  14.855  16.098 -0.0179 -0.3762  0.0963
 2655W        W18839   3.955   2.068  15.524  0.2354  0.0027 -0.0412
 2656W        W18840   1.712  16.105   5.097  0.2737  0.1657 -0.1191
 2657W        W18841   4.681  10.867  14.263 -0.1806  0.1329 -0.1408
 2658W        W18842   3.709  12.662   4.157  0.1900  0.0588 -0.2572
 2659W        W18843   3.644  17.031   3.224 -0.2010 -0.0697  0.1687
 2660W        W18844  16.556  16.027   0.579  0.1083 -0.2020 -0.1759
 2661W        W18845  17.743  15.295  16.123 -0.1546  0.0847 -0.0889
 2662W        W18846   0.107   7.219  14.284  0.1756 -0.1192 -0.0814
 2663W        W18847   1.447  11.348  13.828 -0.1155  0.0784  0.1645
 2664W        W18848  15.216  12.502   5.303 -0.1028  0.0230  0.0130
 2665W        W18849   7.797  11.869   1.494  0.1283  0.0085  0.0634
 2666W        W18850   7.779   7.212  13.188 -0.0115 -0.0609  0.1347
 2667W        W18851   7.044   7.371  14.412 -0.1174  0.6636  0.0883
 2668W        W18852   1.240   4.748  14.658  0.1588 -0.1523 -0.1916
 2669W        W18853   9.877  10.078   1.486  0.0399 -0.0475  0.0812
 2670W        W18854   3.118  11.601   4.079 -0.1267 -0.4115 -0.0454
 2671W        W18855   5.829  18.434   2.788  0.1129  0.0969 -0.0131
 2672W        W18856   8.396   5.625   2.207  0.2816 -0.0615  0.0046
 2673W        W18857   8.257   6.481   3.684  0.1022  0.1486 -0.3313
 2674W        W18858   7.580   2.630   0.033  0.1158 -0.1985 -0.0792
 2675W        W18859  18.077   7.028  15.125  0.5286  0.1194  0.1544
 2676W        W18860  15.651   4.057   4.418 -0.1099  0.0433  0.2726
 2677W        W18861  12.652  15.931  13.932 -0.2310  0.1628 -0.1037
 2678W        W18862   1.893   3.692  13.932 -0.2484  0.1197  0.0741
 2679W        W18863  14.497   9.795  11.588  0.3571 -0.0356  0.0307
 2680W        W18864   7.751  14.430   5.194 -0.0538  0.0256 -0.0952
 2681W        W18865  16.162   2.923  15.264 -0.1517  0.0289 -0.1015
 2682W        W18866   9.718   3.175   4.361  0.0690  0.0259  0.2720
 2683W        W18867   5.039   4.922  11.902 -0.2833 -0.1569  0.2631
 2684W        W18868   1.021  10.708  14.401  0.3131 -0.1360  0.0654
 2685W        W18869   5.398  14.025  13.424 -0.0854 -0.2058 -0.0250
 2686W        W18870   3.414  18.352  12.491 -0.0690  0.0425 -0.3363
 2687W        W18871   9.097  15.822   1.444  0.2050  0.1048  0.0575
 2688W        W18872  16.332   4.593  15.314 -0.0807  0.3528 -0.2131
 2689W        W18873   0.504   6.778   4.069  0.0850  0.1506  0.0908
 2690W        W18874   2.678  13.851   3.954 -0.0229 -0.1690  0.2548
 2691W        W18875   7.474  12.389  11.243  0.1582 -0.0886 -0.5108
 2692W        W18876  11.886   2.653  14.529  0.0411 -0.0647 -0.0234
 2693W        W18877   0.988  15.593   1.315 -0.1322  0.3450 -0.2295
 2694W        W18878   2.218   2.525  12.471  0.3004  0.1532  0.4068
 2695W        W18879   4.374   1.021   3.234  0.0237  0.0537 -0.1009
 2696W        W18880  11.821   5.033  15.211  0.0401  0.1854  0.1391
 2697W        W18881   6.647   0.978  13.846 -0.0485 -0.1474 -0.0560
 2698W        W18882   9.555   8.962   3.260 -0.1694  0.0507 -0.0201
 2699W        W18883  11.384  14.245  13.455  0.0196 -0.2161  0.1738
 2700W        W18884   9.458  17.640  13.909 -0.0852  0.2120 -0.0168
 2701W        W18885  16.376  11.640   2.262 -0.1626  0.2450  0.0085
 2702W        W18886   8.439   1.401   4.176 -0.0591 -0.1157  0.1134
 2703W        W18887  13.910  14.910   3.057  0.0677 -0.0624  0.2895
 2704W        W18888   2.734  11.498   5.666 -0.2296 -0.5494  0.0374
 2705W        W18889   4.940   4.809   0.570  0.1086 -0.2775 -0.2926
 2706W        W18890  15.995   9.157   1.045  0.2227 -0.1029 -0.0599
 2707W        W18891  17.551  16.458  13.497  0.3258 -0.1301  0.1190
 2708W        W18892  12.340  17.810   4.138  0.1147  0.1283 -0.1279
 2709W        W18893  15.856  11.052  13.184  0.0484  0.0383 -0.0573
 2710W        W18894  14.357   1.207   2.234  0.2520  0.0005 -0.1058
 2711W        W18895  15.654  15.803   3.417  0.0069 -0.0387 -0.0118
 2712W        W18896   1.109  12.568  14.962 -0.1243  0.0654 -0.2823
 2713W        W18897  10.643   1.069   4.735  0.1349 -0.0977 -0.1979
 2714W        W18898  15.758   6.315  15.564 -0.1525 -0.1643 -0.1824
 2715W        W18899   7.841  15.862  14.510  0.1031  0.1831 -0.0496
 2716W        W18900  16.324  16.360   0.879  0.3579  0.2931 -0.1809
 2717W        W18901  13.181  18.371  12.844  0.3400  0.3707 -0.0485
 2718W        W18902   3.756   6.506   0.837 -0.1149 -0.0457 -0.3396
 2719W        W18903  10.164   7.297  12.821 -0.0738 -0.2715 -0.0919
 2720W        W18904   2.688  12.141  12.089  0.1934 -0.0545 -0.0130
 2721W        W18905   1.319   2.190  11.205  0.3164 -0.0497  0.0171
 2722W        W18906   1.548   7.888  12.148  0.0177  0.2076  0.1937
 2723W        W18907   0.662   5.426  15.462  0.2239 -0.1132  0.0211
 2724W        W18908   9.754   7.886  10.966 -0.2349  0.1937 -0.2424
 2725W        W18909  17.538   1.959  12.224 -0.2413 -0.0114 -0.0229
 2726W        W18910  15.044  17.732  11.689  0.1229 -0.1007 -0.0963
 2727W        W18911  10.719   6.255   5.455  0.1386  0.0074  0.3355
 2728W        W18912  17.536  10.855   0.914 -0.1594  0.2028 -0.2146
 2729W        W18913  13.336  18.033   0.703  0.1244 -0.0309  0.2769
 2730W        W18914  16.887  17.632   4.432 -0.0248  0.0879  0.0343
 2731W        W18915   1.109   0.904   3.688  0.0164  0.0932  0.3144
 2732W        W18916  17.261   7.998   0.954 -0.1212 -0.0178  0.0444
 2733W        W18917   5.290   4.077   1.629 -0.0711 -0.0401  0.1739
 2734W        W18918  15.676   1.213   4.172  0.1302 -0.1325  0.5413
 2735W        W18919   8.265  11.832   1.150 -0.0910  0.4899  0.3077
 2736W        W18920   7.541  13.371   4.160 -0.0029  0.4298 -0.0098
 2737W        W18921  14.654  14.554   0.002 -0.0371  0.2711 -0.0531
 2738W        W18922  14.866   3.816   4.022 -0.1794 -0.1783 -0.0195
 2739W        W18923   4.395   0.521  12.380 -0.1970  0.0507 -0.2668
 2740W        W18924  17.673   7.278   5.062  0.0756  0.2040  0.0852
 2741W        W18925   0.024  15.476  12.225 -0.0965 -0.0074  0.1266
 2742W        W18926   5.008   4.099  14.970 -0.1657 -0.0158  0.1076
 2743W        W18927  12.006   2.395   0.703  0.3691 -0.0111 -0.0765
 2744W        W18928  13.119   6.304  13.883 -0.3682  0.1952  0.3240
 2745W        W18929   8.246  10.367  15.002 -0.2009 -0.0615 -0.0186
 2746W        W18930   6.566  14.096   2.695  0.0946 -0.0939  0.1353
 2747W        W18931  15.075   2.058   2.060 -0.1960 -0.3049  0.1103
 2748W        W18932  11.354   8.143  13.627  0.0836  0.3711 -0.1314
 2749W        W18933  15.837  14.321  13.579  0.0825  0.3109 -0.0389
 2750W        W18934   6.157   9.045   0.740 -0.1848  0.1890  0.0923
 2751W        W18935   3.948   3.246   2.943  0.1777  0.1018 -0.1519
 2752W        W18936  11.617   4.661  12.980  0.2477 -0.0773  0.2013
 2753W        W18937   4.627   9.345  14.482 -0.0515 -0.0602  0.2333
 2754W        W18938   8.395  10.974   0.235 -0.2005 -0.0018 -0.0385
 2755W        W18939   2.347   0.092  10.645 -0.3022  0.0685  0.0382
 2756W        W18940  13.239  11.759  14.899  0.1403 -0.1434  0.0858
 2757W        W18941   6.973   4.149   4.006 -0.0055 -0.0560  0.2018
 2758W        W18942   8.668  12.346   2.280 -0.0885  0.0351  0.3095
 2759W        W18943   9.040   3.774  15.995 -0.1168  0.0153 -0.0749
 2760W        W18944   2.497   3.491  11.457  0.2355 -0.0130 -0.1281
 2761W        W18945  15.003   4.339  15.387 -0.2937  0.0302 -0.3272
 2762W        W18946  11.289  11.467   0.469  0.0688 -0.1888  0.0845
 2763W        W18947   8.036   3.804  13.281 -0.0803  0.0489 -0.1376
 2764W        W18948  10.740   9.961   2.417 -0.1810 -0.0918 -0.0800
 2765W        W18949   1.917   1.003   0.206 -0.2142 -0.0317  0.2149
 2766W        W18950  10.414  13.949  13.248 -0.2964  0.3175  0.2526
 2767W        W18951  13.223  15.483   2.888  0.2278 -0.1383 -0.2649
 2768W        W18952   4.213   1.396  11.667 -0.1417 -0.2393 -0.2230
 2769W        W18953  17.876  11.653  13.240  0.2116 -0.1984 -0.1548
 2770W        W18954   0.170  12.291   2.653 -0.1318 -0.0864  0.1515
 2771W        W18955   0.135   4.927  13.326  0.2892  0.0675  0.0124
 2772W        W18956   4.812   7.514  11.684  0.2405  0.2274 -0.0541
 2773W        W18957  18.055   9.768   3.612 -0.0875  0.4181  0.0558
 2774W        W18958   3.949  17.319  11.018 -0.0044  0.0835  0.1466
 2775W        W18959  12.510   4.405  14.097  0.1078  0.0973  0.3003
 2776W        W18960  11.513   5.541  15.332 -0.1487  0.1473  0.1368
 2777W        W18961   6.653   0.696  14.920  0.0895 -0.0076  0.3278
 2778W        W18962   3.325  15.327  12.484 -0.1254 -0.0806 -0.0759
 2779W        W18963   7.543  10.059  15.317 -0.0889  0.1537 -0.4207
 2780W        W18964   2.438  12.117   1.418  0.0452 -0.1239  0.0174
 2781W        W18965   7.562  14.351   5.676  0.2692 -0.1336  0.4497
 2782W        W18966  17.329  10.843  11.616 -0.3205 -0.1697 -0.0916
 2783W        W18967  14.464   1.512   3.748 -0.0681  0.1292 -0.3771
 2784W        W18968   9.842   4.353  15.652 -0.0195  0.0085  0.1469
 2785W        W18969  12.185  14.879   0.120 -0.3097 -0.1185 -0.1149
 2786W        W18970   2.584  11.461   4.132  0.0343  0.1894  0.2924
 2787W        W18971   9.479   1.255   5.042 -0.1607 -0.2370 -0.1834
 2788W        W18972   0.939   8.590   2.642 -0.1242 -0.0809 -0.0117
 2789W        W18973   0.183   1.151  14.277 -0.0587 -0.1091 -0.0037
 2790W        W18974  18.087  17.790   0.878  0.1302 -0.1805  0.5034
 2791W        W18975   0.267   9.673  13.027  0.0318 -0.4542 -0.0434
 2792W        W18976  17.012  10.141  13.711  0.1509 -0.1121 -0.2030
 2793W        W18977   7.380   6.551   1.525 -0.1986  0.2223  0.0962
 2794W        W18978   7.034   8.033   0.790 -0.2089  0.0169  0.2129
 2795W        W18979   5.035   3.199   3.310 -0.1029 -0.4351 -0.3256
 2796W        W18980   6.453  15.386   5.345  0.0182  0.2468  0.0127
 2797W        W18981   2.972   5.453   1.384  0.0074  0.2671  0.1847
 2798W        W18982   9.837   0.587   3.657  0.0844  0.2685 -0.0055
 2799W        W18983  16.912  13.654   1.001  0.1099  0.4308  0.0144
 2800W        W18984   8.996   1.271  13.563 -0.0016 -0.1170  0.0238
 2801W        W18985  10.929   2.421   2.656  0.0850  0.2053 -0.3571
 2802W        W18986   5.353   7.097   1.724 -0.1797  0.0905 -0.0310
 2803W        W18987  13.225   9.958   1.398 -0.0091 -0.3172 -0.3257
 2804W        W18988   3.555   0.335   1.946 -0.0694 -0.1260  0.1809
 2805W        W18989  11.579   0.330  15.037  0.2149  0.1714  0.0582
 2806W        W18990   0.122  10.696  12.454 -0.0659 -0.1331 -0.1814
 2807W        W18991   3.932   6.335   3.144 -0.2415 -0.0587  0.2155
 2808W        W18992  18.395  10.970   1.532 -0.0010 -0.0136 -0.0273
 2809W        W18993  12.806  17.890   2.163  0.0102  0.2096  0.1281
 2810W        W18994  10.188   3.687   3.232  0.4545 -0.0331  0.2556
 2811W        W18995   3.879   3.754  14.852  0.0348 -0.3095 -0.0309
 2812W        W18996   6.565  10.744   0.288  0.3857  0.4419  0.1441
 2813W        W18997   2.747   5.121   3.547  0.0132 -0.2859  0.1978
 2814W        W18998   4.625  15.566  12.316 -0.2228  0.0390 -0.0167
 2815W        W18999  17.084  13.340   3.157 -0.3961  0.1723  0.1531
 2816W        W19000  14.611   2.581   3.844  0.3128  0.0858  0.2571
 2817W        W19001   9.476   5.156  15.795  0.0421 -0.3194 -0.0145
 2818W        W19002   5.124   1.115  14.962  0.1046  0.1891 -0.2780
 2819W        W19003   7.882  12.443  13.373 -0.0352 -0.1975  0.0099
 2820W        W19004  18.154   8.638   1.319  0.0567  0.2253  0.3122
 2821W        W19005  11.542   9.333   6.337 -0.0620 -0.1010  0.0554
 2822W        W19006  12.571  11.593   3.287 -0.0421  0.0612 -0.1225
 2823W        W19007  16.648   6.702   4.554 -0.0292  0.1232  0.4390
 2824W        W19008   1.671   3.023   2.881 -0.0242 -0.3127 -0.3225
 2825W        W19009   3.211  16.389  11.866  0.0928 -0.0254 -0.1874
 2826W        W19010  12.643   1.106   3.712  0.2253  0.3963 -0.3639
 2827W        W19011  16.179  12.616  11.598 -0.4088 -0.2741 -0.1864
 2828W        W19012   5.315   5.456  13.575 -0.2100  0.0380  0.3007
 2829W        W19013   4.459  14.886   2.717 -0.1669  0.2883 -0.2555
 2830W        W19014   7.839   7.292  11.879  0.1222  0.0685 -0.0817
 2831W        W19015   9.009   6.803   3.350 -0.0328 -0.3438  0.4625
 2832W        W19016   1.211  10.181  15.813 -0.2963 -0.0018 -0.2156
 2833W        W19017   7.546   3.103  12.809 -0.1371 -0.1605  0.0198
 2834W        W19018  14.290   3.518  12.133 -0.1306 -0.0875  0.2287
 2835W        W19019  15.682  10.299   5.614 -0.2578 -0.1591  0.4102
 2836W        W19020   7.179  10.800  14.622 -0.0734  0.2401  0.2409
 2837W        W19021   7.431  14.441  12.207 -0.0582  0.0982  0.1590
 2838W        W19022  11.744   3.473   2.608  0.3334 -0.1598 -0.1190
 2839W        W19023  16.332  14.583   0.883 -0.0830 -0.1599  0.0626
 2840W        W19024  15.815  16.851  14.312 -0.1538 -0.0079  0.0923
 2841W        W19025  12.054  18.295  13.561 -0.2277 -0.1181  0.1536
 2842W        W19026   9.238  18.071  11.798  0.0947 -0.0997 -0.1605
 2843W        W19027   9.035  17.665  12.101 -0.0828  0.4636 -0.0953
 2844W        W19028  15.599   2.008  12.592  0.2145 -0.1594 -0.2391
 2845W        W19029   7.184   9.505   2.443 -0.2912 -0.1782 -0.1418
 2846W        W19030   9.220   3.468  15.016  0.0735  0.0655 -0.0755
 2847W        W19031   6.328   7.330   0.296  0.1928 -0.2001 -0.0905
 2848W        W19032   3.964   1.232  11.272  0.1710  0.0434 -0.0212
 2849W        W19033   8.606  11.104   5.512  0.1589 -0.0731  0.0429
 2850W        W19034  17.237   7.527  11.501  0.1309  0.1457 -0.4780
 2851W        W19035  13.257  10.459   0.068 -0.0672  0.0392  0.0226
 2852W        W19036  11.714   7.588  12.367 -0.0962 -0.1717 -0.0817
 2853W        W19037   0.098   3.108  10.783 -0.1327 -0.3622 -0.1737
 2854W        W19038   2.149  11.113  12.701 -0.0978  0.1907  0.2153
 2855W        W19039   3.488  12.481   0.102 -0.0621  0.0003 -0.0747
 2856W        W19040  12.869  15.666   4.391  0.1047  0.2113  0.2079
 2857W        W19041   5.197   8.124   4.173  0.0215  0.2340  0.1177
 2858W        W19042   1.860   4.161   2.365  0.1762  0.0230  0.1303
 2859W        W19043  17.970   1.652  14.019 -0.2818 -0.2649 -0.0222
 2860W        W19044  16.661   4.852  14.062 -0.2978  0.0078 -0.2542
 2861W        W19045   1.415  10.613  13.007 -0.1225  0.0145  0.0328
 2862W        W19046  12.683   5.686  12.777 -0.0311  0.2112  0.1991
 2863W        W19047  18.434   6.295   4.759 -0.1977  0.1232  0.0012
 2864W        W19048   7.239   8.986  15.997  0.1295  0.0468 -0.0195
 2865W        W19049   6.944  10.182   1.078  0.1798 -0.1503  0.1542
 2866W        W19050   1.651  13.091   3.621  0.0532 -0.0077 -0.2283
 2867W        W19051   2.996   0.436   3.765 -0.4229 -0.3639  0.5164
 2868W        W19052   7.412  12.801  15.070 -0.1454 -0.0133  0.1490
 2869W        W19053   1.314   5.686  15.195 -0.1496 -0.1630  0.2264
 2870W        W19054   9.946  10.666   3.881  0.1515 -0.0375  0.0357
 2871W        W19055   4.185   0.115  12.626 -0.2780  0.3189 -0.0936
 2872W        W19056   5.262  12.891   3.041 -0.1055  0.0908 -0.0188
 2873W        W19057  16.102   2.755  14.780 -0.0531  0.1307  0.0152
 2874W        W19058   5.019   0.720   1.062  0.0703 -0.1250 -0.1771
 2875W        W19059   7.200  18.040  14.512 -0.1914 -0.0094 -0.4639
 2876W        W19060  18.131   2.387   0.047 -0.0323 -0.0952 -0.1488
 2877W        W19061   0.624   6.901   1.274 -0.0043 -0.2116  0.0035
 2878W        W19062  14.467  17.881   4.822  0.1778 -0.1245  0.0658
 2879W        W19063   4.649   5.433  14.840 -0.1461  0.2096 -0.0689
 2880W        W19064   1.035   2.087  12.773 -0.3621  0.0214 -0.0606
 2881W        W19065   3.395   2.725  12.718 -0.1391 -0.2658 -0.1418
 2882W        W19066   4.180   5.778  13.733 -0.5295  0.0936  0.0027
 2883W        W19067   2.478   7.438  11.264 -0.0108 -0.2733  0.0774
 2884W        W19068  10.190   9.959   1.123  0.0145  0.2135 -0.0150
 2885W        W19069   9.286  12.444   5.157 -0.0575 -0.3486 -0.2242
 2886W        W19070   7.412   0.083   5.151 -0.0335  0.1522 -0.0775
 2887W        W19071   7.083  13.926   2.747 -0.1356  0.0659  0.0944
 2888W        W19072  11.532  12.769   5.056 -0.2216  0.0639  0.2377
 2889W        W19073   7.550  12.331   4.048  0.2134 -0.0620 -0.2153
 2890W        W19074   6.300  11.586  11.922 -0.2775 -0.1009 -0.1326
 2891W        W19075  15.162  12.332   4.354  0.0463 -0.3052 -0.0727
 2892W        W19076   8.250  12.422  14.760  0.1277  0.1450  0.2822
 2893W        W19077  14.211  15.791   5.348 -0.2287 -0.1921 -0.0423
 2894W        W19078   4.869   9.497   4.235  0.1633  0.1420  0.0842
 2895W        W19079  14.867   3.601  16.057  0.2758  0.2559 -0.0943
 2896W        W19080   6.247   5.936   1.135 -0.2039  0.0036  0.1339
 2897W        W19081  16.484   2.191  12.541 -0.0126  0.2007  0.0746
 2898W        W19082  10.391  13.554  15.659 -0.2957 -0.1845 -0.0639
 2899W        W19083   2.519  10.017  14.265 -0.2506  0.2701  0.0242
 2900W        W19084   6.657   9.689  13.278 -0.1179 -0.0285  0.0529
 2901W        W19085   7.234   6.448  15.384 -0.0433 -0.0732 -0.1097
 2902W        W19086   1.288  12.095   4.675  0.1977  0.1232  0.0897
 2903W        W19087   0.883   3.039   3.421  0.1109 -0.1944  0.1076
 2904W        W19088   5.413  18.129   4.186 -0.0902 -0.1179  0.0595
 2905W        W19089  10.933  10.266   2.840  0.0483  0.0531  0.1093
 2906W        W19090  12.323   5.352  14.496  0.0061  0.2613  0.2539
 2907W        W19091   2.544   6.234   0.698  0.4019  0.0375  0.2894
 2908W        W19092  12.591   5.383  15.946  0.1062  0.0361 -0.1644
 2909W        W19093  14.767   3.089   0.007  0.0082  0.1355  0.3026
 2910W        W19094  10.997  13.025  16.022 -0.1568 -0.0776  0.1740
 2911W        W19095   2.487  10.170  12.390  0.0511  0.0599 -0.1465
 2912W        W19096   0.929   9.582   3.836  0.2437  0.1534 -0.2373
 2913W        W19097  12.878  11.751   1.249  0.0534  0.1499 -0.2839
 2914W        W19098  16.954   9.685   0.367  0.1318 -0.2620  0.0612
 2915W        W19099   0.035  10.756   2.567  0.0549 -0.1410 -0.1789
 2916W        W19100  12.354  13.640  13.668  0.1062  0.0556 -0.2430
 2917W        W19101   8.779   3.102  15.244 -0.0204  0.0391  0.3120
 2918W        W19102   5.379  14.440   5.836 -0.1100  0.2264 -0.0137
 2919W        W19103   2.577   9.779  13.196  0.1069  0.2663 -0.0225
 2920W        W19104  11.689   6.347  13.735 -0.2418  0.2052  0.1068
 2921W        W19105   0.755   4.148   0.851 -0.0167 -0.1142 -0.2124
 2922W        W19106   7.763   1.739  15.264 -0.2004 -0.3479  0.1419
 2923W        W19107  13.197  18.475   5.352 -0.1369  0.1696  0.2061
 2924W        W19108   8.979  17.877  14.055 -0.0124  0.2949  0.1498
 2925W        W19109   0.124   0.919   1.398  0.0544  0.1711 -0.0547
 2926W        W19110   1.122  14.616   2.830 -0.0148  0.0089 -0.3823
 2927W        W19111   1.118   6.755   1.355  0.1319  0.1554 -0.0742
 2928W        W19112   7.805  16.953  12.440  0.1568  0.2442  0.0557
 2929W        W19113  12.436  11.395   2.014  0.0564 -0.0861  0.3772
 2930W        W19114  11.283   9.986  13.452 -0.0096  0.0231  0.1079
 2931W        W19115   6.509  11.777   5.443 -0.1294  0.1846  0.1420
 2932W        W19116  12.026  12.739   5.031  0.2287  0.1532 -0.3074
 2933W        W19117  12.182   1.942  11.389 -0.0134 -0.1515  0.0299
 2934W        W19118  17.198   8.356  13.566  0.0830  0.0464 -0.0888
 2935W        W19119  13.579  15.833   1.669 -0.3204 -0.2377  0.0210
 2936W        W19120  11.150   4.983  15.212  0.0867  0.1368 -0.2075
 2937W        W19121  18.298   5.772   4.170 -0.1149 -0.0586  0.0965
 2938W        W19122  11.194   1.673  15.419  0.1027  0.2060  0.2683
 2939W        W19123  11.678   8.916  11.493 -0.2617 -0.1006  0.0915
 2940W        W19124  13.429   8.682  15.014  0.1738 -0.1943  0.0748
 2941W        W19125  17.994  12.708   1.609 -0.1517 -0.1807 -0.1880
 2942W        W19126  11.113  15.772   2.348  0.0362  0.3248  0.1435
 2943W        W19127  12.135   8.627   1.563 -0.2924 -0.1657  0.1939
 2944W        W19128   1.579  15.772   9.663  0.2202 -0.0107  0.0540
 2945W        W19129   3.804  16.588   3.431  0.0080 -0.1621  0.2142
 2946W        W19130  18.245  15.924   1.717  0.0028 -0.0918 -0.2489
 2947W        W19131   9.516   9.482   4.348 -0.2433 -0.0509 -0.0147
 2948W        W19132  14.412   2.021  15.835  0.1046  0.3134 -0.3480
 2949W        W19133  12.106   9.591  11.909 -0.1152  0.2698  0.6330
 2950W        W19134  14.952  18.023   4.111  0.0819 -0.1595  0.0555
 2951W        W19135   2.561  12.969  11.351  0.1400  0.6113 -0.1329
 2952W        W19136  16.510   6.104  12.929 -0.2984 -0.1029  0.2032
 2953W        W19137   4.309   9.819   0.561 -0.2952  0.2980 -0.0167
 2954W        W19138   3.608   4.670  13.611 -0.1089 -0.4408  0.0828
 2955W        W19139   1.450  15.587  15.482 -0.0032  0.2744 -0.5972
 2956W        W19140  13.158   1.938   2.397  0.1702 -0.1714  0.1281
 2957W        W19141   3.779   2.389   0.045  0.1423 -0.1676 -0.1858
 2958W        W19142   4.430  13.245  14.848  0.0828  0.0015 -0.0948
 2959W        W19143   2.487  13.923  14.641  0.0600 -0.1085  0.0911
 2960W        W19144  11.240  13.299   3.586  0.0372  0.2741 -0.4506
 2961W        W19145   1.013  12.614   3.355  0.1598  0.0509  0.0418
 2962W        W19146   4.788  11.680   3.419  0.1766  0.2600  0.2404
 2963W        W19147  12.185   6.861   1.430  0.0822  0.0646 -0.1576
 2964W        W19148   1.589  10.456   1.706 -0.3100 -0.0696  0.1183
 2965W        W19149  17.516   6.730   0.053  0.2277  0.0240 -0.1907
 2966W        W19150   8.580   1.601  13.227  0.1244 -0.0722 -0.2956
 2967W        W19151   8.292   0.493   4.534  0.2100 -0.1790  0.1071
 2968W        W19152  15.132   2.847  14.334 -0.0610 -0.3288 -0.1535
 2969W        W19153  14.478   9.506   4.787 -0.1669  0.2085 -0.4661
 2970W        W19154   5.251  18.173   5.139  0.0801  0.1343  0.0520
 2971W        W19155   6.928  17.467  12.470 -0.3577 -0.0378  0.1959
 2972W        W19156   5.338   5.007  11.497 -0.0442 -0.3241 -0.0679
 2973W        W19157  16.991  17.990  11.649  0.1937 -0.0216  0.2012
 2974W        W19158  16.731  10.128   1.543 -0.0409  0.0571 -0.1773
 2975W        W19159   2.665   3.775  14.941  0.2956 -0.0650 -0.1388
 2976W        W19160   7.726  14.982  14.685  0.0024  0.1912  0.0188
 2977W        W19161   5.041  12.428   2.195  0.0360  0.3725  0.1723
 2978W        W19162   6.375   6.979  12.232  0.0160  0.2153  0.3072
 2979W        W19163   3.313   4.194  12.448 -0.0422 -0.0558 -0.3217
 2980W        W19164   8.199   9.326  12.201 -0.1171 -0.0188  0.2658
 2981W        W19165   5.562   6.320   5.385  0.1028 -0.1041  0.0529
 2982W        W19166   3.906   2.263   2.916 -0.4664 -0.2114  0.2144
 2983W        W19167  17.783   1.078  14.954 -0.0809 -0.1033 -0.0170
 2984W        W19168  13.773  16.084   0.928 -0.3313  0.3065 -0.1993
 2985W        W19169   5.306   3.493   2.012 -0.2033 -0.0200 -0.2627
 2986W        W19170   0.587   5.805  14.108  0.3845 -0.1420 -0.0633
 2987W        W19171   6.486  12.541   4.720 -0.3078 -0.1417  0.1597
 2988W        W19172   0.212  15.117   0.042 -0.0165 -0.2483  0.1495
 2989W        W19173  11.727  14.194  12.120 -0.0632 -0.1468  0.1012
 2990W        W19174   0.642  18.240   1.995 -0.1452  0.2213 -0.0962
 2991W        W19175   2.916   3.345   5.099  0.1384 -0.0193 -0.0578
 2992W        W19176  17.977   1.141  15.695  0.1527 -0.0538  0.1479
 2993W        W19177   6.516  16.001  15.173  0.2502 -0.0871 -0.2096
 2994W        W19178   4.247   8.447   2.608 -0.1988 -0.3697  0.1186
 2995W        W19179  10.383   2.525  13.774  0.0201  0.1203 -0.0168
 2996W        W19180   5.455   6.417   0.659 -0.2151  0.1052 -0.0645
 2997W        W19181   1.114   7.777  15.395  0.1530  0.0296  0.1493
 2998W        W19182   8.159  17.731  13.898  0.1359 -0.0499 -0.0359
 2999W        W19183   5.605   1.376   0.098  0.1307 -0.1827  0.0072
 3000W        W19184   2.156   4.161   5.012 -0.1864 -0.2562 -0.2448
 3001W        W19185   9.871  12.920   1.690  0.1319  0.0484  0.0178
 3002W        W19186  17.041   1.948  13.953  0.0223 -0.1030  0.0140
 3003W        W19187   6.844   9.016   2.473 -0.1531  0.1442 -0.1513
 3004W        W19188  14.554   0.744  10.489 -0.4103 -0.0504 -0.1563
 3005W        W19189   9.768   5.096  11.548 -0.0534  0.0024  0.1912
 3006W        W19190   2.860  17.322   4.257  0.0186 -0.2859  0.1361
 3007W        W19191  17.708   4.019   5.848  0.1834  0.0574 -0.0935
 3008W        W19192   8.227  11.046   3.086  0.0499 -0.0659  0.1129
 3009W        W19193  13.168   8.933   4.746  0.1577  0.0782 -0.1814
 3010W        W19194  16.132  14.760   5.108 -0.2755  0.2340 -0.0649
 3011W        W19195   3.091  17.209   4.828  0.0224  0.3761  0.2579
 3012W        W19196   7.647  18.038   2.977 -0.0776  0.1804 -0.1958
 3013W        W19197  13.674   1.856   3.369 -0.0220 -0.1438  0.0783
 3014W        W19198  12.619  12.782  12.002  0.1268 -0.3664 -0.4337
 3015W        W19199   8.380   8.722   2.175  0.2710 -0.0978  0.1132
 3016W        W19200  16.634   7.286   3.030 -0.1382  0.2995  0.1945
 3017W        W19201  13.691  11.789  12.158 -0.1603  0.1762  0.2910
 3018W        W19202   1.368  16.927  13.800  0.2322  0.0901  0.6291
 3019W        W19203   2.936   2.350   0.432  0.0863  0.0821  0.0984
 3020W        W19204  13.343   1.080   0.304  0.2046 -0.0167  0.2634
 3021W        W19205  11.217   4.813  12.713  0.2370  0.0276  0.2691
 3022W        W19206  16.219   1.990   1.223  0.0932 -0.0810 -0.1134
 3023W        W19207  14.807  13.582   3.234 -0.1975  0.0175 -0.2365
 3024W        W19208   9.354   0.662   3.512  0.1218  0.0176 -0.0562
 3025W        W19209   0.965   7.669  11.928 -0.1826 -0.3368 -0.0159
 3026W        W19210  14.457   7.729  15.359 -0.0836  0.1951  0.0400
 3027W        W19211  18.273   6.425  15.139 -0.1267  0.3711 -0.1447
 3028W        W19212   4.867   4.385   0.817 -0.2250 -0.1155  0.1275
 3029W        W19213   7.062   7.726  12.298 -0.2023  0.0123 -0.0383
 3030W        W19214  12.248   4.357   1.639 -0.0332  0.1976  0.0035
 3031W        W19215  15.258  10.183  11.325  0.5037 -0.4253 -0.0103
 3032W        W19216  18.399   1.180   4.101  0.3635 -0.0852  0.1663
 3033W        W19217   5.015  12.056  12.237  0.0288 -0.1924 -0.0266
 3034W        W19218   1.864   5.273   1.110  0.3247  0.0220  0.2028
 3035W        W19219   1.303  17.046  15.640  0.0011  0.0435 -0.0667
 3036W        W19220  16.325   8.779   1.096  0.0174 -0.1260  0.0225
 3037W        W19221   4.963   5.956   1.723  0.0950  0.3098 -0.0842
 3038W        W19222   2.000  14.002  14.888  0.0656 -0.1348 -0.0868
 3039W        W19223  15.483  13.033  11.456  0.0997 -0.0527  0.3533
 3040W        W19224   4.173   7.562   0.867  0.1447  0.1172  0.4005
 3041W        W19225   0.253  15.498  14.169  0.0049  0.0991 -0.3963
 3042W        W19226  12.673  17.047  10.989  0.2158  0.0234 -0.0390
 3043W        W19227  12.260   5.146   4.381 -0.2562 -0.1296  0.1610
 3044W        W19228  17.104   4.067   5.946  0.2583  0.0703  0.0768
 3045W        W19229  18.374  16.731   0.743  0.0446 -0.0932 -0.1997
 3046W        W19230   8.708  10.646   5.456  0.0089 -0.1274  0.0311
 3047W        W19231  15.778  11.545   2.959  0.2707 -0.0502  0.1263
 3048W        W19232  13.528   1.389   3.157  0.1193  0.2867 -0.1884
 3049W        W19233  10.727  17.336   0.963  0.0929  0.1531 -0.2691
 3050W        W19234  13.586   1.484  11.839 -0.1306 -0.2398  0.1681
 3051W        W19235  11.584  13.327   3.053  0.0653  0.4191 -0.1213
 3052W        W19236   1.605  14.279  16.014 -0.2486  0.0449  0.0719
 3053W        W19237   4.310  17.269  12.607  0.2476  0.1886 -0.0234
 3054W        W19238  17.499   9.719   0.385 -0.1326  0.2841  0.1310
 3055W        W19239   9.945  14.902   0.998 -0.0610 -0.2739 -0.0184
 3056W        W19240   2.765   0.871  10.943  0.0655  0.0092  0.0400
 3057W        W19241   2.011   9.601   4.417  0.1123 -0.0100  0.2201
 3058W        W19242   3.906  13.775  15.018 -0.3964  0.0351 -0.0589
 3059W        W19243   7.544  16.912   1.860  0.0021  0.3086  0.0768
 3060W        W19244   5.784   8.855  14.797  0.0580 -0.0425 -0.0388
 3061W        W19245  13.828  17.638  12.781 -0.2339  0.1566 -0.3177
 3062W        W19246  11.956  14.326  14.446 -0.0204 -0.1266  0.1530
 3063W        W19247  13.731   8.512  14.607  0.0503  0.2008  0.1369
 3064W        W19248   4.930   2.423   1.676 -0.3476  0.2857 -0.1889
 3065W        W19249   4.418   0.546   2.029 -0.3542  0.0072 -0.2146
 3066W        W19250   2.570  15.619   0.329 -0.4606 -0.1471 -0.1476
 3067W        W19251  10.576  16.700  12.088  0.2248  0.1622  0.1287
 3068W        W19252   0.420   5.568  15.012 -0.1832 -0.2615 -0.2693
 3069W        W19253   1.167   4.944  11.699  0.2604  0.0833  0.1437
 3070W        W19254   3.234   3.224   0.263  0.2501  0.0516  0.0075
 3071W        W19255   2.508  15.253  14.879 -0.0081 -0.0850  0.2767
 3072W        W19256  14.739   1.771  15.509 -0.0917  0.1021  0.0063
 3073W        W19257   6.892  14.523  13.229 -0.2117 -0.2117  0.2584
 3074W        W19258  15.783  17.675   2.316  0.3011  0.0984  0.2175
 3075W        W19259  14.137  12.892  15.322  0.0415  0.3728  0.0305
 3076W        W19260   2.042  12.783  13.004  0.1144  0.4756 -0.0718
 3077W        W19261  12.001   4.702   0.910  0.0245  0.2650  0.2240
 3078W        W19262   6.457   8.756  15.960 -0.1110  0.1225 -0.2188
 3079W        W19263  16.301  11.152  14.158  0.2704 -0.2176  0.3466
 3080W        W19264   8.066  10.670  11.151 -0.1544 -0.0226 -0.3136
 3081W        W19265  14.331  13.004   4.263 -0.1346 -0.1174  0.0359
 3082W        W19266   1.546   8.787   1.526 -0.0088 -0.1083  0.3588
 3083W        W19267  12.659   9.924  12.903  0.3397  0.4158 -0.2288
 3084W        W19268   3.548  14.026   3.081 -0.0219 -0.2736 -0.0941
 3085W        W19269  14.279  12.116   4.921 -0.0933  0.0934  0.4818
 3086W        W19270   5.317   1.063  15.394 -0.3426 -0.0654  0.1274
 3087W        W19271  16.581  15.036  11.368  0.0630  0.1031  0.2439
 3088W        W19272  13.859  13.699   2.241  0.0837  0.1900  0.0554
 3089W        W19273  17.407   2.192  14.821 -0.0476  0.4239  0.0452
 3090W        W19274  11.515  16.190   0.136  0.0368 -0.0642 -0.1024
 3091W        W19275   7.554  17.672   1.928 -0.2482 -0.1928  0.4679
 3092W        W19276  15.570  10.314   3.483  0.5776 -0.1533  0.2210
 3093W        W19277  13.175   9.661   0.873 -0.1834 -0.0328 -0.2246
 3094W        W19278   1.609   8.989  12.811 -0.0085 -0.0774 -0.1455
 3095W        W19279   6.329   4.698   5.113  0.1559  0.2463 -0.0204
 3096W        W19280  10.813   0.567   1.060 -0.4636 -0.2473  0.1483
 3097W        W19281  13.012  10.084  12.095 -0.3780 -0.1341 -0.1421
 3098W        W19282  10.371   2.501   4.686  0.0568 -0.2229 -0.0082
 3099W        W19283  13.742   0.707  13.168 -0.2409 -0.0672  0.2138
 3100W        W19284   3.847   1.033  13.142  0.0519  0.2374  0.0351
 3101W        W19285  11.867   7.575  12.807 -0.0579 -0.0556  0.0164
 3102W        W19286  14.324  16.587   4.660 -0.1527  0.3461 -0.2765
 3103W        W19287  16.680   9.577   1.398  0.2579 -0.2742 -0.1018
 3104W        W19288  12.447   7.122   0.992  0.2294 -0.0480 -0.2233
 3105W        W19289   1.723   7.108  15.014  0.1319 -0.0126  0.1955
 3106W        W19290  13.116   8.805   3.833  0.0175 -0.0915  0.1291
 3107W        W19291  17.197   5.849   2.862  0.3004  0.0605 -0.0889
 3108W        W19292  17.994   0.842  13.746 -0.1111  0.0955  0.3123
 3109W        W19293   3.227   4.077   0.900 -0.0722  0.0571 -0.1946
 3110W        W19294   9.440  15.533  11.816  0.0414 -0.1765  0.1693
 3111W        W19295   0.291  10.584  11.415  0.2462  0.1276  0.0210
 3112W        W19296  11.822   3.615   3.760 -0.1214  0.0926 -0.0245
 3113W        W19297   0.651   6.928   0.562 -0.3498 -0.2146  0.2339
 3114W        W19298  14.771  14.018  13.541 -0.3748 -0.1860 -0.0160
 3115W        W19299   6.571  13.898   1.850 -0.0337 -0.0113  0.3063
 3116W        W19300   7.136   3.483   5.567  0.0459  0.2754  0.2983
 3117W        W19301   7.670   7.765   3.519  0.0355  0.0487 -0.1023
 3118W        W19302  10.805  17.072  15.209  0.0800 -0.1406 -0.1354
 3119W        W19303  10.062  11.793  11.706  0.0515  0.0701 -0.5637
 3120W        W19304  14.329  16.868  12.383 -0.1176  0.4899 -0.0629
 3121W        W19305  12.012   0.058   0.584 -0.2570 -0.4654  0.1016
 3122W        W19306  16.452   1.833  11.051  0.1363 -0.0689 -0.0247
 3123W        W19307   5.279  10.533  11.305  0.1466 -0.1720  0.2893
 3124W        W19308  16.933  17.705  14.060 -0.2730 -0.4022 -0.0014
 3125W        W19309  15.525  17.606  13.076 -0.0799 -0.2297  0.1128
 3126W        W19310  13.649   1.263  12.239  0.1327  0.1336  0.0976
 3127W        W19311   4.966   3.048   4.293 -0.2998 -0.0788 -0.1013
 3128W        W19312   4.101  16.154   0.229 -0.0985 -0.2872 -0.0332
 3129W        W19313   8.691   8.524  13.565 -0.1509 -0.4617 -0.3565
 3130W        W19314  12.586  14.607  10.628 -0.3422 -0.0461 -0.1816
 3131W        W19315  17.396   5.659   0.125 -0.2519 -0.2767  0.1235
 3132W        W19316   3.246  16.020  10.623  0.4054  0.0031  0.1626
 3133W        W19317   5.998  14.288   0.819  0.0911 -0.1239 -0.0781
 3134W        W19318   0.730   6.469   0.879  0.1898  0.2363  0.3027
 3135W        W19319   2.094  17.326  15.007 -0.0987  0.2170 -0.0035
 3136W        W19320  14.304  10.706   5.918  0.0826  0.0710  0.0947
 3137W        W19321  13.254   9.652   4.234  0.1201 -0.0139 -0.1307
 3138W        W19322   7.070   5.672   3.243 -0.0786 -0.2802  0.1741
 3139W        W19323   8.337  17.645   5.389  0.1678 -0.2670 -0.0920
 3140W        W19324  10.874   1.303  13.242  0.1638  0.0370  0.2515
 3141W        W19325   3.236   6.603   0.946 -0.0548  0.0230 -0.0770
 3142W        W19326   0.198  12.150   4.316 -0.0998 -0.1293  0.0305
 3143W        W19327   5.709  12.737  10.981  0.0156  0.3421  0.1984
 3144W        W19328   9.156   1.947   5.930  0.0154 -0.2552  0.2270
 3145W        W19329  10.127  14.782  15.310 -0.1516  0.3843 -0.0785
 3146W        W19330   9.096   6.259  14.451  0.1059 -0.0556 -0.0711
 3147W        W19331  17.963   6.475   3.940 -0.2296 -0.0510 -0.2182
 3148W        W19332   1.799   3.101  13.070 -0.0483 -0.2890 -0.1503
 3149W        W19333   4.865   6.162   5.388 -0.0333  0.0315 -0.2143
 3150W        W19334   1.207  16.493   0.131  0.3185 -0.3183 -0.0484
 3151W        W19335   3.580   7.574   3.315 -0.2848  0.3087  0.1946
 3152W        W19336   5.302  17.508   1.014 -0.0937  0.1217  0.1435
 3153W        W19337   8.528  16.148   0.545 -0.1126 -0.0737  0.1255
 3154W        W19338  11.901   3.198   3.188  0.0713 -0.0091  0.3801
 3155W        W19339   5.695   5.072   4.068  0.1453  0.0646  0.0056
 3156W        W19340  12.171   2.853  13.345 -0.1750  0.1010  0.3007
 3157W        W19341  11.060  10.495  13.519 -0.0509 -0.0705 -0.0749
 3158W        W19342   3.992   8.966  13.860 -0.2987  0.2274 -0.0817
 3159W        W19343   5.968   2.149  15.255 -0.0424  0.0341  0.0582
 3160W        W19344  13.787  12.021  14.745  0.0501  0.0355 -0.0267
 3161W        W19345   8.053  15.690  13.114 -0.0635  0.1413 -0.1733
 3162W        W19346   6.057   3.839   2.988 -0.0130  0.2965  0.1569
 3163W        W19347   7.136  12.656  13.848  0.1140 -0.0748 -0.2017
 3164W        W19348   5.521   2.306   3.716  0.0395  0.0129  0.1075
 3165W        W19349   5.956   9.178   2.100  0.1762 -0.1128  0.0335
 3166W        W19350   9.730  10.250  14.276 -0.3041 -0.0042 -0.1623
 3167W        W19351   9.000  10.584   2.509 -0.0042  0.0845 -0.2596
 3168W        W19352  17.348   3.241   3.120 -0.1026 -0.0275  0.5160
 3169W        W19353  16.128   6.433   1.152 -0.0982  0.2318 -0.0970
 3170W        W19354  14.526   6.866   4.773 -0.2657  0.4050  0.1273
 3171W        W19355  11.949   7.627  15.067  0.1137  0.0451  0.0359
 3172W        W19356  15.310  16.858   3.233  0.0661  0.0072  0.0481
 3173W        W19357  17.586   0.627  12.403  0.1219 -0.4784 -0.2815
 3174W        W19358   5.435  12.039   1.452  0.0744  0.0227  0.0213
 3175W        W19359  13.059   8.767  15.850 -0.1947  0.2542 -0.0376
 3176W        W19360   4.330   1.755   5.150  0.2668 -0.1334  0.1552
 3177W        W19361   2.313   6.025   1.702 -0.0265 -0.4318  0.2115
 3178W        W19362  10.076  15.108   0.557 -0.0177 -0.0698  0.0178
 3179W        W19363  15.252   9.537   0.886  0.1133  0.4353  0.1504
 3180W        W19364   9.876  17.527  12.145 -0.2605 -0.1705  0.0523
 3181W        W19365  17.621   6.169   4.567 -0.2277 -0.0905  0.0570
 3182W        W19366  12.046  17.459  13.974 -0.2331 -0.3853 -0.2452
 3183W        W19367   8.070   4.645   4.415 -0.3521 -0.2105  0.1331
 3184W        W19368  13.199  12.758  13.620 -0.0155  0.1536 -0.0337
 3185W        W19369  14.464   7.280  12.514  0.0802  0.2749  0.0624
 3186W        W19370   6.461  16.182   1.980 -0.0308 -0.0395 -0.0729
 3187W        W19371  14.881  11.040  16.004 -0.2338 -0.0995 -0.0017
 3188W        W19372  16.096   4.246   0.898 -0.3358  0.3361 -0.0658
 3189W        W19373   9.639   2.611  14.099  0.1428  0.0552 -0.2364
 3190W        W19374  14.017   4.386   0.210 -0.1377  0.0104 -0.1360
 3191W        W19375   5.618  14.217   4.791  0.4005  0.1030 -0.1198
 3192W        W19376  11.273   5.102   5.310  0.0936 -0.3188  0.0994
 3193W        W19377   7.344   7.166   0.325 -0.2174 -0.1930 -0.1003
 3194W        W19378  13.116   0.999  14.052 -0.3894  0.0674 -0.0537
 3195W        W19379   2.948   1.201  13.274  0.2649  0.2411  0.0663
 3196W        W19380   6.616  12.778   5.551 -0.0345  0.1187 -0.0352
 3197W        W19381  16.001   6.256  14.482  0.1074 -0.0076  0.0070
 3198W        W19382   2.311   0.148  15.580 -0.4848 -0.3264  0.2423
 3199W        W19383   6.478   8.753   0.354  0.2249 -0.3574  0.0429
 3200W        W19384  16.010  16.371  15.557 -0.2814 -0.1631  0.2584
 3201W        W19385   5.155   7.331  14.845 -0.0449  0.1339 -0.4908
 3202W        W19386  11.365   0.242  16.072  0.0246 -0.2740  0.2435
 3203W        W19387   2.901   4.924   2.386  0.1579  0.0898  0.0301
 3204W        W19388  14.155  14.085   6.004  0.2828  0.1523 -0.2377
 3205W        W19389  14.000   5.432  12.050 -0.0942 -0.1951  0.1400
 3206W        W19390   0.111  17.763   4.962 -0.3116 -0.1126 -0.1090
 3207W        W19391   0.490  16.994   5.588 -0.0678  0.1820  0.0451
 3208W        W19392   8.679   3.511  12.168  0.0265  0.1083 -0.2427
 3209W        W19393   0.851   1.419  11.965  0.1074  0.2458  0.0366
 3210W        W19394   0.378  11.044   2.347  0.2333 -0.0917  0.0756
 3211W        W19395   0.615   8.258   3.679 -0.0983  0.2104 -0.1120
 3212W        W19396  14.582  17.774  15.565 -0.1313 -0.0344  0.3058
 3213W        W19397  11.732  13.208  11.760 -0.0125  0.1972  0.1053
 3214W        W19398   6.702   4.562   5.511 -0.0656  0.1313  0.0185
 3215W        W19399  18.013   7.883  12.533 -0.1689  0.3143 -0.1190
 3216W        W19400  18.406   9.687  15.274 -0.0807  0.1738  0.2557
 3217W        W19401   0.533  17.576  10.211 -0.0193  0.2203  0.1933
 3218W        W19402   7.577   1.788   4.762  0.2421 -0.2343 -0.0177
 3219W        W19403   7.133   5.406  13.194  0.1427  0.0122  0.3220
 3220W        W19404   9.047   9.373   6.106 -0.2440 -0.2668  0.3092
 3221W        W19405   5.465   8.784   3.908 -0.0050  0.1180  0.2875
 3222W        W19406  14.180   2.391  10.791 -0.0639 -0.1025  0.0035
 3223W        W19407  15.041  12.513  14.320  0.0264  0.0069  0.0578
 3224W        W19408   1.391  17.077  11.928  0.1443 -0.3899  0.1546
 3225W        W19409   1.990  10.260   3.246 -0.1290  0.2031 -0.3859
 3226W        W19410   2.207  15.872  11.183 -0.0174  0.0418 -0.1315
 3227W        W19411  16.338  11.651   4.216 -0.0486  0.2685  0.1722
 3228W        W19412  15.781   8.884   1.530 -0.0973 -0.3153 -0.0357
 3229W        W19413  11.669   3.624   0.930 -0.3976 -0.0340 -0.0569
 3230W        W19414   4.337  11.682  15.692 -0.1581 -0.3412 -0.0344
 3231W        W19415   4.670   4.329   2.933 -0.1205 -0.0087 -0.0393
 3232W        W19416   4.205  14.216  11.857 -0.0489 -0.1404 -0.2253
 3233W        W19417   9.001   7.280  13.657 -0.5421  0.0472 -0.2161
 3234W        W19418   9.741   5.031  12.032 -0.5462 -0.1199 -0.0885
 3235W        W19419  13.570  16.502  15.709 -0.0756  0.1425  0.0097
 3236W        W19420  18.336   7.172   4.373  0.2523 -0.0897 -0.0032
 3237W        W19421  14.547   5.495   1.341 -0.4701  0.1650  0.2651
 3238W        W19422  14.948  15.017   4.154  0.2558 -0.0452  0.0999
 3239W        W19423   0.938  10.230   2.101 -0.1438  0.1709 -0.1137
 3240W        W19424  13.395   9.092  11.889  0.1397 -0.0186 -0.2975
 3241W        W19425   9.603   8.644  14.899 -0.0058 -0.1834  0.0439
 3242W        W19426   7.694   3.101  15.134 -0.2011 -0.0216  0.0682
 3243W        W19427   6.802   8.578  12.789 -0.1732  0.1046 -0.1821
 3244W        W19428  13.694  13.083  15.615 -0.2015 -0.0103  0.0127
 3245W        W19429   5.389   0.460   2.628  0.2831  0.1592 -0.1966
 3246W        W19430   2.752   1.412   2.292  0.1306  0.0739 -0.3380
 3247W        W19431   1.780   3.955  14.360 -0.0679  0.1334  0.0670
 3248W        W19432  14.267  11.513   1.429  0.0323 -0.0632  0.1854
 3249W        W19433   3.675   6.729   4.947  0.1302  0.1508 -0.3321
 3250W        W19434  11.837  16.197  11.449  0.0318  0.0733  0.1212
 3251W        W19435  12.923   7.772   5.533  0.2307 -0.0816 -0.0615
 3252W        W19436  11.104   0.543   4.104 -0.0348  0.1818  0.3286
 3253W        W19437  14.815   3.025  11.416 -0.2841 -0.1386  0.0161
 3254W        W19438  14.411   6.133  15.323 -0.0153 -0.0957  0.0794
 3255W        W19439   0.054   0.003  10.904  0.0142  0.1589  0.3050
 3256W        W19440   9.168  10.350   0.870  0.0203  0.0300 -0.0370
 3257W        W19441  18.517  12.949   3.474  0.2602  0.2041 -0.1578
 3258W        W19442   0.639   9.158   0.051 -0.1186 -0.1745  0.2734
 3259W        W19443   7.444  10.925   4.691 -0.0124 -0.0990 -0.3875
 3260W        W19444   6.223  16.311  12.153  0.3014  0.0529 -0.0043
 3261W        W19445  11.945   9.110  13.756  0.1481 -0.0944  0.3753
 3262W        W19446  13.420   8.625  11.619 -0.0316  0.1992  0.0481
 3263W        W19447   4.817   8.481   0.756 -0.0826 -0.0889  0.0381
 3264W        W19448  15.537  15.181  13.268 -0.2039 -0.2255 -0.1819
 3265W        W19449  15.957  17.106  13.539 -0.0267  0.0649  0.0035
 3266W        W19450  15.789  11.888  14.695 -0.1732 -0.0480 -0.2105
 3267W        W19451  16.954   5.176  15.196 -0.0881 -0.2678  0.0349
 3268W        W19452  17.667  16.753   3.789  0.1851 -0.2044  0.3126
 3269W        W19453   0.395   7.050   2.509  0.1717 -0.3034 -0.1629
 3270W        W19454  10.378  13.831   3.429  0.0575  0.0007 -0.0060
 3271W        W19455  16.330  17.630  16.028 -0.0534 -0.1397  0.5123
 3272W        W19456   8.159  14.013   2.597  0.1649 -0.1963 -0.0244
 3273W        W19457  14.735  15.839   3.089  0.2459  0.3419  0.1461
 3274W        W19458  17.760   3.070   1.252 -0.2351  0.0248 -0.1301
 3275W        W19459  10.044   7.435  14.447  0.3075  0.1363  0.0296
 3276W        W19460  12.687  11.678  15.534 -0.0406 -0.1499 -0.0961
 3277W        W19461   1.441  13.465  12.559 -0.1765  0.0772  0.0582
 3278W        W19462  11.572  17.945   2.689 -0.6865  0.1367 -0.1098
 3279W        W19463   7.498   8.637  11.376  0.1365  0.0753 -0.3569
 3280W        W19464   0.361   6.520   0.382 -0.0817  0.0431 -0.1005
 3281W        W19465  10.169   6.305   1.980 -0.3009 -0.0610 -0.1181
 3282W        W19466  12.228   5.012  15.018 -0.4901  0.1706  0.1584
 3283W        W19467  12.176   1.552   4.956  0.3280  0.3501  0.0351
 3284W        W19468  15.308  11.204   1.721 -0.1079  0.0620 -0.0419
 3285W        W19469   7.725  14.624   2.024  0.2361  0.0721 -0.2173
 3286W        W19470   0.460   3.015   3.101 -0.0906 -0.0710  0.2931
 3287W        W19471   3.048  14.978  15.142  0.4026  0.2783  0.2806
 3288W        W19472   5.755  11.687  12.135  0.0992  0.0642 -0.0694
 3289W        W19473   0.792   6.563  12.665  0.2911 -0.0819  0.1632
 3290W        W19474   2.393   7.413  12.168 -0.0827 -0.1091 -0.1168
 3291W        W19475   0.437  17.497   2.308 -0.0091  0.1982 -0.2318
 3292W        W19476   1.567   2.335   6.211 -0.1489  0.5485 -0.0110
 3293W        W19477  11.317   4.290  12.706 -0.0920  0.0296  0.0210
 3294W        W19478   2.403   4.559  14.209 -0.0548 -0.2079 -0.0884
 3295W        W19479  17.384  16.186   1.166 -0.3288  0.3299 -0.1260
 3296W        W19480  15.180  15.074  12.102  0.1247  0.1603  0.0743
 3297W        W19481   3.845  15.791  12.967  0.3815 -0.1356  0.2512
 3298W        W19482  15.877   1.604  13.098 -0.1027  0.0163  0.2946
 3299W        W19483  18.356  17.557  14.189 -0.1443 -0.0901 -0.1722
 3300W        W19484   2.686   7.922   5.700  0.0535  0.0572  0.3643
 3301W        W19485   0.699  13.049   0.603 -0.0149 -0.0615 -0.0135
 3302W        W19486   7.436  15.528   0.043  0.1957  0.0681  0.2718
 3303W        W19487   5.496  12.040  13.459 -0.1767  0.3837 -0.2826
 3304W        W19488  12.461  15.006   2.465  0.0322  0.0339 -0.0421
 3305W        W19489   8.961  16.935  11.530 -0.0090 -0.1742  0.2286
 3306W        W19490   6.737  14.488   4.191 -0.0799  0.0804 -0.0086
 3307W        W19491  17.691   8.970  12.504  0.0789 -0.1127  0.1210
 3308W        W19492   1.250   4.194  12.751 -0.0763  0.0450  0.1588
 3309W        W19493   9.613  11.849  11.346  0.0321  0.1415 -0.1561
 3310W        W19494   8.063   2.501   2.614 -0.3944 -0.1191  0.1638
 3311W        W19495   1.499  16.795  12.361  0.1303  0.2618  0.1086
 3312W        W19496   0.737   8.771   1.429  0.2663 -0.0531  0.2604
 3313W        W19497  18.333  16.782  12.630 -0.2209  0.2280 -0.1355
 3314W        W19498   3.603  10.419  14.196 -0.2774  0.1238 -0.1960
 3315W        W19499   0.151  12.670   4.439 -0.0778 -0.5199  0.0369
 3316W        W19500   3.892   6.221  11.785  0.0000 -0.1871 -0.4060
 3317W        W19501   9.516   9.488   6.205  0.0863  0.0750 -0.3028
 3318W        W19502  14.910   7.943   2.548  0.1401 -0.1741 -0.2140
 3319W        W19503  17.014   4.717   4.153 -0.2050 -0.2022 -0.4181
 3320W        W19504   7.107   2.973  13.325 -0.0986 -0.0150 -0.2126
 3321W        W19505   7.271   3.513  12.601  0.1489 -0.0501  0.1429
 3322W        W19506  16.574  14.143   0.503 -0.2686  0.2063  0.0705
 3323W        W19507   5.793  16.983  14.194 -0.1909 -0.0064 -0.2671
 3324W        W19508   6.086   9.496   4.365 -0.1607  0.1868 -0.0975
 3325W        W19509   6.447   2.336  13.051  0.1102  0.1449 -0.3672
 3326W        W19510  12.066  15.175  15.850 -0.1210 -0.0340 -0.2370
 3327W        W19511  14.468   0.385  12.160 -0.1165 -0.1925  0.2803
 3328W        W19512   6.833  15.345   4.427 -0.2365 -0.1423 -0.1203
 3329W        W19513  15.489   6.308   1.695  0.2387 -0.0636 -0.0322
 3330W        W19514  16.790   9.513  15.374  0.0204 -0.0864 -0.0815
 3331W        W19515   2.575   9.035  15.009  0.1342  0.2407 -0.2607
 3332W        W19516   2.133   0.025  14.243 -0.0864  0.1015 -0.1784
 3333W        W19517   5.419   2.583  12.615 -0.0152  0.0102  0.0285
 3334W        W19518   4.914   0.511   1.515  0.3681 -0.0747  0.0506
 3335W        W19519   0.129   6.429   3.262  0.2258 -0.0083  0.1106
 3336W        W19520  15.291  11.670   2.503  0.0390 -0.3685 -0.2065
 3337W        W19521   0.237  15.506   0.576  0.2746 -0.1347 -0.2788
 3338W        W19522   6.327   2.667  14.495  0.1858  0.0087 -0.1406
 3339W        W19523   5.880  15.489  15.360  0.1806 -0.0084 -0.3704
 3340W        W19524   0.177   6.249   0.766 -0.1686 -0.0477  0.0847
 3341W        W19525  16.597   3.637  14.914 -0.0119  0.0352  0.0123
 3342W        W19526   8.931   9.218  12.975  0.2321 -0.0613 -0.1702
 3343W        W19527   5.811  14.226   3.468  0.1977 -0.0387  0.2106
 3344W        W19528  16.388  17.675   9.822 -0.2656  0.1490 -0.2551
 3345W        W19529  13.260   5.929  15.419  0.0534 -0.3574 -0.0406
 3346W        W19530   8.692  13.031   3.811 -0.0005 -0.2513 -0.1311
 3347W        W19531  12.066   4.437   5.255 -0.1376 -0.2016  0.2186
 3348W        W19532  10.364   5.550  14.734  0.2810 -0.0019  0.0784
 3349W        W19533  11.457  13.839   4.353  0.0947 -0.0419 -0.1977
 3350W        W19534   2.200  12.901   2.826  0.2062  0.0023  0.0020
 3351W        W19535   0.329  13.521   3.421 -0.0386 -0.2026 -0.1487
 3352W        W19536   0.286   7.779   3.809  0.0325 -0.1306 -0.2209
 3353W        W19537   3.826   4.860  14.959  0.1186 -0.3286 -0.2342
 3354W        W19538   7.137   5.777  10.738  0.0545  0.1662  0.0599
 3355W        W19539  12.143   1.135  13.710  0.0721  0.0495  0.0304
 3356W        W19540  15.130   3.750  13.969  0.2472  0.2819 -0.1990
 3357W        W19541   9.035  17.709   1.657 -0.3198  0.3973 -0.1248
 3358W        W19542  16.538  18.050  14.983  0.2227  0.2683  0.0079
 3359W        W19543  13.057   7.969  14.543 -0.2179  0.3162  0.0874
 3360W        W19544  12.663   3.059   2.372 -0.3006  0.0915 -0.3304
 3361W        W19545  11.754  11.646   4.931  0.0233 -0.0759 -0.2045
 3362W        W19546   3.819   1.399  10.664 -0.0242 -0.1355  0.1031
 3363W        W19547  16.040  13.991  13.921  0.2403 -0.5115  0.0308
 3364W        W19548  12.150  10.429  16.095  0.1405  0.0664 -0.0973
 3365W        W19549  15.584   4.645  11.609 -0.0863 -0.0132  0.2839
 3366W        W19550   3.544  12.420   5.230  0.1221  0.4041  0.2163
 3367W        W19551  15.398   8.584  12.633 -0.0303  0.2387 -0.0650
 3368W        W19552  17.771  18.070  11.680  0.0935 -0.1241 -0.1711
 3369W        W19553   7.608   5.214  14.409 -0.0215  0.0758  0.1078
 3370W        W19554   8.354  18.155  15.349  0.2606 -0.0646  0.0781
 3371W        W19555   0.910   7.874   3.875 -0.1999 -0.0896 -0.0043
 3372W        W19556  12.291  16.025  14.312 -0.0518  0.3008  0.1245
 3373W        W19557   8.000   9.485  13.045  0.0183 -0.3221  0.1227
 3374W        W19558   2.241   7.913  12.152  0.0821  0.1573  0.1279
 3375W        W19559  15.235  11.944  12.733  0.1728 -0.2701 -0.0679
 3376W        W19560   7.749   4.705   0.760  0.0019  0.1674  0.2414
 3377W        W19561  10.928  11.773   4.103 -0.0059  0.2259 -0.2109
 3378W        W19562   9.770  15.858  11.778 -0.0149 -0.3629  0.1088
 3379W        W19563   2.652   2.496   3.094 -0.2490  0.0110  0.2856
 3380W        W19564   4.441   4.695   1.019  0.1228 -0.0284 -0.0743
 3381W        W19565   0.748  17.059   1.219  0.3795 -0.0656  0.0434
 3382W        W19566  15.118  11.765   1.519  0.0989  0.1939 -0.1425
 3383W        W19567   0.069  17.570  13.135 -0.0055 -0.1250  0.1055
 3384W        W19568   2.769   7.901  12.270 -0.1943  0.2247  0.1635
 3385W        W19569  15.018  10.332  13.157 -0.2430 -0.2874  0.1444
 3386W        W19570  14.817   7.563   4.967  0.1310  0.1207 -0.3371
 3387W        W19571   6.157  17.036  13.776 -0.2814 -0.0277 -0.0431
 3388W        W19572   8.670  10.133  12.920 -0.0060 -0.0067 -0.3488
 3389W        W19573  14.559  13.021  14.799  0.3513  0.1798 -0.1212
 3390W        W19574  18.267  16.420   5.539  0.2687 -0.1254  0.0035
 3391W        W19575  14.984   2.878   3.902  0.1442  0.0638  0.0641
 3392W        W19576  16.930  14.344  15.500 -0.0379 -0.1028 -0.0269
 3393W        W19577  11.637  14.832   1.089  0.0262  0.0723 -0.1670
 3394W        W19578   1.708   0.368  11.384  0.3867  0.4631 -0.2592
 3395W        W19579  11.781  18.503  12.271 -0.1564 -0.1543 -0.0159
 3396W        W19580  11.865   8.495   3.626  0.2467  0.0783 -0.1035
 3397W        W19581  14.987  10.571   2.257 -0.1805 -0.0806 -0.0984
 3398W        W19582  18.194   3.658   5.047 -0.2354  0.0905  0.0848
 3399W        W19583   5.560   9.533   6.369 -0.2240 -0.0861  0.1347
 3400W        W19584   1.875  13.697  14.388  0.2325 -0.1319  0.0830
 3401W        W19585   4.856   9.011   4.065 -0.2007  0.0461  0.1810
 3402W        W19586  14.894  13.455   0.352 -0.2389  0.0050 -0.3902
 3403W        W19587   1.772   0.645   3.461 -0.0557  0.0891  0.0392
 3404W        W19588  16.951  11.317   3.672  0.0508 -0.1431 -0.1764
 3405W        W19589  18.248   2.116   1.679 -0.0519  0.0423 -0.1580
 3406W        W19590  17.624  12.871  12.123 -0.1565 -0.4230 -0.2318
 3407W        W19591  12.825   6.045  14.227 -0.0549 -0.0435  0.1357
 3408W        W19592   4.805  13.779  12.358  0.0203 -0.1263  0.0926
 3409W        W19593   2.124   4.101   2.932 -0.0254 -0.2397  0.0074
 3410W        W19594  15.139   5.168   3.808 -0.2562 -0.2905 -0.1375
 3411W        W19595  14.628   1.824   1.689  0.1946  0.0457 -0.0787
 3412W        W19596  13.668  12.118  11.695  0.1548 -0.1264 -0.0750
 3413W        W19597  12.992  15.771  14.662  0.0052 -0.0453  0.2207
 3414W        W19598   9.806   0.621  12.736 -0.0227 -0.1015  0.1270
 3415W        W19599  10.101   7.792  12.538 -0.3119  0.1193 -0.2133
 3416W        W19600   0.420  12.151  12.191 -0.0942  0.1757 -0.0382
 3417W        W19601   9.339  13.543  12.046 -0.3554  0.0323  0.0815
 3418W        W19602   2.068  15.754   3.689  0.0850 -0.0504  0.0724
 3419W        W19603  14.560  12.803  11.828 -0.1643  0.1668  0.0297
 3420W        W19604   3.696  14.538   2.893 -0.0813  0.1549  0.0507
 3421W        W19605  13.385   7.670   4.112  0.0713 -0.1407 -0.4401
 3422W        W19606   7.374   7.528  14.070  0.2498 -0.0065 -0.1009
 3423W        W19607   6.552   6.827   2.036 -0.1529  0.1848 -0.0448
 3424W        W19608  13.290   9.171   0.864  0.4117  0.2380  0.0579
 3425W        W19609  16.498  18.301   3.069  0.0805 -0.1660 -0.0812
 3426W        W19610  15.181   5.445   1.377  0.2226  0.0527  0.1135
 3427W        W19611   9.582  13.773   1.860 -0.0407  0.2268  0.2690
 3428W        W19612   6.051   3.136  12.012  0.1929  0.1040  0.0333
 3429W        W19613  15.260  13.284  13.458  0.1482  0.1271  0.1279
 3430W        W19614   1.346  11.395   1.651 -0.1987  0.1735  0.1725
 3431W        W19615   1.224  11.193   3.985 -0.2320 -0.0909  0.1171
 3432W        W19616   4.543  14.175   4.653  0.0651 -0.2355 -0.0908
 3433W        W19617   2.712   4.227  14.456  0.2039 -0.3041  0.3814
 3434W        W19618   7.491  18.390   2.638  0.0657 -0.1317 -0.2264
 3435W        W19619   1.216  12.164   1.791 -0.0839 -0.0972  0.1024
 3436W        W19620  17.330  14.341   2.053  0.1692  0.1958  0.0746
 3437W        W19621  12.247   5.709  11.369  0.0556  0.2127 -0.1222
 3438W        W19622  10.499  13.174   1.108  0.1007 -0.2055 -0.1532
 3439W        W19623  17.248  13.581  11.532  0.1885 -0.1156  0.3079
 3440W        W19624  14.502  12.513  14.275  0.5077  0.0156 -0.1080
 3441W        W19625   6.224  16.450  12.911 -0.0990 -0.2001  0.1916
 3442W        W19626  11.336   4.456   3.486  0.0412 -0.1149  0.2697
 3443W        W19627   5.739   1.851  11.478 -0.0679  0.1001  0.0878
 3444W        W19628  17.908   3.974  15.081  0.1288  0.0446 -0.0869
 3445W        W19629  13.772  11.919   5.073 -0.2328  0.3456  0.2457
 3446W        W19630  12.749  17.555  15.500  0.1232  0.0877  0.3483
 3447W        W19631   9.416  16.579  14.317 -0.0024 -0.1430  0.4309
 3448W        W19632   9.135  17.190  11.952  0.1493  0.0645 -0.0998
 3449W        W19633  15.408   0.578  14.071 -0.2042  0.0859 -0.2277
 3450W        W19634  12.258  15.368  10.298  0.1593  0.0934 -0.0949
 3451W        W19635  11.321   5.115   2.136 -0.0086  0.0638  0.3315
 3452W        W19636   8.792  12.536  15.223 -0.2679  0.2869  0.0323
 3453W        W19637  12.557   1.138  12.933  0.0105  0.0117  0.1287
 3454W        W19638   0.638   1.660  13.356 -0.0208 -0.2127 -0.0167
 3455W        W19639  17.625   6.677   4.297  0.0456  0.1054 -0.2899
 3456W        W19640   5.041   2.967  16.026  0.0816  0.1833 -0.2062
 3457W        W19641   2.787   9.219   4.361  0.1499  0.0222 -0.1795
 3458W        W19642  16.186  18.234  12.151 -0.4312 -0.1611  0.0130
 3459W        W19643   9.699  14.363   5.130  0.0377  0.0212  0.1049
 3460W        W19644   7.218   2.298   5.157  0.2859  0.0451  0.0424
 3461W        W19645  12.886   0.477   0.184  0.2519  0.0134  0.0618
 3462W        W19646   6.369  16.447  11.464 -0.4646 -0.2037  0.2061
 3463W        W19647   2.940  17.857   3.108  0.0019  0.4163 -0.2232
 3464W        W19648   1.632  14.242   0.442 -0.2618  0.2183  0.1037
 3465W        W19649  11.502   8.877   0.351  0.1952  0.1232 -0.3471
 3466W        W19650  12.230   4.799   1.375  0.2381 -0.1378 -0.1078
 3467W        W19651   1.006   7.525   0.915  0.0055  0.2167  0.1317
 3468W        W19652   7.327   3.587   4.633 -0.0232 -0.0462  0.1541
 3469W        W19653  14.226  11.687  13.509  0.0398 -0.0881  0.2564
 3470W        W19654  14.128   6.300   3.345  0.1485  0.0773  0.2709
 3471W        W19655  12.449  12.006  12.100 -0.1010 -0.1181  0.0713
 3472W        W19656  17.730   7.737   5.284 -0.2213  0.1428 -0.3448
 3473W        W19657   4.023   0.241  13.237 -0.1760  0.0735  0.0739
 3474W        W19658   2.935   0.115  12.550 -0.1378  0.2084 -0.2650
 3475W        W19659   0.960   0.045   4.924  0.0961  0.4491  0.0071
 3476W        W19660  15.424   3.694   1.224  0.2424  0.0768 -0.0216
 3477W        W19661   7.853  11.027  11.486 -0.2940 -0.2817 -0.0501
 3478W        W19662   3.849   4.049  14.484  0.1122  0.1301  0.0894
 3479W        W19663   2.831  13.491   5.267 -0.1777 -0.2043  0.1405
 3480W        W19664   3.810   0.160   3.917  0.2635  0.0237 -0.2501
 3481W        W19665  14.063  16.807   0.735 -0.0310  0.4687  0.4694
 3482W        W19666  11.484  13.389   1.657  0.2505 -0.0987  0.0938
 3483W        W19667   0.753  14.203   2.288  0.2930 -0.0936 -0.2748
 3484W        W19668  18.333  15.611  13.859 -0.0834 -0.0463 -0.3588
 3485W        W19669   2.187  10.726   5.693  0.2435  0.2705 -0.1711
 3486W        W19670  15.523   0.037   0.637 -0.0640  0.0549 -0.1563
 3487W        W19671   4.737   0.100  13.907 -0.1675  0.0494  0.0253
 3488W        W19672   7.160   9.951  11.875 -0.0530  0.3375 -0.0188
 3489W        W19673   5.301  15.154   2.003 -0.0500 -0.0527  0.2194
 3490W        W19674   2.134   8.191   4.933 -0.1001 -0.0305 -0.3324
 3491W        W19675  14.054   8.746  13.694  0.0826  0.0043 -0.1800
 3492W        W19676  16.783  17.298  16.084  0.1830  0.4996  0.2570
 3493W        W19677   3.152   5.056  16.009 -0.2131  0.2808  0.1017
 3494W        W19678   8.215  14.854  13.289  0.3100  0.1005 -0.1027
 3495W        W19679  18.501   5.755  14.842 -0.0484 -0.1713 -0.0038
 3496W        W19680  10.080   9.796  14.419  0.2566 -0.0794 -0.0556
 3497W        W19681  14.991   9.129  14.087  0.2876 -0.1939  0.2947
 3498W        W19682  13.892   2.928   4.887 -0.3255  0.3332  0.0742
 3499W        W19683   7.777   0.975   4.897 -0.0780 -0.1618  0.2277
 3500W        W19684   6.226  12.826   5.311  0.1829  0.0201  0.0138
 3501W        W19685  13.127   5.503   4.471  0.0840 -0.2931  0.5303
 3502W        W19686   2.221  16.515  12.406 -0.0495 -0.2769 -0.2471
 3503W        W19687  14.055   0.896  11.344 -0.0150 -0.0727 -0.2299
 3504W        W19688   9.480  15.632   3.464 -0.0913  0.3424  0.0248
 3505W        W19689  10.030   2.322   0.178 -0.1367  0.0998  0.0056
 3506W        W19690  17.484   9.261   1.047 -0.0830 -0.1919 -0.0742
 3507W        W19691  13.048  15.050   3.829  0.1068  0.1032 -0.2724
 3508W        W19692  15.751   2.697   3.027  0.0052  0.0933  0.3443
 3509W        W19693   0.690  17.341  14.688  0.0121 -0.0858 -0.1314
 3510W        W19694  17.781   5.736   0.965  0.0712  0.1583  0.1152
 3511W        W19695   6.369  17.895   3.480  0.0544  0.0483 -0.1844
 3512W        W19696   0.067  13.390  13.174 -0.1942 -0.1910 -0.2102
 3513W        W19697  16.236   8.513  12.338 -0.0180  0.1873  0.2298
 3514W        W19698   7.351   8.959   2.344 -0.2027 -0.1225 -0.1184
 3515W        W19699  15.070  14.495  15.834  0.3846 -0.1378 -0.0118
 3516W        W19700   7.260  15.175   5.506 -0.1918 -0.1158 -0.0860
 3517W        W19701  12.739  12.553   0.800  0.1590  0.0907 -0.0303
 3518W        W19702   8.237   0.776   4.924 -0.0280 -0.1752 -0.1977
 3519W        W19703  12.299   6.079  15.608  0.1058 -0.2194 -0.0009
 3520W        W19704  12.804   2.508  10.866 -0.2431  0.1122  0.1467
 3521W        W19705   8.651  10.006   4.396  0.2493 -0.2513 -0.1217
 3522W        W19706  11.076   2.617   5.761  0.1550  0.0628  0.6216
 3523W        W19707   0.169  16.046   2.396  0.0427  0.1543 -0.1870
 3524W        W19708  15.281   6.954  12.074 -0.0362  0.0231  0.2774
 3525W        W19709   4.908   7.678  12.696  0.0480  0.0820 -0.1968
 3526W        W19710  17.564   9.115   4.115  0.1378  0.2174 -0.2112
 3527W        W19711   1.901  10.852  11.095  0.0079  0.0752  0.1479
 3528W        W19712   0.545  10.549  12.688 -0.2012  0.0534  0.0233
 3529W        W19713   5.947  13.037   2.140  0.0896 -0.3044  0.3711
 3530W        W19714  14.786   5.688  13.542  0.1655  0.2026 -0.0304
 3531W        W19715  11.982   2.578   3.863  0.0165 -0.3010 -0.2482
 3532W        W19716   2.747   4.586   3.693  0.2628  0.0156  0.0004
 3533W        W19717   4.090  17.026  14.469  0.0102 -0.1930  0.2134
 3534W        W19718   1.759  11.486   3.741 -0.0750  0.0386  0.2970
 3535W        W19719   4.297  11.576   0.973 -0.0338  0.0147  0.0506
 3536W        W19720   4.351  17.299   3.915  0.1559 -0.1086 -0.3308
 3537W        W19721   8.233  13.146   3.545  0.1379 -0.1007 -0.0375
 3538W        W19722   4.658   7.505   5.077  0.2303 -0.0644 -0.2500
 3539W        W19723   7.589   5.129   2.770 -0.1047  0.0355  0.6691
 3540W        W19724   3.824   8.098   2.036 -0.1733  0.4637 -0.0339
 3541W        W19725   0.840   0.252  12.145  0.0231 -0.3531 -0.0631
 3542W        W19726  16.468  16.969  13.805  0.1985 -0.0256 -0.1945
 3543W        W19727   0.345   3.123  15.963  0.2923  0.0977 -0.0887
 3544W        W19728   5.069  14.106  13.783 -0.1419  0.0903  0.0206
 3545W        W19729  14.121   3.316   3.625 -0.2078  0.1824 -0.0862
 3546W        W19730   4.746  14.982  11.623  0.0972 -0.0376  0.2206
 3547W        W19731   5.426   7.594  15.870  0.1361 -0.1591 -0.2880
 3548W        W19732  18.092  18.160  12.475  0.2299 -0.4258  0.3832
 3549W        W19733   8.569  10.641  14.697 -0.1905  0.1193  0.0702
 3550W        W19734  13.017  16.036   3.705  0.0469  0.0941  0.1145
 3551W        W19735   5.785   1.399  11.773 -0.0238  0.0025 -0.2205
 3552W        W19736  15.192   1.005  13.874 -0.1821 -0.2564 -0.2845
 3553W        W19737  12.627  14.020   2.146 -0.3343  0.1673  0.3042
 3554W        W19738  16.905  10.391   3.537 -0.4707 -0.0283  0.1894
 3555W        W19739  10.378  11.246   1.574  0.1413 -0.1620 -0.2234
 3556W        W19740   3.617   4.448  15.058  0.0434  0.2520 -0.1476
 3557W        W19741  12.989   2.835   3.939 -0.0243 -0.1234  0.1664
 3558W        W19742   2.154   3.360   1.065  0.4025 -0.0513 -0.1441
 3559W        W19743  11.577  14.660  14.522  0.2677  0.2510 -0.1488
 3560W        W19744   3.356  12.977   2.420 -0.1030 -0.1716 -0.0378
 3561W        W19745   8.869   2.835   2.128 -0.1940  0.2222 -0.1054
 3562W        W19746   8.241   7.182  15.711 -0.2782  0.1715  0.2897
 3563W        W19747  11.603   8.957  12.362  0.1598 -0.0514 -0.0222
 3564W        W19748   9.932   1.282   3.096  0.1463 -0.1168  0.0985
 3565W        W19749  17.845   7.018  12.251 -0.0526  0.0312 -0.0782
 3566W        W19750   6.915  15.030   3.441  0.0908 -0.1849 -0.4061
 3567W        W19751  16.942  15.648   3.902 -0.0991 -0.1890 -0.1584
 3568W        W19752  12.177  10.852   5.021  0.0121  0.0122 -0.2189
 3569W        W19753   0.437  13.799   3.834 -0.0541  0.1137 -0.0183
 3570W        W19754  14.365   4.610   3.298  0.0743  0.0710  0.1901
 3571W        W19755   2.156  11.172   3.765 -0.4088  0.2123 -0.0621
 3572W        W19756   3.080  10.820   1.390 -0.2821  0.0630 -0.0787
 3573W        W19757   3.281   2.077  10.224 -0.3551 -0.2332 -0.0842
 3574W        W19758   7.392   5.854   4.249 -0.1933  0.1467  0.3615
 3575W        W19759   1.125  15.438  15.052  0.2044 -0.2808  0.2541
 3576W        W19760  14.270  14.871   0.125 -0.4282  0.0552  0.1488
 3577W        W19761   5.349   6.837   0.431  0.0549 -0.3730 -0.2174
 3578W        W19762   1.624  17.644   2.017  0.0719 -0.3308  0.2748
 3579W        W19763   6.095   7.595   2.086  0.3953 -0.1555 -0.0440
 3580W        W19764  14.700   5.449  11.268 -0.0863  0.0273 -0.1129
 3581W        W19765  11.689  13.404   3.874  0.1141  0.2402 -0.5440
 3582W        W19766  11.682  11.612  15.434  0.3679  0.0501  0.0169
 3583W        W19767  11.003  15.706  15.350  0.1357 -0.0794 -0.0667
 3584W        W19768   9.434   0.902  12.940 -0.0569 -0.0583  0.0080
 3585W        W19769  12.680   2.149  11.239 -0.1191 -0.0062 -0.1934
 3586W        W19770   5.663   6.770  11.268 -0.0354  0.1267  0.0709
 3587W        W19771   7.107  16.996  16.075  0.1897 -0.0756 -0.3136
 3588W        W19772  14.304  12.563   1.588  0.2305  0.0003 -0.1139
 3589W        W19773  17.435  10.517   4.273  0.3551 -0.1368  0.0314
 3590W        W19774   3.954  16.016  11.260  0.1023  0.0022  0.1291
 3591W        W19775   6.712  10.883   3.043  0.0904  0.0063  0.0799
 3592W        W19776  15.055   9.485  10.738 -0.0287  0.0412  0.1139
 3593W        W19777   1.446   5.210  11.357  0.0561 -0.2998 -0.1016
 3594W        W19778  15.082  17.315   3.345 -0.1909  0.0885  0.1045
 3595W        W19779  15.720  14.629   1.559 -0.0682  0.0252 -0.2017
 3596W        W19780   4.052  13.105  13.909  0.1985 -0.1797  0.3913
 3597W        W19781  15.117  16.965   1.470  0.0931  0.0335 -0.1686
 3598W        W19782  10.880   7.686   5.158  0.4623  0.0984  0.4917
 3599W        W19783   4.504  15.027  12.183 -0.0393 -0.1494 -0.2338
 3600W        W19784   5.877  11.751  11.207 -0.1295  0.0871 -0.1923
 3601W        W19785   1.147   9.203   1.722  0.1477  0.0233 -0.1453
 3602W        W19786  10.487   8.382  11.366  0.2095  0.4125  0.2018
 3603W        W19787   7.553  12.475  12.225 -0.3610  0.1999  0.1808
 3604W        W19788   1.737  11.040   2.373 -0.0753  0.0388  0.0712
 3605W        W19789   5.076   7.869   1.588  0.2462  0.0166  0.0120
 3606W        W19790   3.847   3.085   5.224 -0.1692 -0.1320  0.4457
 3607W        W19791   4.849  15.346   5.591 -0.2635  0.3596 -0.2222
 3608W        W19792  10.118  17.956  13.586  0.1215 -0.0728 -0.0258
 3609W        W19793  11.980   8.273   0.135 -0.0211 -0.2090  0.2498
 3610W        W19794   4.023  11.645   5.918  0.0801  0.0688  0.3404
 3611W        W19795   9.551  11.926  13.866 -0.0918  0.0131  0.0328
 3612W        W19796   5.910  16.641   1.572  0.0751 -0.1128 -0.2370
 3613W        W19797  16.284   3.255  14.071 -0.1811 -0.0874  0.1682
 3614W        W19798   4.551   0.939  14.399  0.1198  0.2522  0.1941
 3615W        W19799   2.746   3.963  15.392  0.1043  0.1135  0.1051
 3616W        W19800   1.914   6.139  11.599 -0.2485 -0.0132 -0.1311
 3617W        W19801  17.222   8.365  12.980  0.0555 -0.0805 -0.1980
 3618W        W19802   2.266  13.249  13.135 -0.2099  0.0245  0.4034
 3619W        W19803  17.910  11.948   5.469 -0.1588 -0.0924  0.2675
 3620W        W19804  10.808   6.491   1.666 -0.3198  0.0116  0.0406
 3621W        W19805  17.089  12.124   4.950 -0.0917 -0.0021 -0.0277
 3622W        W19806   6.443  17.327   1.058 -0.2464  0.1280 -0.3199
 3623W        W19807  11.935   0.587  12.657 -0.0741 -0.0574  0.0519
 3624W        W19808  12.408   8.678   0.617 -0.0735 -0.2695 -0.2511
 3625W        W19809  14.611   0.621   3.383 -0.0062  0.0352 -0.0642
 3626W        W19810   2.578  12.226   3.008  0.0810  0.1500  0.1885
 3627W        W19811  15.279  11.383   1.176 -0.3191  0.0524  0.1272
 3628W        W19812   2.861  10.935  15.209  0.0525  0.0022 -0.1211
 3629W        W19813   3.043  10.717  14.203 -0.2031 -0.1168  0.0416
 3630W        W19814   8.906   0.973   2.719  0.1661  0.1005 -0.0427
 3631W        W19815  14.394   9.376   1.319 -0.1835 -0.3126  0.1583
 3632W        W19816   3.441  15.526   0.591 -0.1548  0.1014  0.0027
 3633W        W19817   3.401   4.586   4.319 -0.1391 -0.3134 -0.0269
 3634W        W19818   2.687  13.423  13.161 -0.0485 -0.2596  0.2791
 3635W        W19819  17.161   3.973   2.969  0.0984  0.1206  0.0306
 3636W        W19820   2.987   0.829  13.673 -0.0777 -0.0006 -0.0457
 3637W        W19821  18.264   2.049  14.159 -0.1835 -0.1524 -0.1290
 3638W        W19822   4.004  17.653  10.596  0.0829 -0.0434  0.0915
 3639W        W19823  15.292   2.593  15.344  0.0875 -0.1018 -0.2680
 3640W        W19824  16.974   0.096   1.511  0.2785 -0.1584 -0.1951
 3641W        W19825  11.235  18.322  14.907 -0.3257 -0.0447  0.1739
 3642W        W19826   2.508   0.329   0.154 -0.0813  0.1663 -0.1003
 3643W        W19827   7.502  16.408  11.880  0.0404  0.2896 -0.0608
 3644W        W19828   9.072   0.785   0.849 -0.0808  0.4735 -0.1792
 3645W        W19829   2.176   9.368  13.734  0.0884  0.2289 -0.2303
 3646W        W19830   1.229  12.179  13.961 -0.1971  0.3188  0.1373
 3647W        W19831   0.718  15.208   3.626 -0.0043 -0.2624 -0.0393
 3648W        W19832   6.198  14.903   1.537  0.2344 -0.0522  0.2552
 3649W        W19833  16.841   3.657   5.416 -0.1516 -0.2636  0.1800
 3650W        W19834   8.182   7.398   0.058  0.2797  0.3925 -0.0817
 3651W        W19835  11.039   8.988  13.242  0.2631  0.3128  0.2530
 3652W        W19836   0.961   3.709  12.370  0.1014 -0.0321 -0.2046
 3653W        W19837   8.844   0.351  14.085 -0.2649  0.0166 -0.2637
 3654W        W19838   1.323   3.184   0.763  0.0874  0.2125 -0.0953
 3655W        W19839  18.008   7.851  16.085  0.0910 -0.1284  0.2002
 3656W        W19840  16.664   9.914  11.278  0.0362 -0.1960  0.2627
 3657W        W19841  10.461   2.985   4.982  0.0866 -0.0674  0.0363
 3658W        W19842   7.227   5.180   1.389  0.2290  0.3790  0.2255
 3659W        W19843   5.019   6.169   3.829 -0.3188  0.0418  0.0103
 3660W        W19844   3.193   0.072   4.975  0.3795  0.1142  0.2371
 3661W        W19845   5.022  12.473   0.025  0.3492  0.3292 -0.0558
 3662W        W19846   5.982  15.718  10.914  0.2875  0.1055 -0.0356
 3663W        W19847   1.695  15.355  14.563 -0.2305 -0.0248  0.1093
 3664W        W19848  16.100   8.643  15.352  0.1289 -0.1644 -0.3673
 3665W        W19849  17.193   3.093   4.517 -0.1444  0.2799 -0.1184
 3666W        W19850   0.503  14.409   1.885 -0.0375 -0.3555  0.0059
 3667W        W19851   6.819   0.246   4.618 -0.0256  0.0465  0.1648
 3668W        W19852   5.595  12.090  15.452 -0.1491  0.3692  0.1323
 3669W        W19853  13.785  11.871   1.482 -0.0237 -0.1172  0.1122
 3670W        W19854   7.640  10.594   0.238 -0.1595 -0.0424 -0.0541
 3671W        W19855  10.433   8.247  14.104 -0.2477 -0.1508  0.2334
 3672W        W19856   5.974  17.802   2.545  0.1272 -0.3090  0.3460
 3673W        W19857   7.665  15.958   0.569 -0.0165 -0.2688  0.0891
 3674W        W19858   6.610  11.133  10.822  0.1494  0.1009  0.1622
 3675W        W19859  17.109  12.837   3.073 -0.0213 -0.2436  0.1587
 3676W        W19860   0.979   6.768  14.606  0.3019  0.0329 -0.1637
 3677W        W19861   4.066   9.302   2.889 -0.3467 -0.2802  0.0159
 3678W        W19862   2.513  14.504   2.606  0.0386 -0.0814 -0.0131
 3679W        W19863  10.518   9.995   1.983  0.1679  0.0218 -0.3238
 3680W        W19864   0.241  18.065   5.393 -0.1364 -0.1803  0.0048
 3681W        W19865   9.438  13.121  15.969  0.2865 -0.1318 -0.2230
 3682W        W19866  16.702   2.163  11.328 -0.0270  0.1674  0.0220
 3683W        W19867   6.863   2.739  14.028  0.1957 -0.0568  0.1810
 3684W        W19868  17.395   5.038  14.873  0.1304  0.0059 -0.1459
 3685W        W19869   0.101   1.837   3.214  0.2785 -0.1765  0.2715
 3686W        W19870  11.607   9.677  15.400 -0.0890  0.2630  0.1961
 3687W        W19871   5.599  12.287  12.969  0.0292 -0.0753 -0.0154
 3688W        W19872   8.081  12.032  13.017  0.1912 -0.3212 -0.1539
 3689W        W19873   1.819   8.939  15.861 -0.0064 -0.0121 -0.0774
 3690W        W19874  14.300  14.947   2.609  0.2365  0.0615 -0.2414
 3691W        W19875  15.457   8.508   4.055  0.0166  0.1837  0.3908
 3692W        W19876  11.859   0.882   2.548  0.2873 -0.3510 -0.1586
 3693W        W19877  13.381  17.419  15.396  0.1098  0.2073 -0.0272
 3694W        W19878   9.614  11.445   2.502 -0.1230 -0.0316 -0.0880
 3695W        W19879  16.853  17.225   3.127  0.2559  0.1334  0.2809
 3696W        W19880   4.174  14.851  10.723  0.0413  0.0504  0.0120
 3697W        W19881  11.313  15.699  12.765 -0.0940  0.0113 -0.1265
 3698W        W19882   2.396  13.087   4.757  0.0368  0.1509  0.0440
 3699W        W19883   4.778   9.205   4.654  0.2117  0.0148 -0.0845
 3700W        W19884  14.170   6.882   1.021 -0.0499  0.0337 -0.1476
 3701W        W19885  11.294   6.318   1.539 -0.0649  0.1176  0.0664
 3702W        W19886   5.000   2.438   0.608 -0.0153 -0.0806 -0.0380
 3703W        W19887  11.338   8.118   3.718  0.0043 -0.0299  0.1182
 3704W        W19888  16.224   8.635  13.771 -0.0539 -0.1291  0.1822
 3705W        W19889  17.964  18.064  15.684 -0.1346 -0.0700 -0.0009
 3706W        W19890   6.724  17.507  12.961 -0.1015  0.4053 -0.3521
 3707W        W19891   4.477  14.090  15.991 -0.1693 -0.1892  0.0499
 3708W        W19892  16.093  14.806  11.380  0.1717  0.0106  0.0429
 3709W        W19893   0.442   3.183   1.665 -0.1767  0.0706 -0.0454
 3710W        W19894   3.344   5.429   0.541 -0.1449 -0.0742 -0.1115
 3711W        W19895  15.123   6.426  14.098  0.1543 -0.0068  0.0510
 3712W        W19896   2.538  12.575   1.114 -0.0322  0.1891 -0.0305
 3713W        W19897  10.351  16.386  12.576  0.0400  0.0627 -0.3769
 3714W        W19898   1.724   6.289   1.123  0.0162  0.0259  0.0859
 3715W        W19899   8.729   9.585  12.269  0.0834 -0.0378  0.2286
 3716W        W19900   9.573   8.143   4.406 -0.1440 -0.0585 -0.0978
 3717W        W19901  14.317   4.789  15.691 -0.0583  0.0540 -0.2370
 3718W        W19902  12.072  15.157  11.972  0.1787  0.1262 -0.2498
 3719W        W19903   8.720  12.454  13.712 -0.2711  0.0620  0.1431
 3720W        W19904  14.906  12.037   2.188  0.0004  0.1158  0.1180
 3721W        W19905  18.048  13.905  12.566 -0.0763 -0.1793 -0.0137
 3722W        W19906   6.603   6.644   3.119  0.1541 -0.1935  0.0363
 3723W        W19907   2.615   8.626   5.709  0.1413 -0.0644 -0.0527
 3724W        W19908   9.715  18.484  14.246 -0.0132  0.2376  0.2492
 3725W        W19909  16.000  13.778  14.382  0.1926 -0.1554  0.1496
 3726W        W19910   1.140   2.009  11.815  0.2400 -0.0250 -0.1460
 3727W        W19911  17.482   4.881  13.645  0.0698 -0.1898  0.0596
 3728W        W19912  14.576   2.848   2.087  0.0371 -0.1550 -0.0122
 3729W        W19913  13.472   8.101   1.186 -0.2651 -0.0125 -0.1169
 3730W        W19914   1.144   0.485  11.825 -0.0086 -0.0826  0.1366
 3731W        W19915  16.871  17.781  12.747  0.1152 -0.0944  0.0611
 3732W        W19916   7.941  18.056   1.927 -0.2402 -0.0288 -0.1836
 3733W        W19917  12.340  15.462  12.381 -0.3841 -0.1326  0.2334
 3734W        W19918  17.977   5.618  12.179  0.0779 -0.1726 -0.1007
 3735W        W19919  14.961   3.877   3.484  0.1859  0.0170  0.1074
 3736W        W19920   4.807   8.163   1.927 -0.2420 -0.1909  0.1553
 3737W        W19921  16.908  18.128   4.446  0.1276  0.0824 -0.1724
 3738W        W19922  13.651   2.247   1.430 -0.1575 -0.0605 -0.1874
 3739W        W19923   1.412  18.338   0.888  0.1782 -0.1774 -0.1979
 3740W        W19924  12.769  15.407   2.556 -0.1770  0.0006  0.0770
 3741W        W19925  15.352   8.153   4.351 -0.1299  0.6171 -0.1102
 3742W        W19926  14.046   4.042  13.920 -0.0685 -0.0470  0.1965
 3743W        W19927  11.369  12.312  12.493  0.0210 -0.2433 -0.0425
 3744W        W19928  11.488  11.673  11.230  0.1790  0.3146 -0.2517
 3745W        W19929  11.446   3.925   3.969  0.0159 -0.4173 -0.0291
 3746W        W19930   5.771   2.947   0.336 -0.0274  0.1058 -0.0124
 3747W        W19931  12.639  16.028   1.343  0.0949  0.0678  0.1719
 3748W        W19932   1.633  17.869   4.415  0.0027  0.3237 -0.2178
 3749W        W19933   2.085   1.479  15.471 -0.0731  0.0389  0.2832
 3750W        W19934  12.677   2.187  15.926 -0.2053  0.0840  0.2989
 3751W        W19935   8.004  11.263   2.552  0.1087  0.0292 -0.1885
 3752W        W19936   1.520  17.815   0.046 -0.0713 -0.1217  0.0169
 3753W        W19937   0.224   0.382  13.684  0.1226  0.2422  0.0000
 3754W        W19938   0.218  16.036  14.897 -0.0192 -0.0654 -0.3339
 3755W        W19939   4.494   7.845  16.070 -0.0165  0.1096 -0.0318
 3756W        W19940   7.125  10.431   2.868 -0.1831 -0.2857 -0.1936
 3757W        W19941   6.609   8.544  11.735  0.0019 -0.0491 -0.1735
 3758W        W19942   4.333  12.947   5.517 -0.2609 -0.0060  0.0182
 3759W        W19943   6.892  16.795  14.928 -0.4446  0.1330 -0.1546
 3760W        W19944  15.129  13.719  14.333  0.1104 -0.1398 -0.0917
 3761W        W19945  14.199   3.680  11.374 -0.1628 -0.1690  0.2968
 3762W        W19946  12.394  17.316  13.632  0.2803  0.0636 -0.1320
 3763W        W19947  10.464   1.918  11.867 -0.1887  0.3140 -0.0244
 3764W        W19948   4.077  18.207   2.472 -0.1258 -0.0854  0.0742
 3765W        W19949  13.291   1.396   4.415 -0.1701  0.0500  0.2371
 3766W        W19950   1.176   1.026   5.125  0.1447 -0.0284 -0.0466
 3767W        W19951  12.647   6.936  16.025 -0.0089 -0.0558 -0.0419
 3768W        W19952  13.266   7.320  14.793  0.1413 -0.1665  0.0264
 3769W        W19953  14.588   5.065   3.849 -0.0994 -0.2624  0.1395
 3770W        W19954  15.566  11.214   0.310 -0.0513 -0.0752  0.1524
 3771W        W19955  17.286   5.472  14.427  0.1181  0.1194  0.0694
 3772W        W19956   8.799   8.027  13.669 -0.0023  0.0659 -0.3741
 3773W        W19957  14.205   0.006  14.894  0.1793  0.1731 -0.0807
 3774W        W19958  17.301  14.847  11.640 -0.3514  0.2036  0.1569
 3775W        W19959   2.156  10.770  10.700  0.0562 -0.4408  0.2494
 3776W        W19960   6.336   6.700  15.671 -0.2341  0.0772  0.0197
 3777W        W19961   6.851   8.073  11.980 -0.0640  0.0068 -0.0761
 3778W        W19962  11.189   8.251  15.365 -0.0466 -0.3027 -0.5079
 3779W        W19963   6.530  14.520  14.189 -0.1413 -0.2989 -0.2657
 3780W        W19964   2.806   0.753   1.221 -0.0534  0.0650  0.2241
 3781W        W19965  13.708   7.130  14.944 -0.0286  0.3089  0.1410
 3782W        W19966  13.126   9.237   5.138  0.1020 -0.6700 -0.1893
 3783W        W19967   4.661  18.099   1.722  0.5337  0.2002  0.1742
 3784W        W19968  13.941   2.350  15.248 -0.1080 -0.3347 -0.1247
 3785W        W19969  11.389  18.234   4.118 -0.0520 -0.0508  0.0228
 3786W        W19970  17.743  11.859   4.341 -0.0929  0.0327  0.0435
 3787W        W19971   7.476  10.905   1.589 -0.2935  0.0325 -0.2711
 3788W        W19972   4.066   7.105  13.851  0.0447 -0.2510  0.3897
 3789W        W19973   7.370  13.610  12.065 -0.1494  0.1562 -0.3334
 3790W        W19974   1.471  15.353  11.377  0.2127 -0.1228  0.0651
 3791W        W19975  14.324  17.517   4.039  0.1655 -0.1303 -0.0391
 3792W        W19976   4.386  12.075  11.469  0.2016  0.1507 -0.1238
 3793W        W19977   9.593  12.515  12.917  0.1372  0.0675  0.3236
 3794W        W19978  14.825  13.999   0.031 -0.1204 -0.2758 -0.3821
 3795W        W19979  17.259   2.594  13.057 -0.0270 -0.1771 -0.2640
 3796W        W19980   3.543   3.149  12.963 -0.2432 -0.3211 -0.3874
 3797W        W19981   0.064  17.625   2.627  0.0397 -0.0819  0.3520
 3798W        W19982   5.645  11.219   0.072  0.0540  0.0594  0.1018
 3799W        W19983   6.076  14.648  12.030 -0.0519 -0.3046 -0.1875
 3800W        W19984  11.067   7.281  15.039 -0.6702 -0.2657 -0.2441
 3801W        W19985  11.764  17.963  12.309 -0.3060  0.0708 -0.0025
 3802W        W19986   9.583   8.062   3.879 -0.2223  0.1282  0.1745
 3803W        W19987   2.137   6.693   3.789 -0.2743 -0.2229  0.1116
 3804W        W19988   3.271  12.943  14.206  0.2655 -0.1738 -0.0335
 3805W        W19989   6.336   3.150  12.395  0.2193  0.1153 -0.0581
 3806W        W19990  14.629  15.182   0.695  0.0238  0.1656 -0.0654
 3807W        W19991  16.564   1.042  15.778  0.0835  0.2270 -0.0311
 3808W        W19992  14.371  10.315  11.809  0.0801  0.0878  0.0920
 3809W        W19993   7.379  13.346   1.538 -0.1733  0.4512  0.0073
 3810W        W19994  12.013  13.304  12.370  0.3341 -0.1870  0.0739
 3811W        W19995   5.703   1.173   4.340 -0.5962  0.0911  0.1280
 3812W        W19996   7.119  10.392  16.030 -0.2437 -0.0201  0.1991
 3813W        W19997  10.937   8.668   4.883 -0.4069  0.1403 -0.0211
 3814W        W19998   4.705  17.016  13.995 -0.3678  0.3628 -0.0811
 3815W        W19999  15.089  10.432  14.330 -0.0923 -0.2477  0.0817
 3816W        W20000  13.145   5.067   4.768  0.2936 -0.1963 -0.2524
 3817W        W20001   0.390  10.960  12.931 -0.1166 -0.0055  0.1743
 3818W        W20002   0.012  10.772   0.109 -0.0909  0.0705  0.0244
 3819W        W20003  14.991   9.258   4.930  0.3458  0.0466  0.3088
 3820W        W20004   1.356   3.359  11.716  0.2351  0.2609  0.2556
 3821W        W20005  13.891   2.205   4.185 -0.2867 -0.2030 -0.4014
 3822W        W20006   2.423   9.870   3.717 -0.0139  0.0411  0.0918
 3823W        W20007   2.053   9.051   3.810 -0.0094 -0.0833 -0.1315
 3824W        W20008   2.880  13.387   4.034  0.0711 -0.0673 -0.0059
 3825W        W20009  14.789   2.571  15.149  0.0517 -0.0515  0.0230
 3826W        W20010  15.871   0.854   2.021 -0.0720 -0.0674  0.1158
 3827W        W20011   7.400   0.665  11.591  0.0239  0.3154  0.4082
 3828W        W20012  10.968  16.463  12.588  0.1798 -0.1801  0.4633
 3829W        W20013  10.965   7.651  14.163  0.3196  0.2983  0.0278
 3830W        W20014  15.592  13.855   1.471 -0.0365  0.1507 -0.2414
 3831W        W20015   0.090   9.400   0.090  0.0794 -0.1389  0.1094
 3832W        W20016  11.050  17.087   3.228 -0.0124  0.1526 -0.1511
 3833W        W20017   0.348  17.693  15.893 -0.1506 -0.0030  0.0031
 3834W        W20018   6.513   4.473   1.020 -0.1375  0.2741  0.0407
 3835W        W20019  16.235   7.180  15.580 -0.1884 -0.1276 -0.1754
 3836W        W20020   0.670   0.069   0.976 -0.4705 -0.1589  0.1373
 3837W        W20021  17.405   4.997   1.837 -0.0140  0.1063 -0.2001
 3838W        W20022  14.930   6.764   3.172  0.2228  0.2767  0.0320
 3839W        W20023  17.033  15.293  13.437  0.0760 -0.1063 -0.2043
 3840W        W20024  11.157  12.601   0.581  0.1108 -0.1566  0.0622
 3841W        W20025   5.505   3.256  14.603  0.1208 -0.2361 -0.0388
 3842W        W20026   3.174   7.572  12.991 -0.5233  0.1099  0.2186
 3843W        W20027  12.785  15.989   2.303 -0.1149 -0.3348  0.2172
 3844W        W20028   6.160  12.896   4.813 -0.0932 -0.0765  0.3297
 3845W        W20029  15.244   4.648   5.528 -0.3678 -0.2103  0.0490
 3846W        W20030   3.908   4.782   4.225  0.2122 -0.2803 -0.1102
 3847W        W20031   1.536  15.894   4.606  0.2992 -0.0764 -0.0831
 3848W        W20032   2.306   5.540   4.680 -0.1536  0.1135  0.0358
 3849W        W20033  10.659   2.169  12.305  0.1937 -0.0856  0.0468
 3850W        W20034  11.871   0.740   3.042 -0.0187 -0.0291 -0.1186
 3851W        W20035   5.002   1.151  11.472  0.2256 -0.0145 -0.1270
 3852W        W20036  16.559  15.750   4.740 -0.2349  0.2321 -0.2169
 3853W        W20037   5.014  14.284   2.043  0.3071 -0.3374 -0.0038
 3854W        W20038  12.823   5.852  13.762  0.0126  0.1750 -0.2025
 3855W        W20039  11.274   2.463   4.288  0.2217  0.2914 -0.4087
 3856W        W20040   2.699   3.172  15.088  0.1297 -0.2398 -0.0445
 3857W        W20041  14.925   7.289   3.130 -0.2452 -0.3104  0.0540
 3858W        W20042   5.003  10.339  12.114 -0.2207 -0.1016 -0.1448
 3859W        W20043   7.845  16.486  12.261  0.3183 -0.1960 -0.2254
 3860W        W20044   4.042   8.009   2.617 -0.2450 -0.0611  0.0593
 3861W        W20045  14.944  10.918  14.436 -0.1550  0.0743 -0.0101
 3862W        W20046  17.159   7.114  15.113  0.0008  0.0509  0.0264
 3863W        W20047   5.151  10.960  11.660  0.0553 -0.1069 -0.1525
 3864W        W20048  15.418   1.158   0.697 -0.1942  0.1174  0.0379
 3865W        W20049  17.828   1.334  14.494  0.3097 -0.0697 -0.0074
 3866W        W20050  12.753  13.928   3.347 -0.4916  0.0193 -0.0764
 3867W        W20051  13.574  18.490   2.012 -0.0328  0.1044  0.3155
 3868W        W20052   4.485  12.833   4.081 -0.2890  0.0740  0.1410
 3869W        W20053   4.273  16.928  11.136  0.1941  0.0171  0.0575
 3870W        W20054  17.545   3.007   2.735 -0.4123 -0.0824 -0.1314
 3871W        W20055  17.320   3.845   3.886  0.0335 -0.2687 -0.1326
 3872W        W20056  13.492  12.919  11.794  0.1900 -0.2142 -0.4897
 3873W        W20057   7.747  15.489  14.800 -0.0543 -0.1087  0.0542
 3874W        W20058  10.517  15.754   1.194 -0.1204  0.1072 -0.1499
 3875W        W20059   1.697   3.766   5.437  0.0101 -0.0106 -0.0460
 3876W        W20060   9.181  12.323  12.643 -0.0289 -0.2942 -0.3157
 3877W        W20061   2.058  10.855  14.840 -0.1724 -0.0918  0.2920
 3878W        W20062   3.097  15.547   3.807  0.0440 -0.2726 -0.1139
 3879W        W20063  10.478   5.036   3.863 -0.1911 -0.0294 -0.0124
 3880W        W20064  14.480   5.639  15.124 -0.0621  0.1892  0.4085
 3881W        W20065   5.811   4.980  14.124  0.1071 -0.1558  0.2518
 3882W        W20066   4.230   3.605  11.571 -0.0211 -0.0984  0.1607
 3883W        W20067  10.224   2.353  12.092  0.1140  0.0509  0.4707
 3884W        W20068   6.879   1.405  11.685 -0.3974  0.0589 -0.1242
 3885W        W20069   1.176  10.444  13.416 -0.3243 -0.1494  0.1724
 3886W        W20070  10.280  16.389  14.992 -0.3979 -0.0596  0.0893
 3887W        W20071  17.595   8.216   2.709  0.1118  0.0577  0.1764
 3888W        W20072  18.303  18.469  15.561 -0.3431 -0.2420 -0.0348
 3889W        W20073   8.768  15.849   1.984 -0.0503  0.1224  0.1570
 3890W        W20074  10.019  12.113   6.061  0.2459  0.1302  0.1203
 3891W        W20075  14.725  16.562  12.570  0.1103  0.1021 -0.0627
 3892W        W20076  14.954   5.598  12.357 -0.0444  0.3669 -0.1308
 3893W        W20077   9.378   0.172  15.539  0.0106 -0.2435 -0.2664
 3894W        W20078   1.882  12.376  12.711 -0.1487  0.0559 -0.0823
 3895W        W20079  14.392   2.472   2.633  0.1904  0.0839 -0.0297
 3896W        W20080  12.475   9.303   0.174  0.1283  0.2700  0.3714
 3897W        W20081   2.310  15.170  14.426  0.2234  0.2238  0.2969
 3898W        W20082  14.158   6.994  13.422 -0.0945 -0.0096  0.0383
 3899W        W20083  16.338   7.209   3.405  0.3562 -0.0730 -0.2649
 3900W        W20084   9.224  15.446  15.243  0.2905  0.2722 -0.1652
 3901W        W20085   6.917  18.008   2.111  0.1983  0.3620  0.1788
 3902W        W20086   0.947  13.969   5.071 -0.0965  0.0195  0.3569
 3903W        W20087  10.430  12.839   0.074 -0.0707  0.0014 -0.2258
 3904W        W20088   0.606  16.716   0.092 -0.0004  0.0564 -0.1825
 3905W        W20089   7.229   5.872  12.617  0.0523  0.4207  0.1717
 3906W        W20090   4.230   5.428   0.502 -0.2209 -0.2114 -0.1331
 3907W        W20091   5.787   0.946   4.832  0.0017 -0.1073  0.0313
 3908W        W20092  12.856  10.403   4.133 -0.1573 -0.1548 -0.1161
 3909W        W20093   2.210  16.670  14.161  0.2318 -0.1248 -0.1213
 3910W        W20094  15.855  11.418  15.514  0.0693 -0.0790 -0.1644
 3911W        W20095  16.349   3.290   0.813 -0.0878 -0.0517  0.3464
 3912W        W20096  11.367  10.677   5.873  0.1779  0.0907  0.3258
 3913W        W20097   5.922   3.527   4.973 -0.1961 -0.0154  0.1989
 3914W        W20098   3.276  17.661   1.298  0.1356  0.2499 -0.0261
 3915W        W20099  18.265   4.074  12.511 -0.1053  0.1401  0.0560
 3916W        W20100   5.446   8.403   4.557 -0.2931  0.1838 -0.0977
 3917W        W20101   4.410   8.102   2.303  0.0202  0.2690 -0.0295
 3918W        W20102  17.820   2.023   0.476 -0.1386  0.0109 -0.2490
 3919W        W20103  16.676   3.861  11.324 -0.0823 -0.2022 -0.2164
 3920W        W20104  10.340   4.109   3.558  0.0083  0.0139  0.1713
 3921W        W20105  15.383   5.468  12.262 -0.3464 -0.2666 -0.0517
 3922W        W20106   3.935  12.290   1.997  0.2659 -0.0527 -0.0260
 3923W        W20107  10.854  15.052  13.861 -0.4183  0.1865  0.1001
 3924W        W20108   9.014  15.575  13.408 -0.3402 -0.1379 -0.0125
 3925W        W20109   3.120   9.617  14.377  0.0416  0.2391  0.1719
 3926W        W20110   1.852  16.212   3.831 -0.2259  0.2279 -0.2553
 3927W        W20111   7.449   0.644  12.087  0.4005 -0.2018  0.1389
 3928W        W20112  12.683   8.108  13.740  0.0872  0.3451  0.0578
 3929W        W20113   1.287  11.068  13.191 -0.1858  0.1883  0.2908
 3930W        W20114  16.478  14.461  14.293  0.1485  0.3792 -0.0809
 3931W        W20115   8.202  13.634   3.308  0.2434  0.0943 -0.1765
 3932W        W20116   1.229   9.139  15.548 -0.0763 -0.2312 -0.2196
 3933W        W20117   0.904  14.675  15.973 -0.1852 -0.1643  0.1376
 3934W        W20118  11.365  18.347  15.425 -0.1985  0.0740  0.0106
 3935W        W20119   1.769   0.195  13.072 -0.2443  0.0898 -0.1577
 3936W        W20120   7.874  13.505  10.771  0.0007 -0.0661  0.0703
 3937W        W20121  13.496  10.371   3.002 -0.0317 -0.2460  0.1818
 3938W        W20122  12.809  15.807  13.453 -0.3366  0.2078 -0.0928
 3939W        W20123   7.366  10.131  11.477  0.0904  0.0215 -0.1108
 3940W        W20124   0.917  11.188   3.544 -0.2794  0.0082 -0.0878
 3941W        W20125   8.888   1.826   2.142 -0.3206 -0.1836 -0.0713
 3942W        W20126  11.956  11.312  14.338 -0.0827  0.0865  0.1244
 3943W        W20127   8.267   5.463   1.460 -0.0545 -0.3137 -0.4051
 3944W        W20128   5.046  11.514   5.201 -0.1387 -0.1181 -0.0742
 3945W        W20129   0.670  12.744  13.698 -0.2540  0.0245 -0.1644
 3946W        W20130   3.635   8.502  12.981 -0.3849 -0.0408 -0.0258
 3947W        W20131   1.586  12.467   1.942 -0.1830  0.0388  0.2575
 3948W        W20132   0.832  10.132   4.771  0.0056  0.3248  0.1888
 3949W        W20133   0.884  14.084   3.744 -0.1268 -0.1960 -0.6262
 3950W        W20134  17.779   4.998  11.700  0.0375 -0.2682 -0.0617
 3951W        W20135   9.003  13.761   4.722  0.1106 -0.1268  0.3076
 3952W        W20136  10.288   8.414   2.913 -0.2085 -0.1923 -0.3302
 3953W        W20137  13.327  15.891  15.033 -0.0487 -0.0297  0.4264
 3954W        W20138  12.022  14.791   1.408  0.0455 -0.2200 -0.5994
 3955W        W20139   1.759  10.470   2.248  0.1673  0.0813  0.0591
 3956W        W20140   1.262  13.555   3.341 -0.4056 -0.1403  0.1802
 3957W        W20141   0.763  15.863   3.609  0.1656 -0.1370 -0.5323
 3958W        W20142   7.206  14.582  13.630  0.2133  0.0091 -0.0933
 3959W        W20143  16.041  15.769  11.175  0.1407 -0.1341 -0.0976
 3960W        W20144   7.546   5.606  16.126 -0.1208 -0.2606  0.0970
 3961W        W20145   7.263   3.668   0.041  0.2299 -0.1402 -0.1658
 3962W        W20146  10.743   5.369   4.734 -0.1328 -0.0184  0.1236
 3963W        W20147  12.636  10.971  16.059  0.0479  0.0985 -0.0524
 3964W        W20148   1.677  13.332   2.599  0.1090  0.1550 -0.2848
 3965W        W20149   6.187  18.411   5.090  0.0029 -0.2305 -0.2689
 3966W        W20150  14.683  15.721  12.845  0.1123 -0.0092 -0.0422
 3967W        W20151  15.869   8.473   1.869  0.1061  0.3743 -0.3097
 3968W        W20152   9.295   2.879  13.630 -0.0113  0.1136  0.0349
 3969W        W20153  14.276   9.721   3.275 -0.4950 -0.2863  0.1532
 3970W        W20154   7.468   6.682   0.258 -0.3366 -0.1853  0.0987
 3971W        W20155  12.501   4.630  15.175 -0.0750  0.3518 -0.0945
 3972W        W20156   2.045  16.864  15.109  0.0276 -0.1004 -0.0766
 3973W        W20157   9.142   3.327  10.428  0.1151  0.1168 -0.1095
 3974W        W20158   7.238   4.009  14.333 -0.0162 -0.0043 -0.2544
 3975W        W20159   0.017  15.610   2.587  0.1803  0.0805 -0.2029
 3976W        W20160  12.953   2.212   2.899 -0.2167  0.2738  0.4364
 3977W        W20161   2.816  10.861  13.652 -0.3838  0.1860  0.2247
 3978W        W20162   7.468   8.425  14.419  0.0214  0.0595  0.2179
 3979W        W20163  14.396   4.619   3.890 -0.0541 -0.2623 -0.3492
 3980W        W20164   9.697   8.250   0.341 -0.2150  0.1528  0.0112
 3981W        W20165   2.318  13.159  15.116  0.2985 -0.0636  0.3275
 3982W        W20166   1.493   1.668  15.968  0.3454  0.1602  0.2240
 3983W        W20167  16.162   9.421   3.522 -0.2052 -0.2047 -0.1296
 3984W        W20168   2.407  16.331   0.315 -0.3649 -0.0609 -0.0466
 3985W        W20169  17.900   9.804   5.578 -0.0514  0.1513  0.3611
 3986W        W20170   0.668   4.098   4.441  0.0557 -0.0736 -0.2057
 3987W        W20171   2.660  14.101   0.471  0.0544 -0.3239 -0.1176
 3988W        W20172  16.259  14.098  11.983 -0.0645  0.2374 -0.0880
 3989W        W20173  11.835  10.194  13.529 -0.1128 -0.1345 -0.1623
 3990W        W20174  10.824  13.762  15.721 -0.2311  0.0239 -0.2403
 3991W        W20175  14.957   0.571   2.721 -0.1905 -0.1760 -0.0091
 3992W        W20176   4.211  11.168   4.718  0.1375 -0.2413  0.4475
 3993W        W20177  11.865   0.075   1.924 -0.0378  0.2909 -0.1137
 3994W        W20178  10.576  14.721  12.945 -0.1581 -0.0238 -0.1516
 3995W        W20179   6.414  15.281   6.002 -0.0972  0.2808  0.0248
 3996W        W20180  18.405   4.617  12.550  0.2069  0.0315  0.0646
 3997W        W20181   9.190  10.809   2.945 -0.2660 -0.0235  0.0256
 3998W        W20182  15.946  17.587   2.799  0.3168  0.0368  0.5233
 3999W        W20183  15.539  12.811  12.915  0.2436  0.1074  0.0090
 4000W        W20184   1.429  11.030  11.252 -0.2327 -0.0596 -0.4182
 4001W        W20185  14.125  18.060   4.312 -0.3542 -0.1831  0.0091
 4002W        W20186  17.185   3.508  12.995  0.0960 -0.2416 -0.1995
 4003W        W20187   2.503   0.104   2.550  0.2496  0.0820  0.2434
 4004W        W20188   2.797  15.489   1.002  0.1679 -0.3660  0.0181
 4005W        W20189  13.562   9.540   0.168  0.0258  0.0105 -0.0833
 4006W        W20190   0.322   6.509  14.444 -0.3780  0.0466  0.5043
 4007W        W20191  16.394   0.553  15.727  0.1002  0.0185  0.1929
 4008W        W20192  15.071   5.086   2.811  0.2794 -0.1532  0.2079
 4009W        W20193   1.045   0.186  13.533  0.2789  0.0239  0.1264
 4010W        W20194   6.058  13.065  14.890  0.0399 -0.1312  0.2416
 4011W        W20195  10.993   0.203  15.209 -0.3565  0.1842 -0.2936
 4012W        W20196  13.322  11.203  16.072  0.1412  0.0106 -0.0788
 4013W        W20197   3.820   2.692  13.296  0.0653 -0.1498 -0.1537
 4014W        W20198   9.290   2.275   1.324 -0.1411 -0.0195 -0.0375
 4015W        W20199   7.385  15.213   3.241 -0.3015  0.0263 -0.1572
 4016W        W20200   5.583   1.581  13.587 -0.1494  0.2293  0.1566
 4017W        W20201   3.349   5.940   0.668  0.0618  0.0591 -0.3115
 4018W        W20202  13.658   8.799   4.427 -0.2003  0.0577  0.0715
 4019W        W20203   1.992  13.731   1.031  0.1245  0.0252  0.3115
 4020W        W20204   4.247   5.613  15.033 -0.2330  0.0585 -0.2349
 4021W        W20205  18.226   2.593  14.543  0.1722 -0.1436  0.0373
 4022W        W20206  10.284   9.947  14.929  0.2019  0.3520  0.2582
 4023W        W20207  13.189  18.472   2.572  0.2489 -0.1744  0.0616
 4024W        W20208   3.264  11.536  13.487  0.0181  0.1738  0.0271
 4025W        W20209   8.600  16.235  14.080 -0.0652  0.3757 -0.0366
 4026W        W20210  17.035   9.007   3.145  0.0499  0.0874  0.3662
 4027W        W20211  13.457   3.574  12.637  0.2851  0.0078  0.1137
 4028W        W20212  10.876  11.195   6.080  0.1507 -0.1854  0.1840
 4029W        W20213   9.138  16.738   1.134 -0.1272 -0.0006 -0.3367
 4030W        W20214  15.229  11.656   4.969 -0.2878  0.2790 -0.0379
 4031W        W20215  14.385   1.807   0.387  0.1303  0.0446  0.1080
 4032W        W20216   1.722  18.121  10.841  0.2120 -0.0372 -0.1674
 4033W        W20217  13.414  12.279  15.052  0.3298  0.2999  0.4299
 4034W        W20218   2.032  14.877   5.089  0.1310 -0.0659 -0.3877
 4035W        W20219  17.226   5.087   2.252  0.2400 -0.0209 -0.2925
 4036W        W20220   8.870   4.662   4.551 -0.0951 -0.0643 -0.0314
 4037W        W20221   4.182   4.530   1.458  0.2027  0.3187  0.0795
 4038W        W20222  11.542  12.497  15.685  0.3396 -0.0639 -0.1706
 4039W        W20223   3.410   0.829   0.020 -0.0419 -0.0270  0.1393
 4040W        W20224  15.976  15.386   6.014  0.0428 -0.1712  0.1611
 4041W        W20225  16.068  17.445   1.049  0.3313 -0.1382  0.2789
 4042W        W20226  12.324   9.568   3.073 -0.2434 -0.0382  0.1122
 4043W        W20227  15.847  15.240  14.210  0.1604  0.0769 -0.1769
 4044W        W20228  15.192  13.201  11.823 -0.1264 -0.0741 -0.2652
 4045W        W20229  11.253  11.444  13.728  0.0351  0.4368 -0.0361
 4046W        W20230  10.964  16.993   0.707 -0.0886 -0.1835 -0.2436
 4047W        W20231   1.478  14.183  14.980  0.0656 -0.0315 -0.2838
 4048W        W20232   8.765  10.205  11.504  0.0402  0.1070  0.1652
 4049W        W20233   2.406   7.844   0.846  0.3041 -0.0347 -0.1499
 4050W        W20234  17.775   6.340  15.932  0.3564 -0.0697 -0.0244
 4051W        W20235   7.445   5.627   5.109 -0.0181  0.0046  0.0462
 4052W        W20236  18.084   9.782   5.101  0.2296 -0.1737 -0.2310
 4053W        W20237  15.794   5.748  12.077  0.0082  0.1640 -0.3358
 4054W        W20238   4.288  16.597  14.072  0.0628 -0.0246 -0.0158
 4055W        W20239  13.978   6.675   1.574 -0.1526  0.0055  0.0725
 4056W        W20240  15.481   2.165  12.015  0.2265 -0.2162 -0.0357
 4057W        W20241   9.575   8.524  14.434 -0.0891 -0.2032 -0.4924
 4058W        W20242  13.124   1.940   0.807  0.4312 -0.1611  0.1156
 4059W        W20243  13.056  13.814  12.166 -0.0306 -0.2734 -0.0003
 4060W        W20244  15.291   6.352  13.332 -0.0465 -0.3140  0.2321
 4061W        W20245   1.430  17.988   0.579 -0.0102  0.0937 -0.1226
 4062W        W20246   0.042  15.182   2.239  0.0355 -0.1335 -0.1320
 4063W        W20247  12.518   6.317  14.972  0.4090 -0.1095 -0.0061
 4064W        W20248   4.799  15.112   2.348 -0.2271  0.0948 -0.1500
 4065W        W20249   4.637  10.152   2.092  0.0837 -0.2835 -0.0613
 4066W        W20250   6.023  15.292  14.837 -0.2523 -0.0500 -0.2319
 4067W        W20251   2.146   5.579   3.371  0.0335 -0.0750  0.1912
 4068W        W20252   3.067   9.121   3.439 -0.1013  0.2840  0.1758
 4069W        W20253   8.529  17.581  14.675 -0.1718  0.0039  0.0433
 4070W        W20254  14.260   1.103   4.003  0.0363  0.0548 -0.2331
 4071W        W20255  16.775   4.244   2.996  0.1345  0.2227  0.2509
 4072W        W20256  12.803  16.764   0.896  0.1077  0.1270 -0.3199
 4073W        W20257   3.245   4.178   5.062  0.1210  0.1888 -0.3718
 4074W        W20258  16.419   7.102   5.254  0.0021 -0.1290  0.2739
 4075W        W20259  16.229  15.093   2.165 -0.0045 -0.0197 -0.4274
 4076W        W20260   6.274  14.405  11.476 -0.0320 -0.1087 -0.2137
 4077W        W20261  12.157   7.202  11.596  0.1349 -0.1100 -0.3488
 4078W        W20262  14.584  17.740   4.388  0.2171  0.0563 -0.0285
 4079W        W20263  16.659   3.126  15.280 -0.1486 -0.0479 -0.0246
 4080W        W20264   8.798  11.482   3.496  0.0671 -0.0849 -0.0923
 4081W        W20265  14.073  14.757  12.991  0.1779 -0.4764  0.2643
 4082W        W20266  17.455   4.298  14.590 -0.1478  0.4648 -0.0118
 4083W        W20267   2.984   3.333   2.053 -0.1474 -0.0249  0.0102
 4084W        W20268  11.024  13.183  14.547  0.0104 -0.0139 -0.1412
 4085W        W20269  12.348  13.455   1.333  0.0993 -0.0539  0.1907
 4086W        W20270   3.144   9.942   3.475 -0.2027 -0.3611  0.4284
 4087W        W20271   2.610  17.805  15.992 -0.3910  0.0356  0.1570
 4088W        W20272  12.012   8.330   4.219 -0.1035 -0.0979  0.0351
 4089W        W20273   3.039  11.576  15.324 -0.0469 -0.0981 -0.1107
 4090W        W20274  15.100  17.755   0.295 -0.2604 -0.0281 -0.1056
 4091W        W20275  17.747  10.537   0.603 -0.3027  0.2028 -0.1799
 4092W        W20276  14.975  18.252  13.628 -0.1041 -0.2098  0.1051
 4093W        W20277  13.365   3.479   0.816  0.1015 -0.0797  0.3115
 4094W        W20278   5.851  15.740   4.616 -0.0690  0.0208  0.2890
 4095W        W20279   2.235  10.007  11.962  0.3580  0.3240 -0.0226
 4096W        W20280  10.297  13.727  11.317  0.2685 -0.2373  0.0990
 4097W        W20281   7.274  11.908  11.020  0.2319  0.0263 -0.4157
 4098W        W20282  13.761   3.882   0.031 -0.1659  0.5304  0.2942
 4099W        W20283  17.157  13.723  14.189  0.2073 -0.2691 -0.2572
 4100W        W20284   1.858   0.290   3.950  0.2835  0.0568 -0.2181
 4101W        W20285   2.079   7.188  11.746  0.0965 -0.0822 -0.2080
 4102W        W20286   0.109  13.909   2.465  0.1837 -0.4344 -0.2220
 4103W        W20287   9.832   5.147   1.272 -0.4746 -0.0327  0.1165
 4104W        W20288  10.561  13.014   3.473  0.3043 -0.2953 -0.2112
 4105W        W20289   7.469  16.405   3.452 -0.0926 -0.0243 -0.0245
 4106W        W20290   7.190   7.595   1.645 -0.2610  0.2062 -0.1049
 4107W        W20291   0.545  17.060  10.868  0.2857  0.0228 -0.0069
 4108W        W20292   1.733  11.328  14.365  0.4461  0.0475  0.1973
 4109W        W20293  17.109   3.920  15.679  0.6092  0.0985  0.1403
 4110W        W20294  17.475   8.103   4.582 -0.0695  0.1050  0.1787
 4111W        W20295   3.462   2.704   5.369  0.0801  0.1131 -0.1696
 4112W        W20296  14.465   1.777   0.890  0.0288 -0.0725 -0.1609
 4113W        W20297   5.593   0.990  11.008  0.3311  0.0906  0.2600
 4114W        W20298   2.424  14.262   1.790  0.1199  0.1178 -0.1561
 4115W        W20299  14.670  12.956  14.293 -0.2855  0.1664  0.0694
 4116W        W20300   5.716   5.660  12.424  0.2440 -0.1653 -0.1580
 4117W        W20301   9.668  10.593  12.443  0.1675  0.0713 -0.1159
 4118W        W20302   8.852  18.347  13.657 -0.0693  0.1504 -0.0691
 4119W        W20303  16.138  16.116   4.162 -0.2627  0.1449  0.3253
 4120W        W20304  15.312   9.454  15.227 -0.1806  0.1827 -0.0273
 4121W        W20305  12.738  16.149   4.573 -0.1284  0.1680 -0.3978
 4122W        W20306   3.706  13.294   4.281 -0.1391 -0.0197 -0.0090
 4123W        W20307   2.358  18.408  12.245 -0.3015 -0.0141 -0.0611
 4124W        W20308  17.746  12.468   3.939  0.0004  0.0894  0.0492
 4125W        W20309  14.704  14.842   5.085  0.2599  0.0462  0.1843
 4126W        W20310   7.317   9.824   4.702  0.1536  0.0081 -0.0332
 4127W        W20311  10.809  12.251   4.888  0.3015  0.1608 -0.0791
 4128W        W20312   4.343   1.720   0.666  0.2044 -0.1066  0.0737
 4129W        W20313  15.299   3.291  13.805  0.1211  0.6115 -0.0241
 4130W        W20314  17.106   1.370  13.725  0.0445 -0.3327  0.0418
 4131W        W20315   7.715   6.398   5.928  0.1270 -0.0856 -0.4611
 4132W        W20316  15.832  16.314  15.072  0.3261 -0.1511  0.2231
 4133W        W20317  17.944  11.409  14.607  0.1433 -0.1928  0.2215
 4134W        W20318   3.370  10.827   0.302 -0.1524  0.1503  0.0097
 4135W        W20319   4.116  14.236  12.841 -0.3655 -0.2838  0.0262
 4136W        W20320  13.744  11.311   6.245 -0.1126 -0.0224 -0.0505
 4137W        W20321   0.740   9.233  14.286 -0.1621 -0.0181 -0.1142
 4138W        W20322  13.605   9.307  12.960 -0.2327 -0.3435 -0.0912
 4139W        W20323   8.541   9.697   5.851 -0.0564 -0.0607 -0.0642
 4140W        W20324   6.623   7.519   0.735 -0.2094 -0.0659  0.2089
 4141W        W20325   1.405   7.885   3.083  0.2302  0.2281 -0.1559
 4142W        W20326   6.163   1.803   2.801 -0.0850  0.1433 -0.4720
 4143W        W20327  11.873  10.730  12.519  0.2104  0.1007 -0.2910
 4144W        W20328   4.182  16.806  13.507 -0.1428  0.1959 -0.0776
 4145W        W20329  11.775   6.290  12.519 -0.0839  0.0096 -0.2918
 4146W        W20330  12.775  11.738   1.776  0.0927  0.1095 -0.0373
 4147W        W20331  13.158   9.887   4.749 -0.3192  0.1938  0.2089
 4148W        W20332   4.840   8.640   5.703 -0.1147  0.0250  0.2327
 4149W        W20333   5.740  15.629   1.634 -0.2170  0.0608 -0.0468
 4150W        W20334   8.246  13.150  14.888 -0.0138  0.1416 -0.2507
 4151W        W20335  15.723   9.450  13.776 -0.1254 -0.0057  0.0697
 4152W        W20336  17.469   6.587   4.871  0.1096 -0.2276 -0.0585
 4153W        W20337   2.789  12.986   4.397  0.1494 -0.1714 -0.0634
 4154W        W20338   3.509   0.008   0.169  0.0609 -0.0427  0.0836
 4155W        W20339   3.509   0.434  10.555  0.1298  0.0712  0.1201
 4156W        W20340   0.941   4.463  14.248 -0.0602  0.0999 -0.2229
 4157W        W20341  16.535   5.726  13.349  0.0967 -0.3846  0.1496
 4158W        W20342  13.443   5.480   3.522 -0.0764 -0.2220  0.3062
 4159W        W20343   6.181  14.029   2.172  0.0102 -0.1118  0.1656
 4160W        W20344  12.781   9.297  15.037 -0.1453  0.0242 -0.2751
 4161W        W20345   4.438   0.796   3.761 -0.1298  0.5404 -0.0868
 4162W        W20346  13.881  17.129   5.329 -0.1348 -0.1163  0.1702
 4163W        W20347   3.978  16.140  14.945 -0.2559 -0.2689 -0.3011
 4164W        W20348   5.305   6.807  14.829 -0.0368 -0.0295  0.1620
 4165W        W20349   3.507   0.428   5.141  0.0210 -0.0127 -0.1409
 4166W        W20350  16.707  16.863  12.054  0.0681 -0.2716 -0.2549
 4167W        W20351   5.891  18.457  12.474 -0.1116  0.0674 -0.0156
 4168W        W20352   7.055   9.940  15.323 -0.1499  0.0585  0.2921
 4169W        W20353   6.971  16.683   5.744  0.0965  0.0242  0.1058
 4170W        W20354   9.141  18.318   2.666  0.0049 -0.1538  0.1073
 4171W        W20355  13.256   7.107  13.511  0.1721 -0.0224  0.0694
 4172W        W20356   9.695   3.331   4.962  0.1968 -0.2571 -0.1176
 4173W        W20357   1.979  16.085   3.326 -0.0805 -0.0203  0.2171
 4174W        W20358  14.887   1.479  13.251 -0.3425  0.0813 -0.0611
 4175W        W20359  17.415   2.559   1.315 -0.1061 -0.1564  0.0711
 4176W        W20360   9.547  16.988   1.422  0.1683  0.1506  0.2716
 4177W        W20361  10.907  13.481   1.130 -0.1117 -0.0010 -0.0309
 4178W        W20362   3.197   4.336  14.833  0.1927 -0.4601  0.0336
 4179W        W20363  14.723   7.921  14.943  0.0703 -0.0549 -0.6268
 4180W        W20364   8.460   0.137   2.900  0.2866  0.0032  0.2493
 4181W        W20365   3.270   3.561   6.179  0.0657  0.0399  0.2115
 4182W        W20366  13.387  16.459  12.327  0.1053  0.2710 -0.5093
 4183W        W20367   1.601   5.262   0.438 -0.2436 -0.0252  0.2476
 4184W        W20368  13.864  17.710   1.549  0.0329  0.0138 -0.3244
 4185W        W20369   6.517   4.269   4.933 -0.1998  0.1390 -0.1808
 4186W        W20370   6.735  14.756  11.386  0.0369 -0.1628  0.0420
 4187W        W20371  13.156  13.714  14.221  0.0044 -0.3208  0.2395
 4188W        W20372  13.038  17.981  10.845 -0.0099  0.1492 -0.1499
 4189W        W20373   2.986   3.863  14.579 -0.0322  0.1478  0.0927
 4190W        W20374   9.763  12.347  15.992 -0.1239  0.1777  0.3071
 4191W        W20375  10.543  18.431   1.812 -0.0762 -0.2489 -0.0370
 4192W        W20376   2.594  13.268  10.981 -0.1434 -0.0440 -0.0954
 4193W        W20377  14.219   6.526   2.301  0.4748 -0.0612 -0.0517
 4194W        W20378   9.558  13.216   0.756  0.0183 -0.2453  0.2301
 4195W        W20379   8.981  14.199  13.750 -0.1200 -0.1548  0.1762
 4196W        W20380   1.218   3.423   3.404  0.0981 -0.1689 -0.0634
 4197W        W20381  16.708   5.634  14.555  0.5915 -0.2469  0.1882
 4198W        W20382   9.206   1.807   0.269  0.2467  0.0589 -0.0995
 4199W        W20383  18.020   4.093   1.095 -0.1029 -0.0228  0.0233
 4200W        W20384  18.381   4.091   0.175  0.0016  0.2529 -0.0438
 4201W        W20385  11.946  14.700   1.919 -0.0857  0.0292  0.2568
 4202W        W20386  18.201   9.349   0.530 -0.0073  0.1856  0.1084
 4203W        W20387  12.909  11.315  15.865  0.0772 -0.1766 -0.0015
 4204W        W20388  14.427   2.364   3.289  0.0656 -0.1415  0.1096
 4205W        W20389  14.994   8.406   4.039  0.1303  0.1012  0.1174
 4206W        W20390  13.405  12.558   1.244  0.0127  0.2134 -0.1945
 4207W        W20391  12.496  13.184   3.561  0.0921 -0.2021 -0.2354
 4208W        W20392   9.615  12.879  13.632 -0.1800  0.0082  0.0898
 4209W        W20393   3.446   5.942   2.026  0.0411  0.5856  0.2758
 4210W        W20394   2.736  12.423  11.682  0.0634 -0.0209 -0.1862
 4211W        W20395  12.415  18.305   3.861  0.3452  0.2530  0.1342
 4212W        W20396   1.900  12.349   4.648  0.1073 -0.2695 -0.1759
 4213W        W20397  17.821  10.086   0.799  0.0325 -0.1288 -0.0074
 4214W        W20398   3.893  10.635   0.515  0.2404 -0.2044  0.1013
 4215W        W20399  14.089  11.035  14.975 -0.2024 -0.1303 -0.1167
 4216W        W20400  15.852  12.448  15.289  0.3081 -0.0949  0.1767
 4217W        W20401   6.727   0.377  12.764  0.1996 -0.1252  0.0922
 4218W        W20402   0.743   7.711   5.055 -0.1286 -0.1526 -0.0892
 4219W        W20403  11.653   2.072  13.577 -0.0545 -0.0209 -0.2267
 4220W        W20404  14.935   5.248   0.388  0.2117 -0.0598  0.0892
 4221W        W20405   4.415  16.068  12.042 -0.2365  0.0169  0.0370
 4222W        W20406  16.819   8.945  11.313  0.1486  0.4370 -0.0995
 4223W        W20407   3.699   8.620   2.076  0.2705 -0.0805 -0.4033
 4224W        W20408   1.977  11.536  12.944 -0.1105  0.1848  0.0806
 4225W        W20409   2.658   8.664  11.866 -0.1394  0.4373 -0.1535
 4226W        W20410  16.047  12.041   0.386 -0.1148  0.1358 -0.4801
 4227W        W20411   9.903  10.591   5.542 -0.0314  0.2660  0.2061
 4228W        W20412  17.127  16.254   4.306  0.0183  0.0784  0.2114
 4229W        W20413   9.426  10.137  12.635  0.1775  0.1686  0.0041
 4230W        W20414  11.328  14.744  13.583 -0.0781  0.0089 -0.1101
 4231W        W20415  15.591   6.821   2.408  0.0932 -0.0967  0.0544
 4232W        W20416  11.649  11.243   0.996  0.1175  0.1683 -0.1066
 4233W        W20417   7.116  16.440  11.436  0.3740  0.3262 -0.1391
 4234W        W20418  10.760   4.931   2.551  0.2927  0.0808 -0.2808
 4235W        W20419  17.379   6.035  15.079 -0.2952  0.2434 -0.0880
 4236W        W20420  17.741   0.829   4.526 -0.1473  0.0342  0.0408
 4237W        W20421   2.396   1.883   4.023 -0.0233  0.0829  0.1764
 4238W        W20422   9.523   3.912   0.609  0.0202  0.1993 -0.1098
 4239W        W20423   4.593  16.406   0.147  0.3227  0.0970 -0.2878
 4240W        W20424   1.325  13.003  14.171  0.1307 -0.4726 -0.2394
 4241W        W20425   3.909   6.318  14.473 -0.0392  0.0305  0.1661
 4242W        W20426   5.967  15.248   4.802 -0.2664  0.2226  0.0303
 4243W        W20427   8.578   9.621   5.361 -0.1387 -0.0786 -0.2059
 4244W        W20428  14.390   8.836   2.686  0.1631 -0.0913  0.1967
 4245W        W20429  13.400  13.550  13.747 -0.0511  0.0997  0.2502
 4246W        W20430  18.253   3.049  11.092  0.2766  0.0538  0.1615
 4247W        W20431   8.547  14.987  12.755  0.1799 -0.0439 -0.2937
 4248W        W20432   4.224  11.207  14.181  0.0880 -0.0505 -0.0213
 4249W        W20433  17.798  18.126   5.043  0.3126  0.0662  0.1393
 4250W        W20434   0.584  16.555   1.306 -0.1029  0.0177 -0.0753
 4251W        W20435   2.644  13.006   3.007 -0.1066  0.0794  0.1379
 4252W        W20436   9.211   8.779  14.614 -0.0787  0.5437  0.1083
 4253W        W20437   5.887  16.360  11.220 -0.1273 -0.0206 -0.0257
 4254W        W20438   7.660  10.521   2.019 -0.0535  0.2756  0.1249
 4255W        W20439   1.385  15.007  14.074  0.1093 -0.0987 -0.1782
 4256W        W20440   6.704   7.083   4.193  0.3426  0.0900  0.4386
 4257W        W20441  12.018   1.532   0.637 -0.0502  0.1548 -0.0907
 4258W        W20442  16.889   7.050   5.511  0.0506 -0.1707 -0.2076
 4259W        W20443  11.462   5.244  11.460 -0.0733 -0.0086 -0.0221
 4260W        W20444  14.127  12.955   2.032 -0.0409 -0.2111  0.3259
 4261W        W20445   5.053  16.248   1.347 -0.0035 -0.2806 -0.1853
 4262W        W20446   8.104   4.535  14.010  0.1665  0.2306  0.4068
 4263W        W20447   9.136  13.710  13.994 -0.0807 -0.1652  0.0560
 4264W        W20448  16.631   4.485  11.915 -0.0321 -0.1975 -0.1971
 4265W        W20449   0.465   1.614  11.277  0.1154  0.0275 -0.1432
 4266W        W20450   6.898  11.573   4.176 -0.1139  0.2120  0.1062
 4267W        W20451  10.320  10.755   0.093 -0.1978  0.1159  0.1232
 4268W        W20452   7.361  17.763   4.234 -0.0116  0.0926 -0.0837
 4269W        W20453   5.533  12.932  12.363 -0.1622  0.0624 -0.1477
 4270W        W20454   5.799  17.016  15.087 -0.0649  0.1352 -0.0567
 4271W        W20455  15.581   9.444   5.920 -0.1584 -0.1631 -0.1001
 4272W        W20456   4.719  13.620  14.242 -0.1274  0.2340  0.1035
 4273W        W20457   2.976   6.730   3.648 -0.0069 -0.1585 -0.0135
 4274W        W20458  16.202  17.851   1.384 -0.1386 -0.0636 -0.0641
 4275W        W20459   1.201   6.376   1.008 -0.0692 -0.0855  0.0318
 4276W        W20460   2.872  13.236   2.544 -0.2942  0.2109 -0.1073
 4277W        W20461  12.968   2.233  12.690 -0.2444  0.1454  0.2056
 4278W        W20462  15.379   3.981  13.227  0.0367  0.1627  0.1936
 4279W        W20463  12.791  16.628  14.463 -0.0235  0.1157 -0.0745
 4280W        W20464   6.126  10.428  14.049  0.0720  0.0697 -0.3693
 4281W        W20465  16.093   3.657  10.860  0.0014  0.1604  0.2190
 4282W        W20466  14.030  11.585   5.420  0.0939  0.1064 -0.0691
 4283W        W20467  12.493  14.196   4.101 -0.2691 -0.3374 -0.2799
 4284W        W20468   0.974  13.221  13.421  0.1024  0.0814  0.1225
 4285W        W20469  18.452  15.932  15.308  0.0838 -0.0780 -0.2431
 4286W        W20470   3.041   4.928   0.806 -0.2121  0.2956 -0.5356
 4287W        W20471   3.891  15.129   0.209 -0.2353  0.0012 -0.2388
 4288W        W20472  11.456   0.480   4.497  0.0809  0.2443 -0.0565
 4289W        W20473   0.337  16.767  11.241 -0.3018  0.3237 -0.0712
 4290W        W20474  15.367   0.437  16.148 -0.1870  0.1983  0.1857
 4291W        W20475   4.915   0.311   2.814  0.1699  0.2368 -0.3851
 4292W        W20476  12.794  17.840  14.269 -0.0323 -0.1574  0.0137
 4293W        W20477   8.661   1.617  15.391  0.1817 -0.0801  0.1322
 4294W        W20478  16.840  18.086   0.645  0.0307  0.2295 -0.1213
 4295W        W20479  10.043   7.348   0.369  0.0319 -0.4219  0.3026
 4296W        W20480  13.332  14.600  12.642 -0.3853 -0.0079  0.2935
 4297W        W20481   3.033   9.282  13.345 -0.1737  0.3253  0.3060
 4298W        W20482  15.077  15.407   0.854  0.1526  0.3069 -0.2744
 4299W        W20483   2.227   1.629  13.564 -0.0281 -0.1286 -0.0185
 4300W        W20484   2.735  14.100  15.684  0.0422 -0.3471 -0.0341
 4301W        W20485   6.045   5.700  12.041  0.0214 -0.3511 -0.2421
 4302W        W20486   7.265   7.852  15.684 -0.0593 -0.0787  0.3247
 4303W        W20487  17.261  17.542   3.820 -0.1313  0.3169  0.3430
 4304W        W20488   2.623   1.903  14.557  0.1798  0.2757  0.0598
 4305W        W20489   5.836   3.211  13.774 -0.1000  0.0516 -0.0378
 4306W        W20490  12.315  17.915  11.654  0.1658 -0.1626 -0.2084
 4307W        W20491  10.166   7.189   4.141  0.0640  0.0679  0.0794
 4308W        W20492   2.719  13.055  12.229  0.0303 -0.1087  0.2576
 4309W        W20493   8.654   0.354   4.206 -0.1102  0.1890  0.1064
 4310W        W20494   6.436   6.493   4.101  0.0336  0.0578  0.1549
 4311W        W20495  10.377  13.751  14.434 -0.1371 -0.1815  0.3098
 4312W        W20496   6.415   3.870  15.583 -0.2105  0.1294  0.0690
 4313W        W20497  15.504   7.344   2.318  0.1062  0.2028 -0.1496
 4314W        W20498  14.307   1.260   0.122  0.1287  0.2699  0.3574
 4315W        W20499   1.886  10.556  11.966 -0.2074 -0.1429  0.2279
 4316W        W20500  16.393  12.883  12.106 -0.2605 -0.4547 -0.4032
 4317W        W20501  13.275   4.799   4.362  0.4334  0.0476 -0.0629
 4318W        W20502  10.968  11.860  15.437  0.1308 -0.0708 -0.1450
 4319W        W20503   9.382  12.211   1.096  0.2544 -0.0086  0.1058
 4320W        W20504  14.646   4.332   0.995 -0.4982 -0.0102 -0.2283
 4321W        W20505   3.268  11.272   1.207 -0.1036 -0.1967  0.0840
 4322W        W20506   1.080   1.677  13.141  0.1142  0.5164  0.3235
 4323W        W20507  11.863  10.099   0.606  0.2610  0.0543  0.0607
 4324W        W20508  12.083   9.230  13.295  0.0042  0.1628  0.2749
 4325W        W20509   4.103  13.803  13.066 -0.0584 -0.1250  0.0141
 4326W        W20510   8.661   8.399   4.383 -0.1228 -0.0594 -0.0814
 4327W        W20511  14.509   0.693  14.527 -0.2508  0.0526  0.2804
 4328W        W20512  16.351  13.223  14.827 -0.0147  0.3920 -0.2766
 4329W        W20513  11.391   8.605   3.499  0.3399 -0.0429 -0.0146
 4330W        W20514   6.490   4.649   2.391 -0.0391 -0.2860 -0.0300
 4331W        W20515  11.047   5.549   2.067  0.0724  0.1962  0.0995
 4332W        W20516  10.102  16.151   1.492 -0.1137  0.1297  0.3691
 4333W        W20517   1.237   5.325  15.615 -0.1146  0.1362  0.2474
 4334W        W20518  16.600   2.571   4.769  0.4013 -0.1575  0.0586
 4335W        W20519  18.147   5.337   4.502 -0.0732 -0.2303 -0.0597
 4336W        W20520  12.496   0.598  14.718 -0.1647 -0.3122  0.0970
 4337W        W20521   0.567   2.673   4.933 -0.1602 -0.2337 -0.0933
 4338W        W20522  13.510   7.513  11.018 -0.1169 -0.0746 -0.0037
 4339W        W20523   4.179  10.030   3.639 -0.0634  0.1123  0.0626
 4340W        W20524   8.722  11.963   1.256  0.1293  0.1686 -0.3143
 4341W        W20525   4.125  16.676   0.968 -0.0736 -0.0453 -0.1938
 4342W        W20526   9.371   2.818   4.216 -0.0143 -0.1247  0.1805
 4343W        W20527   9.130   9.187  13.580  0.3645 -0.0902  0.1147
 4344W        W20528   2.636   4.161   1.147  0.1105 -0.0732  0.1576
 4345W        W20529   9.527   0.805  12.213  0.1075 -0.0214  0.1513
 4346W        W20530  16.289   5.033  11.907 -0.1280 -0.2841 -0.2000
 4347W        W20531   0.260   3.081   4.421  0.0325  0.0092 -0.0547
 4348W        W20532   8.013  13.540   1.678 -0.0351  0.2316  0.0385
 4349W        W20533  13.925   2.006   5.005 -0.2906  0.2122  0.1277
 4350W        W20534   2.074   6.036  12.902  0.1487  0.0953  0.0251
 4351W        W20535   1.531   1.626  14.323 -0.2070  0.0088  0.0506
 4352W        W20536   1.537   8.987  14.758  0.1009 -0.2618 -0.0461
 4353W        W20537   1.722   2.161   1.799  0.0520  0.1654 -0.1520
 4354W        W20538   6.584   7.918  12.411 -0.0919  0.2533  0.2836
 4355W        W20539  12.849  14.852  12.015 -0.0990  0.0830 -0.0540
 4356W        W20540  11.599  11.707   1.221  0.1136  0.0835 -0.2230
 4357W        W20541  12.075   4.232   5.878 -0.3731  0.2138 -0.1392
 4358W        W20542   2.476  14.608   0.581  0.0103  0.3015  0.0838
 4359W        W20543   1.429  10.462  13.932  0.0560 -0.1127 -0.1345
 4360W        W20544  11.293  17.792   1.163 -0.0314 -0.1560  0.1054
 4361W        W20545   1.474   5.974  13.693  0.1792 -0.1960 -0.0656
 4362W        W20546  12.024   3.379  12.552 -0.0522 -0.3437 -0.0100
 4363W        W20547   0.083   1.413  11.674  0.3408  0.1713 -0.3528
 4364W        W20548   8.564  13.203  14.509  0.1263 -0.0735 -0.0683
 4365W        W20549   6.583   2.448   1.748 -0.0938 -0.1206  0.2421
 4366W        W20550   8.125  13.282   0.239 -0.1970  0.1025  0.4320
 4367W        W20551  10.172   2.783   0.213 -0.1369 -0.1791  0.2524
 4368W        W20552  17.195  16.130   2.850 -0.0161 -0.3978 -0.2955
 4369W        W20553  12.028  13.672   0.449  0.2269  0.1419  0.1508
 4370W        W20554  15.608  17.915   0.506 -0.3232  0.0780  0.1603
 4371W        W20555   3.660  13.133   2.875  0.2238  0.2393  0.2099
 4372W        W20556   5.466   4.395  15.994 -0.0109 -0.2274  0.2152
 4373W        W20557  14.611   7.584   2.263  0.0032  0.0009  0.2087
 4374W        W20558  11.663  13.596   2.578  0.2414 -0.1491 -0.0258
 4375W        W20559   9.303   1.648   4.788 -0.0780  0.2164 -0.1680
 4376W        W20560  14.552  15.732  11.772  0.1107 -0.0382  0.0629
 4377W        W20561   1.129   4.603   0.277 -0.1147  0.1989 -0.2564
 4378W        W20562  16.094  14.220   5.306  0.3007 -0.0983 -0.0084
 4379W        W20563   0.875  13.601   3.706 -0.2493  0.0838 -0.3286
 4380W        W20564   7.110   1.016   4.308  0.1395  0.2295 -0.0315
 4381W        W20565  12.062   8.061  11.688  0.0298  0.2103 -0.0513
 4382W        W20566  15.554  16.122   5.737 -0.1442 -0.1305  0.1960
 4383W        W20567  14.144   7.681   3.031 -0.0823 -0.0008  0.0893
 4384W        W20568   5.581   1.273   3.681  0.0148 -0.1009  0.0847
 4385W        W20569  11.754  14.624   0.639 -0.0123  0.0144 -0.2995
 4386W        W20570  16.369  14.823   3.955  0.0143 -0.0040 -0.0165
 4387W        W20571  13.366   5.876  14.113 -0.1568 -0.1742 -0.1289
 4388W        W20572  15.406  12.923   5.350 -0.1358 -0.0995 -0.0159
 4389W        W20573  11.821   7.411  13.293 -0.0309  0.4845  0.1170
 4390W        W20574  10.003  11.375   0.742 -0.1113 -0.0727  0.0005
 4391W        W20575  18.268   3.246  12.810 -0.0834 -0.0302  0.0722
 4392W        W20576   3.994  13.142  14.588  0.1711 -0.1735 -0.0012
 4393W        W20577   9.274  11.237   2.130 -0.1132  0.0344 -0.0511
 4394W        W20578   6.234  11.317  14.972  0.0697 -0.1522 -0.0048
 4395W        W20579   6.088  15.271  12.927  0.1473 -0.0503 -0.2454
 4396W        W20580   7.999  14.313   1.192 -0.4134 -0.0873 -0.2031
 4397W        W20581  11.129   5.312  14.338  0.1494  0.2271  0.2142
 4398W        W20582  13.786  10.675   4.058 -0.0563 -0.0103 -0.0659
 4399W        W20583  15.214  11.392   0.031 -0.1691  0.2110 -0.0758
 4400W        W20584  14.335   3.525   2.697  0.0792 -0.4188  0.3019
 4401W        W20585   7.554   3.337   5.359 -0.2608 -0.1220 -0.1285
 4402W        W20586  11.014   5.128   2.993 -0.0843  0.1777 -0.0988
 4403W        W20587   3.886   9.490   2.395  0.3592 -0.1666 -0.1294
 4404W        W20588   0.306  15.319   1.751  0.1259 -0.0732 -0.4144
 4405W        W20589   6.027   8.866   2.600  0.1821  0.2641 -0.1802
 4406W        W20590  14.719   8.516   5.430 -0.0476 -0.3050 -0.0670
 4407W        W20591   2.521   6.639   5.353  0.4264 -0.1182 -0.0104
 4408W        W20592   7.592  13.025   4.930  0.2184 -0.0710 -0.1070
 4409W        W20593   8.918  17.517   2.373  0.2879 -0.3268 -0.3343
 4410W        W20594   8.420  12.062  15.138 -0.2017 -0.4941 -0.1471
 4411W        W20595  16.209   1.476  16.046  0.1415  0.0196 -0.2734
 4412W        W20596   2.181  12.283  14.094 -0.0635 -0.1082  0.2702
 4413W        W20597  15.751  17.379  15.037  0.1650 -0.1435  0.1174
 4414W        W20598   0.196   7.531   5.231 -0.1819 -0.1425 -0.0713
 4415W        W20599  16.360   5.195   0.623 -0.0144  0.3275 -0.0138
 4416W        W20600   9.340  17.844   1.308  0.2459 -0.1575 -0.0570
 4417W        W20601  13.648   0.534   1.963 -0.0644  0.0892 -0.2854
 4418W        W20602   0.953   5.195   1.302  0.3426  0.1772 -0.0104
 4419W        W20603  15.976  13.924  12.360 -0.0124 -0.2542 -0.0703
 4420W        W20604   5.377  17.034  12.964  0.2640  0.2132 -0.3472
 4421W        W20605   7.860   4.993  14.078 -0.0488  0.1540 -0.0851
 4422W        W20606  11.521  13.433  12.194  0.0388  0.2661 -0.1325
 4423W        W20607   8.611  17.988  11.806  0.2469  0.2456 -0.4016
 4424W        W20608   6.838   7.731   3.782 -0.0742  0.4857  0.0703
 4425W        W20609  17.403   8.446   4.953  0.0633  0.1699  0.0432
 4426W        W20610   0.467  15.127  13.842 -0.0738 -0.1743 -0.1631
 4427W        W20611  17.812  16.083  12.658  0.0955  0.2356  0.6077
 4428W        W20612   9.847   5.515  15.358  0.0304 -0.1794 -0.0443
 4429W        W20613   7.742   4.712   5.350 -0.3066  0.1749  0.0575
 4430W        W20614  12.736  17.058  12.212  0.0133  0.0146  0.0917
 4431W        W20615  16.318  16.968   1.579 -0.1275 -0.0133 -0.3106
 4432W        W20616  10.802  11.026   1.940 -0.0328  0.1626 -0.1142
 4433W        W20617  15.057   3.638   5.474 -0.1266  0.0143 -0.4052
 4434W        W20618   2.596   1.472  14.280  0.3378  0.0348  0.2024
 4435W        W20619  12.298   3.387  13.941 -0.1083  0.0362 -0.1513
 4436W        W20620   1.915   8.321   0.136 -0.2945 -0.2954 -0.1424
 4437W        W20621  13.378   3.873  12.118  0.0325  0.1150 -0.0301
 4438W        W20622  11.026  17.101   2.734 -0.1130 -0.1845 -0.1515
 4439W        W20623  16.139  13.589   1.686  0.1173  0.2118 -0.1610
 4440W        W20624   6.158  17.860   1.449 -0.2244  0.1579 -0.1719
 4441W        W20625  13.859  12.175  13.616 -0.1545 -0.1332 -0.1831
 4442W        W20626   2.777   8.656  15.217  0.0228 -0.4794 -0.2293
 4443W        W20627   4.745  12.597   3.544 -0.1098 -0.1371 -0.0661
 4444W        W20628  17.026  10.621   0.703  0.1898 -0.0338 -0.0238
 4445W        W20629   4.686  15.222   1.857 -0.2125 -0.2134  0.0157
 4446W        W20630   0.978   8.248  14.396 -0.1692  0.0037 -0.0613
 4447W        W20631   8.411   4.855  10.371 -0.0698 -0.3201 -0.0326
 4448W        W20632   5.077   8.899  13.232 -0.5015  0.1325 -0.0309
 4449W        W20633  10.521   9.530  14.280 -0.0967  0.3473 -0.4448
 4450W        W20634  16.917   6.115  14.509  0.3216  0.2684 -0.0031
 4451W        W20635  17.143  10.779  14.425 -0.1158  0.1567 -0.1397
 4452W        W20636   9.240  17.216  14.153  0.1004 -0.0717 -0.4501
 4453W        W20637  10.260  11.811   3.115 -0.0194 -0.3710 -0.0055
 4454W        W20638  10.271   3.746   1.348 -0.0891  0.0536 -0.2831
 4455W        W20639   8.928  11.522  13.262  0.2990  0.4257  0.0565
 4456W        W20640  18.244   1.768  13.436  0.1071 -0.0755  0.0812
 4457W        W20641   8.924   5.281  11.595 -0.0570 -0.1039 -0.1196
 4458W        W20642  12.792   1.567   0.079  0.2776 -0.1104 -0.0876
 4459W        W20643  14.012  12.511  13.993  0.2893  0.2749  0.0068
 4460W        W20644  10.965  17.891  13.538 -0.3370 -0.1111  0.1296
 4461W        W20645  13.168  17.327   3.913 -0.0259  0.1280 -0.0385
 4462W        W20646   4.924  17.707   0.474 -0.0716 -0.0921  0.1566
 4463W        W20647   8.660   1.264  11.344  0.1583  0.0150  0.0228
 4464W        W20648   9.181  10.331  15.304  0.2088 -0.2286 -0.0995
 4465W        W20649  10.855  10.460   4.958 -0.2587  0.0392 -0.2540
 4466W        W20650  18.032  10.160  14.142 -0.4530  0.1862  0.3215
 4467W        W20651  15.717  11.295  14.526 -0.2731 -0.0329 -0.1654
 4468W        W20652  17.879  10.509  11.689 -0.2675  0.1621 -0.2106
 4469W        W20653  13.662   4.328   0.782 -0.0773  0.0752  0.1779
 4470W        W20654  11.273  17.670  11.515  0.0811  0.0166  0.1952
 4471W        W20655   1.310   2.197  12.343  0.1030  0.0168  0.2503
 4472W        W20656  12.796  11.832  11.708  0.0359 -0.1019 -0.0763
 4473W        W20657   3.122  17.210   5.770 -0.0119  0.1656 -0.1325
 4474W        W20658   7.741   6.160  13.587 -0.1057  0.0354  0.0442
 4475W        W20659   2.150   7.315   2.571 -0.2971 -0.0802  0.0797
 4476W        W20660  14.135   8.572  15.416  0.0361 -0.0148 -0.0773
 4477W        W20661   5.630   7.022   3.228  0.0579  0.1297  0.1924
 4478W        W20662  16.684   1.133  15.315 -0.0751  0.0812  0.1257
 4479W        W20663   7.207   2.841   3.621  0.0251  0.2148  0.1267
 4480W        W20664  18.325   3.344  10.442  0.2616  0.1496 -0.2623
 4481W        W20665   4.187   6.368  10.888 -0.3850  0.0551  0.1833
 4482W        W20666  14.202  10.988   1.884 -0.2198 -0.2360 -0.2053
 4483W        W20667  11.540  12.072   6.306  0.1421  0.0892  0.4100
 4484W        W20668  11.959   1.893  15.208  0.3603 -0.1166  0.0378
 4485W        W20669  11.850   1.466  14.127 -0.2149  0.2027  0.3806
 4486W        W20670  11.095  16.502   3.865 -0.1759 -0.1390  0.0205
 4487W        W20671   0.224  17.820  11.807  0.0845  0.0329  0.3010
 4488W        W20672   2.925  15.713   4.760 -0.0662 -0.1373  0.5524
 4489W        W20673   4.539   9.980   5.980  0.1548  0.0754  0.3970
 4490W        W20674   6.293  10.393  15.284  0.1343 -0.1005  0.0244
 4491W        W20675   4.262  16.253  15.337 -0.0601  0.1124  0.1727
 4492W        W20676   2.875   0.823   2.205 -0.1673 -0.1805 -0.1214
 4493W        W20677   2.128   8.703   5.559  0.0274 -0.2229  0.0637
 4494W        W20678  18.484   7.631  12.675 -0.2312 -0.0384  0.0502
 4495W        W20679   2.952   3.385  14.681 -0.0986 -0.0626 -0.1522
 4496W        W20680   0.334   9.079   2.326 -0.0112 -0.3219 -0.0530
 4497W        W20681   0.087   6.891   3.625  0.0379  0.0019  0.3797
 4498W        W20682   3.187  12.770  15.619  0.2151 -0.1432  0.1670
 4499W        W20683   8.053   6.322   2.659 -0.0473 -0.0560 -0.0047
 4500W        W20684   8.322  17.279  12.239  0.1450 -0.0117  0.0378
 4501W        W20685   1.915   8.336   4.487 -0.1290 -0.1283 -0.3388
 4502W        W20686   1.207  13.721  15.793  0.0076 -0.0443  0.3280
 4503W        W20687  11.302  14.615   0.378 -0.1293 -0.3828  0.1877
 4504W        W20688  10.085   1.503   4.059 -0.2548 -0.1095  0.0946
 4505W        W20689   0.137  10.895   0.674 -0.2056  0.1230 -0.2174
 4506W        W20690  11.483   0.401   3.243 -0.0898  0.0008 -0.0304
 4507W        W20691   0.143   5.944   4.451  0.2188  0.0339  0.3828
 4508W        W20692  13.220  17.209   2.946  0.0293 -0.2860  0.1594
 4509W        W20693  18.462   0.866  10.808 -0.0224  0.0485 -0.0596
 4510W        W20694   8.679  15.424   4.539 -0.1861 -0.1721 -0.0937
 4511W        W20695   8.441  11.364   1.207 -0.0358  0.1352 -0.2278
 4512W        W20696  13.937   8.127  12.797  0.0221  0.0142 -0.1464
 4513W        W20697  11.728   6.606  11.396 -0.0832  0.1734  0.2320
 4514W        W20698   6.502  18.188   0.429  0.1262  0.2719 -0.0725
 4515W        W20699  12.733  10.307  10.804  0.1220  0.4104 -0.3235
 4516W        W20700   7.576   4.384   4.134 -0.0371 -0.0617 -0.3000
 4517W        W20701   6.392  14.816   0.808 -0.0342  0.0113 -0.1512
 4518W        W20702   8.257  14.679  11.990 -0.0029  0.0080  0.0361
 4519W        W20703  11.423   3.031   6.002  0.2364  0.5053 -0.0724
 4520W        W20704   7.600   7.973  16.131 -0.0525  0.3281 -0.1762
 4521W        W20705   2.280  11.751  13.376  0.0142  0.0481  0.1389
 4522W        W20706   6.231   2.221   3.034 -0.3592 -0.1801 -0.1179
 4523W        W20707   4.103  10.214   6.107 -0.0383 -0.1214 -0.1330
 4524W        W20708   5.389   4.068  12.690 -0.1909  0.0570 -0.1256
 4525W        W20709  10.498  16.140  15.549 -0.1507 -0.0769 -0.1851
 4526W        W20710  15.406   5.193  11.322  0.0446  0.1072 -0.1542
 4527W        W20711  11.208   4.623   5.559 -0.2851 -0.1594  0.2170
 4528W        W20712  15.431   4.055  12.416  0.1400 -0.1796  0.2000
 4529W        W20713  15.634  12.788  15.652 -0.1765  0.2054  0.1296
 4530W        W20714   8.784  12.045  11.502  0.2427 -0.0806 -0.1833
 4531W        W20715   3.786  15.049   1.563 -0.1205 -0.0996 -0.4871
 4532W        W20716   8.907   9.819   0.884 -0.3822 -0.2858 -0.1433
 4533W        W20717  13.403  11.153  11.264 -0.2619  0.0135 -0.1477
 4534W        W20718  13.376   2.607   1.804  0.1248 -0.2179  0.0006
 4535W        W20719  17.202  12.831   0.510  0.0782  0.2612  0.2778
 4536W        W20720   8.549   3.944  10.205 -0.3018 -0.1164  0.1427
 4537W        W20721  12.438   3.103   0.863 -0.1065  0.0833 -0.3000
 4538W        W20722   0.824  18.400  10.536 -0.2346 -0.3410  0.0101
 4539W        W20723  13.712  14.859  11.531  0.0648 -0.2042 -0.2481
 4540W        W20724  10.928  11.099  12.745 -0.0455 -0.3689 -0.2092
 4541W        W20725  12.006   9.284  14.616 -0.0150  0.1748 -0.0491
 4542W        W20726   8.707   0.971   5.035  0.1572  0.1721 -0.0963
 4543W        W20727  10.090   3.290   1.471  0.0193  0.1524  0.0948
 4544W        W20728  14.032  11.635   1.952  0.0319  0.1789 -0.0814
 4545W        W20729  15.029  15.445   4.469  0.1528 -0.0708  0.1380
 4546W        W20730  17.608   3.014   0.317 -0.1174 -0.1259 -0.0806
 4547W        W20731   0.679   5.800  13.163  0.4234 -0.1643  0.5840
 4548W        W20732  18.023   1.765   2.603 -0.2788  0.2212 -0.1551
 4549W        W20733   2.075  12.625   1.541 -0.3842 -0.1257 -0.1673
 4550W        W20734   6.625   4.760   1.907 -0.0847  0.1574  0.2635
 4551W        W20735  16.163  15.770  12.894  0.1388 -0.2416  0.2295
 4552W        W20736   2.981   8.666   0.030  0.1915  0.2250 -0.1998
 4553W        W20737  11.213   1.599   2.748  0.1336  0.0690  0.1606
 4554W        W20738  12.294  10.381   1.512 -0.1369  0.3101  0.0381
 4555W        W20739   7.418   4.531  13.155 -0.0365 -0.1604  0.2372
 4556W        W20740   6.265  11.569  12.474 -0.1222 -0.3397  0.0190
 4557W        W20741  13.319   6.767   1.671 -0.1113 -0.4712 -0.1806
 4558W        W20742   0.916   0.874   4.685 -0.2323  0.0166  0.2513
 4559W        W20743   5.264  17.234   1.858 -0.0525  0.0676  0.0572
 4560W        W20744   0.338   7.416   3.453 -0.0136  0.1297 -0.2153
 4561W        W20745  12.893  14.241  16.005  0.1153 -0.0310  0.1221
 4562W        W20746   6.726  18.124  13.743 -0.1530 -0.0202 -0.0507
 4563W        W20747   0.368  16.122  15.936  0.3808 -0.0189 -0.0452
 4564W        W20748   8.435  15.836   0.015 -0.0864  0.0639 -0.1316
 4565W        W20749  16.439  10.621  12.002 -0.3005 -0.3032  0.0350
 4566W        W20750   0.224  15.415  15.048  0.1727  0.2393 -0.1836
 4567W        W20751   4.146  13.685  14.114 -0.1380  0.1290 -0.0597
 4568W        W20752  10.480   9.495  14.800 -0.0168  0.1206 -0.1935
 4569W        W20753  13.667   3.724  11.331  0.1096  0.0669  0.0715
 4570W        W20754  17.409   0.019  15.460  0.1262  0.2223  0.0501
 4571W        W20755   5.153   4.453   1.909  0.1907  0.1724  0.1615
 4572W        W20756   7.536  15.637  13.123 -0.0276 -0.1036  0.4889
 4573W        W20757  12.346   8.813   2.364 -0.0378 -0.1585 -0.1026
 4574W        W20758  16.968   7.389   0.628  0.0686 -0.1931 -0.1337
 4575W        W20759   5.290  14.395  15.213  0.2618  0.4027  0.0847
 4576W        W20760  15.237  11.665   1.986  0.1328  0.3704 -0.0146
 4577W        W20761   6.945  11.125  10.472  0.0799  0.0142  0.1911
 4578W        W20762  14.081   8.170   0.487  0.1680 -0.0058 -0.1384
 4579W        W20763   4.953  14.967   0.201 -0.4701  0.1658  0.1218
 4580W        W20764  16.744   4.360  14.898 -0.1860 -0.2158  0.2154
 4581W        W20765  15.863  12.347   0.819  0.3151  0.2908 -0.1483
 4582W        W20766   3.976   9.320  11.069  0.1386 -0.1232 -0.4893
 4583W        W20767   3.733   6.344   2.335  0.0833 -0.1324 -0.4507
 4584W        W20768   9.111  11.194  15.443 -0.1694  0.1782  0.2808
 4585W        W20769   7.327  15.273  13.368  0.0102 -0.0712 -0.0147
 4586W        W20770  17.800   0.356   4.897 -0.0030  0.0132 -0.2378
 4587W        W20771   3.441   3.646  14.641 -0.0625  0.1332 -0.0200
 4588W        W20772  14.235   6.977   3.937 -0.0228  0.4390  0.2690
 4589W        W20773  13.053  12.700  14.976 -0.1776  0.2709  0.0961
 4590W        W20774  18.417  17.774   1.748  0.0071 -0.0594  0.0307
 4591W        W20775   1.910  12.114   2.213  0.2157  0.2779 -0.0215
 4592W        W20776   4.659   5.538  15.455 -0.2969  0.1072  0.0505
 4593W        W20777   8.222   5.290  14.577  0.1663 -0.1571 -0.0029
 4594W        W20778  10.615  11.227  14.519  0.3567 -0.2119 -0.5728
 4595W        W20779  14.688  11.145   2.952  0.3080 -0.1571  0.3063
 4596W        W20780   1.277   9.367   4.802  0.2694 -0.0806 -0.0508
 4597W        W20781  11.435   0.562  11.144  0.0437  0.2361 -0.2696
 4598W        W20782   3.099  10.115  11.587  0.1502 -0.1858  0.2568
 4599W        W20783   4.074  12.269  13.377  0.0552  0.0001 -0.1554
 4600W        W20784  12.613   0.346  11.708  0.2093  0.4326 -0.0564
 4601W        W20785   0.205   8.664   3.431 -0.2947  0.0976 -0.2170
 4602W        W20786   5.362   2.390   1.330  0.1139  0.1500  0.1978
 4603W        W20787   7.088  15.886  13.165 -0.1745  0.0277 -0.4258
 4604W        W20788  10.650   5.334  14.353 -0.1113 -0.0627 -0.0174
 4605W        W20789   5.792  18.083  12.111 -0.1645 -0.4278 -0.2405
 4606W        W20790  14.570   5.484  13.139  0.1225 -0.1454  0.0226
 4607W        W20791   3.130  15.869   4.277  0.1048  0.1864 -0.0498
 4608W        W20792  10.299   1.590   9.965 -0.1745  0.0887 -0.0602
 4609W        W20793   4.469   4.681  15.605 -0.1342 -0.1509  0.0643
 4610W        W20794  11.251  17.114   5.111  0.1095 -0.1177  0.1218
 4611W        W20795   4.361   8.373   1.276  0.3463  0.1137  0.0964
 4612W        W20796   1.140   1.394   3.514 -0.1141  0.0710 -0.0345
 4613W        W20797   2.018   4.660   2.548  0.1282  0.0911 -0.0485
 4614W        W20798  11.517  12.113  14.230 -0.1500  0.0022  0.2030
 4615W        W20799   8.261  17.215   0.809 -0.0385  0.0379 -0.1325
 4616W        W20800  17.238   8.562   4.496  0.3929  0.1601 -0.0124
 4617W        W20801  11.376  13.241  13.121  0.2426 -0.2819 -0.1415
 4618W        W20802   5.273   2.795   3.218  0.1287  0.2431 -0.2287
 4619W        W20803   1.142   8.270  11.943 -0.1123 -0.2050  0.4906
 4620W        W20804   3.402  13.072   1.949 -0.1572  0.0666  0.0108
 4621W        W20805   4.546  13.202   5.161  0.1059  0.2688  0.0784
 4622W        W20806   9.054  18.006   3.409 -0.1809 -0.1288 -0.1205
 4623W        W20807   5.515  16.057   2.209  0.0110  0.1441  0.0359
 4624W        W20808  10.838   6.594  12.754 -0.1281  0.0123  0.1506
 4625W        W20809   0.232   7.299  13.818  0.0229 -0.0466 -0.1397
 4626W        W20810   1.513   3.209  10.830  0.1470 -0.0577 -0.0080
 4627W        W20811   7.293   9.099  15.524 -0.3257  0.0099 -0.1999
 4628W        W20812  14.575   7.199   5.242 -0.1803  0.4255  0.3987
 4629W        W20813  16.441  10.681  12.554 -0.2679  0.1172 -0.2117
 4630W        W20814   3.227   6.051   5.449 -0.0878  0.0712  0.0985
 4631W        W20815   8.993   1.477  14.542 -0.0469  0.1020 -0.2056
 4632W        W20816  14.145   9.345   0.784  0.2825  0.0220 -0.0503
 4633W        W20817  17.429  13.126  15.550  0.2142  0.2537 -0.0931
 4634W        W20818  17.072   4.301  11.828  0.0603  0.3370  0.2815
 4635W        W20819  10.566   6.221  13.816 -0.0735  0.0726  0.1599
 4636W        W20820   4.938   8.834   4.859 -0.1078  0.1754  0.3229
 4637W        W20821   7.304  12.949  12.583 -0.2043 -0.1732  0.0229
 4638W        W20822  17.440  15.408  15.478  0.1054  0.1968  0.0108
 4639W        W20823   0.266  10.561   3.252  0.1060 -0.1074 -0.0725
 4640W        W20824   7.043  14.889  14.058  0.1369 -0.3225  0.2426
 4641W        W20825   4.411  11.434  13.173  0.0764 -0.4371  0.1017
 4642W        W20826   0.631   0.593   4.367  0.0235 -0.2997  0.1789
 4643W        W20827   3.979  10.729   3.070 -0.1593  0.0848  0.0111
 4644W        W20828   0.178   1.957  13.029  0.1643  0.0241  0.0808
 4645W        W20829   2.765   7.417   0.375  0.3381 -0.4277 -0.0736
 4646W        W20830  15.616  13.311  13.127  0.0223  0.1344  0.1561
 4647W        W20831   6.482  13.515  14.616  0.1565 -0.0490 -0.1911
 4648W        W20832   0.671   4.082   1.372 -0.0454  0.2928 -0.0351
 4649W        W20833   6.567   5.418  11.290  0.2684 -0.2307 -0.1706
 4650W        W20834  18.038   0.409   2.223  0.1797  0.0344 -0.0551
 4651W        W20835   1.436  17.529   0.750 -0.1119 -0.1638  0.1791
 4652W        W20836   0.120  13.114   4.706 -0.0915 -0.0301  0.0478
 4653W        W20837  15.060  11.369  13.661  0.1114  0.1912  0.0370
 4654W        W20838   3.562  13.720   1.730  0.0671 -0.2317 -0.2297
 4655W        W20839  11.905  17.506  13.221  0.1080  0.1274  0.0126
 4656W        W20840   1.595  11.165  15.625 -0.2942  0.2384  0.2320
 4657W        W20841  17.776   4.614  13.335 -0.1553  0.3571  0.0947
 4658W        W20842   2.532   6.266   2.516  0.0061 -0.0756 -0.1658
 4659W        W20843   4.225  16.854   4.110  0.2316 -0.0852  0.0313
 4660W        W20844   6.569   9.360  15.169  0.0026  0.1227  0.0579
 4661W        W20845   9.643   6.847   2.530  0.0152 -0.0677  0.2085
 4662W        W20846   8.192   4.668  15.965 -0.2296 -0.0064 -0.2584
 4663W        W20847  10.206   8.378   0.486 -0.2305  0.1292  0.0242
 4664W        W20848  14.037   6.038   1.297  0.1467  0.3625 -0.0035
 4665W        W20849   5.872  15.979  12.325  0.2261  0.0313  0.1129
 4666W        W20850  10.461  11.620  11.402  0.0628 -0.0719 -0.1801
 4667W        W20851  16.325  12.575  14.191  0.0914  0.0268  0.3875
 4668W        W20852  10.896  11.907  15.944 -0.1187  0.1318 -0.1727
 4669W        W20853  14.203  18.340  15.501  0.0449 -0.1954 -0.1961
 4670W        W20854   1.697   5.423   1.912  0.2415 -0.0558  0.1513
 4671W        W20855  12.436  16.055   0.590 -0.0865 -0.2133 -0.1450
 4672W        W20856  16.500  15.274   3.968  0.2521  0.1141  0.2206
 4673W        W20857  10.148   9.318  13.959 -0.0161 -0.0011 -0.3090
 4674W        W20858   2.465   5.939  13.255  0.1375 -0.1205 -0.0973
 4675W        W20859  10.917  17.000  11.836  0.1257  0.1280  0.1178
 4676W        W20860  12.649  17.083   2.805  0.0864 -0.0357 -0.0027
 4677W        W20861   8.477  16.522  14.531  0.0845 -0.0220  0.1242
 4678W        W20862   5.131  13.218  12.931 -0.1366  0.0305  0.1007
 4679W        W20863  12.221   2.215   4.060  0.1169  0.2118  0.1115
 4680W        W20864  14.534  17.631  13.876 -0.0322 -0.1883  0.4405
 4681W        W20865  12.829   3.991   4.801 -0.0651 -0.2587  0.0769
 4682W        W20866  17.887  17.087   4.764 -0.3235  0.1253  0.0381
 4683W        W20867   3.903   4.184   4.345  0.2944 -0.3331  0.2082
 4684W        W20868  12.422   0.755  13.571  0.1901  0.2606  0.0197
 4685W        W20869   3.887   4.436   2.495 -0.2259  0.1065 -0.0134
 4686W        W20870  10.970   7.485  15.519  0.2856  0.0891 -0.4291
 4687W        W20871   0.586   2.761  12.701 -0.0801  0.0627 -0.2911
 4688W        W20872  15.910  17.373  16.014  0.3634  0.0484  0.0739
 4689W        W20873   6.050  15.745   1.994 -0.0747 -0.2593 -0.3396
 4690W        W20874   7.804  12.606   0.747  0.2085 -0.1597 -0.0151
 4691W        W20875   3.410  17.804  12.509 -0.1592  0.0110  0.1186
 4692W        W20876   8.146  15.161  14.915  0.0253  0.1612  0.2661
 4693W        W20877   0.167  17.046   0.519 -0.0651  0.2409 -0.1228
 4694W        W20878   4.988   8.315  13.869 -0.4691 -0.0744  0.1681
 4695W        W20879   2.804   5.876   4.617  0.2839  0.0543  0.1290
 4696W        W20880  18.191   2.243  10.367 -0.0492  0.1226  0.0108
 4697W        W20881   1.984   1.774  12.729 -0.0868  0.5011  0.2909
 4698W        W20882  15.919  16.560   4.148  0.1363 -0.3021 -0.1874
 4699W        W20883   2.314   8.365   3.318 -0.0971 -0.0350  0.2175
 4700W        W20884  14.378   7.019   1.584 -0.0716  0.4667  0.0343
 4701W        W20885   1.791  12.714   3.978 -0.1291  0.0141  0.0978
 4702W        W20886   2.436  14.637   0.002  0.1354  0.3106  0.0548
 4703W        W20887   4.390  12.708  15.843 -0.1345  0.0794  0.1888
 4704W        W20888   4.679  14.253   5.280 -0.0468  0.1222 -0.0153
 4705W        W20889   4.286  17.426  15.284  0.0235 -0.2331 -0.0495
 4706W        W20890   4.689  16.146   2.140 -0.0843 -0.0533 -0.1313
 4707W        W20891   7.485   1.023   1.012  0.1341  0.4047 -0.2270
 4708W        W20892  17.092  16.880   0.725  0.0114 -0.3272 -0.2222
 4709W        W20893   1.878  15.514   0.890  0.0685 -0.0798  0.0287
 4710W        W20894  13.638  13.416  14.170 -0.1265  0.1212  0.1268
 4711W        W20895  10.836  12.974   0.360 -0.2406  0.0690  0.2507
 4712W        W20896  13.591   0.623  14.858  0.2293  0.1918 -0.0264
 4713W        W20897  11.167  12.164   5.314 -0.1121 -0.0778  0.2171
 4714W        W20898   5.799  14.650  15.500 -0.1208  0.1957 -0.0975
 4715W        W20899  17.958   4.872  12.844 -0.1289 -0.3448  0.1054
 4716W        W20900   8.387   8.934   4.330 -0.1476 -0.0285 -0.2384
 4717W        W20901  13.103  11.745  16.095  0.0742  0.0240  0.0878
 4718W        W20902   9.547  13.341   1.458 -0.0966  0.1338 -0.0389
 4719W        W20903   4.366   9.537   3.432 -0.2393 -0.1597  0.0861
 4720W        W20904  18.461   9.192   1.973 -0.2570 -0.0450  0.2088
 4721W        W20905  17.060   0.793   1.249 -0.0330  0.1846  0.0729
 4722W        W20906  14.232  12.569   4.059  0.2895 -0.0421  0.0589
 4723W        W20907   6.062   1.735   3.720  0.0754  0.1147 -0.3974
 4724W        W20908   8.935  12.466  11.259  0.1006 -0.1160  0.2359
 4725W        W20909  10.718  16.571  15.956  0.0739 -0.3066 -0.0773
 4726W        W20910  10.161   4.839  11.191 -0.2193 -0.0781 -0.0335
 4727W        W20911   1.386  17.605  12.600  0.2220  0.1294 -0.0049
 4728W        W20912   3.274  10.614  11.564  0.0114  0.0855  0.4284
 4729W        W20913   9.765   7.024  14.094 -0.0630  0.1190  0.1000
 4730W        W20914   5.363   4.148  13.586  0.3223 -0.0696 -0.1169
 4731W        W20915  16.733   4.622   1.200 -0.0113 -0.0306 -0.0780
 4732W        W20916  11.865  10.667  14.594 -0.2142  0.1404 -0.3406
 4733W        W20917  12.956  10.373   1.560 -0.3064  0.1123 -0.0965
 4734W        W20918   9.812   4.520   2.791 -0.2244 -0.0260  0.1400
 4735W        W20919  13.609  14.758  10.908 -0.2479 -0.0260 -0.1199
 4736W        W20920   3.685  17.229  14.306 -0.0347  0.1305 -0.0305
 4737W        W20921  15.330  10.331  13.560  0.2126  0.1571 -0.0499
 4738W        W20922  16.494   6.333  14.377 -0.1359  0.0460  0.0279
 4739W        W20923   7.480   1.076  13.510 -0.0358 -0.0745  0.2599
 4740W        W20924   1.667  15.170   5.246 -0.0278 -0.1902  0.0820
 4741W        W20925  18.161   6.366   2.977  0.0039  0.1521 -0.1621
 4742W        W20926  11.333   0.355  12.280 -0.1729  0.0900  0.0199
 4743W        W20927  18.312  14.004   1.304  0.0957 -0.0043  0.2789
 4744W        W20928  14.962   3.246   1.364  0.2902 -0.0987 -0.0215
 4745W        W20929  12.165  11.077  14.711 -0.0798 -0.0181 -0.0424
 4746W        W20930   4.532   0.811   0.422  0.1677 -0.1288 -0.2123
 4747W        W20931  11.001  10.922  14.353 -0.2712  0.0106  0.1833
 4748W        W20932  17.126   7.695   4.612 -0.1505  0.0297  0.3348
 4749W        W20933  11.432  12.886  12.232  0.2934  0.2184 -0.0286
 4750W        W20934  15.566  10.286   5.115 -0.1197 -0.0313  0.2788
 4751W        W20935  15.513   3.544   1.826  0.3298 -0.0170  0.0063
 4752W        W20936   0.756   7.244   3.213  0.2574  0.1727 -0.4529
 4753W        W20937  17.662   0.611   0.174  0.0551 -0.0645  0.2452
 4754W        W20938  10.747  13.531   3.519  0.0161  0.0906  0.1353
 4755W        W20939  12.041   5.650  14.109  0.0598  0.1969 -0.1349
 4756W        W20940   0.180  17.935  12.721  0.2930  0.1930 -0.1710
 4757W        W20941  18.134  11.055   3.877 -0.3545  0.1195 -0.0573
 4758W        W20942  10.309   3.310   0.356  0.1296  0.1290  0.0760
 4759W        W20943  15.976  10.402  13.958 -0.1911 -0.0330  0.0495
 4760W        W20944   8.528   7.364   1.001 -0.1149 -0.5006 -0.1776
 4761W        W20945   4.101   5.471  12.743  0.1189  0.0935  0.1233
 4762W        W20946  14.568   2.316  13.357  0.0537 -0.0292 -0.3933
 4763W        W20947   1.333  11.054  16.100 -0.2575  0.2207 -0.2848
 4764W        W20948  13.633   1.257   0.698  0.1440 -0.1574 -0.0884
 4765W        W20949   8.367   4.651   1.965 -0.3999 -0.0717 -0.0643
 4766W        W20950  14.822   6.299   1.097  0.4419 -0.3659  0.1793
 4767W        W20951   7.791  15.991   3.772  0.0395 -0.1823 -0.1083
 4768W        W20952  14.210   5.793   2.855 -0.0509 -0.1786  0.1529
 4769W        W20953   9.583   5.423   2.503 -0.1781  0.0002 -0.0286
 4770W        W20954   1.157   1.205  13.446  0.2191 -0.0740 -0.0849
 4771W        W20955  17.374  16.607  12.598  0.4621  0.1125 -0.1059
 4772W        W20956  15.287   0.018  15.365 -0.0308 -0.0633 -0.1073
 4773W        W20957  14.601   8.712  15.333  0.3330  0.1534 -0.1332
 4774W        W20958   8.368  13.122   1.610 -0.0010  0.1239  0.0626
 4775W        W20959  11.057  17.943   1.913 -0.0657  0.0435  0.1354
 4776W        W20960  10.629  14.856   3.040 -0.0884 -0.2222 -0.0907
 4777W        W20961   8.157  11.264  13.461 -0.1498 -0.0367 -0.0895
 4778W        W20962  14.866   5.287   5.485  0.2278  0.2612 -0.1785
 4779W        W20963  16.188  12.042   5.472 -0.2433 -0.0104  0.0998
 4780W        W20964   3.664   3.997  11.014  0.1162  0.1639  0.1345
 4781W        W20965   7.151  13.969  12.882  0.1054 -0.3210 -0.1516
 4782W        W20966   1.771  10.939  11.642 -0.4391 -0.1432  0.0013
 4783W        W20967  14.744   4.811   5.530 -0.0631  0.3724 -0.0779
 4784W        W20968   6.887  11.521  15.854  0.2274 -0.1175  0.1829
 4785W        W20969   1.310   4.959  14.213 -0.2699  0.1153 -0.3318
 4786W        W20970  15.967   1.231  12.708 -0.0454  0.0620  0.4025
 4787W        W20971   3.374  11.962  14.121 -0.0551 -0.0509 -0.1291
 4788W        W20972   8.257   2.848   5.729 -0.0690  0.1522  0.0596
 4789W        W20973  16.523  10.605   2.487  0.0927 -0.5193  0.1542
 4790W        W20974   9.359  13.339  12.829 -0.3150  0.1982  0.1181
 4791W        W20975  15.235  17.889   3.392 -0.3334 -0.1601 -0.2578
 4792W        W20976   7.970  18.227  14.221 -0.0849 -0.1682  0.2676
 4793W        W20977   4.418  13.149   6.112  0.2111 -0.4735  0.3219
 4794W        W20978  15.119   4.584   6.413  0.2011 -0.0527 -0.0410
 4795W        W20979  11.369   8.599  13.123 -0.0466 -0.3410  0.1390
 4796W        W20980  18.421  11.864   4.884  0.3802 -0.4261 -0.0231
 4797W        W20981  11.711   4.526  13.928 -0.2913 -0.2796  0.1727
 4798W        W20982  12.024   4.138  10.964 -0.2166  0.0342  0.1589
 4799W        W20983   4.778  13.821   2.156 -0.0782 -0.0206 -0.3430
 4800W        W20984   1.566   1.359   2.218  0.0396  0.0560 -0.0269
 4801W        W20985   2.286  15.869   1.849 -0.0058 -0.5165  0.1104
 4802W        W20986  12.516   5.645   4.824 -0.0929  0.2640 -0.0810
 4803W        W20987  16.085  17.647   4.814  0.3040  0.4012  0.0343
 4804W        W20988  18.243   0.908   2.428  0.0596 -0.2840  0.4325
 4805W        W20989   8.355   1.258   0.803 -0.2640  0.1338  0.1358
 4806W        W20990  11.510   8.706   2.380 -0.2421  0.1041  0.1285
 4807W        W20991   3.241   7.677   0.682  0.0586  0.1510 -0.0509
 4808W        W20992  17.510   6.233  11.813  0.0327 -0.0305  0.2724
 4809W        W20993  11.104   5.492  12.397 -0.3826 -0.2986  0.1294
 4810W        W20994  17.537  13.111  11.284 -0.1245  0.3223  0.0088
 4811W        W20995  12.575   9.004   1.598  0.0272  0.1297 -0.0929
 4812W        W20996   0.293   0.486  10.997  0.0755 -0.3746 -0.1830
 4813W        W20997  16.689   3.359   2.318  0.0583 -0.1024 -0.2962
 4814W        W20998  17.332  12.412   0.213 -0.0278 -0.0329 -0.3446
 4815W        W20999  11.178  15.676   4.833  0.1235 -0.3197 -0.0852
 4816W        W21000  10.067   3.334   1.991  0.1160  0.4541  0.0104
 4817W        W21001  10.199   7.536   1.523  0.0924 -0.2420  0.1121
 4818W        W21002   6.051  11.179   0.489 -0.0475  0.1626  0.1207
 4819W        W21003  14.955  12.284  15.865  0.1835 -0.1688  0.1780
 4820W        W21004   6.677   1.062   2.925 -0.1393 -0.1247  0.0522
 4821W        W21005   5.514  13.160  11.530  0.2209  0.1992 -0.0912
 4822W        W21006   6.236  10.311   0.112  0.0872 -0.3209  0.0311
 4823W        W21007   1.825   8.102  12.511  0.0882  0.0036 -0.0758
 4824W        W21008  12.910   4.848   2.936  0.1258 -0.0002 -0.1939
 4825W        W21009  13.039  10.734  10.225 -0.1356 -0.0668 -0.2146
 4826W        W21010  15.354   9.023  12.819 -0.0492  0.2631  0.2122
 4827W        W21011   7.267   7.260  15.757 -0.0976  0.0554  0.0477
 4828W        W21012  10.337  17.672   1.153  0.3606 -0.2407 -0.0583
 4829W        W21013   7.080   1.215  12.497  0.0463  0.4473 -0.0966
 4830W        W21014  15.927  10.344  15.610  0.1438 -0.3786 -0.2548
 4831W        W21015   1.858  15.549  11.055 -0.0815 -0.0294 -0.0144
 4832W        W21016  15.105  13.062   0.794  0.0761  0.0027  0.1159
 4833W        W21017   0.338   2.878   0.964 -0.1969  0.0722 -0.2468
 4834W        W21018   6.301  16.721  13.373  0.1230  0.1849  0.1844
 4835W        W21019   7.563   6.728   5.565 -0.1000  0.0999 -0.1625
 4836W        W21020   0.924   6.733  15.587  0.2381 -0.0341 -0.3206
 4837W        W21021   8.673   3.553  12.734  0.0778  0.4693 -0.3936
 4838W        W21022  17.445  18.025   3.927 -0.0559 -0.2116 -0.1276
 4839W        W21023  13.092   1.492   1.075  0.1207 -0.2621  0.1491
 4840W        W21024   2.579  16.955   3.952 -0.0986  0.3962 -0.0169
 4841W        W21025  10.439  17.199   1.460  0.0378  0.1319  0.1809
 4842W        W21026   4.917  12.817   4.400 -0.0820 -0.1517 -0.0264
 4843W        W21027  16.947  14.104   0.820 -0.2516 -0.2172 -0.0501
 4844W        W21028  11.917  11.790  11.455  0.2505  0.0619  0.1200
 4845W        W21029   3.396   3.370   0.790  0.1375 -0.1206 -0.3720
 4846W        W21030   3.896  17.162   0.900  0.1359  0.1119  0.0534
 4847W        W21031   8.962   5.728   5.226  0.0241  0.1839 -0.0768
 4848W        W21032  13.651  13.924   1.797  0.1141  0.2045  0.1977
 4849W        W21033   0.556   2.727   0.031  0.0239  0.0224  0.0929
 4850W        W21034  14.336   8.112   2.902  0.1130 -0.1338  0.1111
 4851W        W21035  10.907  15.654   2.813  0.4096  0.3361 -0.0632
 4852W        W21036   0.161   1.823   0.509  0.2670  0.2717 -0.0459
 4853W        W21037  12.619   2.926   3.387  0.0919  0.0506 -0.1897
 4854W        W21038  15.910  12.054  13.466 -0.1299  0.0692  0.0292
 4855W        W21039   9.543   9.563   0.547  0.1727 -0.2045 -0.0625
 4856W        W21040   8.302   8.865  13.655 -0.0604 -0.2797 -0.1565
 4857W        W21041   0.808   9.184   4.710 -0.1259  0.2033 -0.0798
 4858W        W21042   8.511   6.613  12.287  0.1088 -0.1433  0.1791
 4859W        W21043   8.798  13.969  14.190 -0.2748 -0.2129 -0.3276
 4860W        W21044   9.875   6.665  14.437  0.2174  0.1042  0.1819
 4861W        W21045  10.483   4.855  15.689  0.0039  0.0806 -0.1347
 4862W        W21046  13.343   2.175  13.003 -0.0127  0.0222 -0.0070
 4863W        W21047  15.630  11.345  13.787  0.2439 -0.2727  0.1572
 4864W        W21048   3.834  12.668   3.692  0.1001  0.1126 -0.0209
 4865W        W21049  11.535  18.332   1.086  0.1315  0.2470  0.2287
 4866W        W21050   7.905  12.150   1.029 -0.1237 -0.1692  0.2648
 4867W        W21051   8.176   0.338   2.512 -0.1272  0.2257 -0.0230
 4868W        W21052   2.162   4.081  15.697  0.3378 -0.1122 -0.0409
 4869W        W21053   5.715   6.540  12.529  0.1674  0.0851 -0.1087
 4870W        W21054  16.731   2.003   0.616 -0.1966 -0.1633 -0.0408
 4871W        W21055  11.309   2.581  13.620 -0.4004 -0.1634  0.2340
 4872W        W21056  16.947   7.206  13.164 -0.0486 -0.3059 -0.3438
 4873W        W21057  14.254  10.049  10.548  0.0790  0.0637 -0.2503
 4874W        W21058   7.038  16.208   1.747 -0.0029 -0.0852 -0.0250
 4875W        W21059   3.927  17.373  14.899 -0.0665 -0.1583 -0.2292
 4876W        W21060  14.678  14.142   3.590 -0.0003 -0.0985 -0.2524
 4877W        W21061  12.721   1.246  15.555 -0.1658  0.1020 -0.0993
 4878W        W21062   8.270   8.591   0.417 -0.0151  0.1983  0.0995
 4879W        W21063   3.924   6.494   4.510 -0.0204  0.1095  0.0752
 4880W        W21064   4.132   3.812  12.151  0.1117 -0.1223  0.1382
 4881W        W21065   0.805  15.689   0.076  0.0882  0.0311  0.3167
 4882W        W21066  18.178   3.666   2.142 -0.0544 -0.4604  0.4858
 4883W        W21067  15.465   4.265   2.648 -0.0986  0.2998 -0.2344
 4884W        W21068   0.144  11.645   1.011  0.1722  0.2023  0.0491
 4885W        W21069   6.070   6.456  15.310 -0.1133 -0.0856  0.1642
 4886W        W21070  15.855   3.533   5.661  0.0385  0.2028 -0.1565
 4887W        W21071  12.919  13.190   2.444 -0.0108  0.1564 -0.1030
 4888W        W21072   1.591   8.737   5.589  0.2969 -0.1865 -0.3196
 4889W        W21073   1.259   7.282  12.811  0.2015 -0.1854  0.0848
 4890W        W21074  12.438   4.652   2.132  0.0673  0.0850  0.0006
 4891W        W21075  14.869   9.652   4.490 -0.0632 -0.1676 -0.0006
 4892W        W21076  17.435   1.882   1.023  0.1914  0.0876  0.1217
 4893W        W21077   0.986   5.305  15.065  0.1248  0.0576 -0.0585
 4894W        W21078   1.363   8.349  11.353  0.0385 -0.1130 -0.0680
 4895W        W21079   3.804   0.441  15.951 -0.0672 -0.1943 -0.0046
 4896W        W21080  14.652   2.067  11.579 -0.0627  0.0592  0.1655
 4897W        W21081  13.547   4.658  11.752 -0.0675 -0.1019 -0.0115
 4898W        W21082  14.526   1.117   5.061 -0.1008 -0.1673  0.1950
 4899W        W21083   1.528   8.256   1.271  0.1990 -0.2279 -0.1274
 4900W        W21084  11.175   6.377  13.135 -0.6019 -0.1181 -0.1007
 4901W        W21085   7.023  11.448   4.638  0.0006 -0.3306 -0.0231
 4902W        W21086   7.324   4.024  15.751  0.1843  0.3185  0.1092
 4903W        W21087   1.836  12.144  15.434 -0.0726 -0.0986 -0.0289
 4904W        W21088  11.544   0.892   0.290  0.0893 -0.3029 -0.0183
 4905W        W21089   9.716  13.444  13.186  0.1098 -0.1712  0.1337
 4906W        W21090  13.155   5.469   5.635  0.1276 -0.0549  0.4340
 4907W        W21091  18.120   9.498   1.597  0.1258 -0.3110  0.0534
 4908W        W21092   4.434  15.152  11.194  0.1355  0.0131 -0.2705
 4909W        W21093  12.577  14.399   3.292  0.0731 -0.1858  0.0366
 4910W        W21094  16.710   1.449  12.047 -0.1586 -0.0507  0.1976
 4911W        W21095   5.409   1.751   0.482 -0.0871  0.1491  0.1967
 4912W        W21096   8.697  13.068  13.511  0.0727  0.1539  0.1995
 4913W        W21097  17.771  14.712  15.895 -0.0329 -0.1678  0.4420
 4914W        W21098  16.112  15.562   2.520  0.0197 -0.1148 -0.2750
 4915W        W21099   9.646  12.414  13.417 -0.0152  0.0994 -0.1732
 4916W        W21100   3.065   6.352   3.269  0.0374  0.0211 -0.0855
 4917W        W21101   1.960   6.415  13.683 -0.1622  0.0540 -0.1025
 4918W        W21102  13.657   5.159   2.882  0.3980  0.0086 -0.4943
 4919W        W21103  15.247   0.126  13.785 -0.0301 -0.2061  0.0534
 4920W        W21104   7.003  18.514  14.280 -0.1670 -0.0946  0.3105
 4921W        W21105   9.978  12.767  13.242  0.0029  0.0089 -0.3350
 4922W        W21106   5.543   8.098  13.518 -0.0746  0.1766  0.2357
 4923W        W21107  16.439  16.585   4.243  0.0459 -0.3091 -0.1710
 4924W        W21108   3.513   0.850  15.683  0.2362  0.2093  0.1901
 4925W        W21109  13.159   3.620  14.153 -0.6572 -0.1108 -0.1650
 4926W        W21110  10.822  11.105   0.975  0.0299 -0.0942 -0.1271
 4927W        W21111  10.835  15.221  12.121  0.0228  0.2915 -0.4542
 4928W        W21112   3.232  16.874  11.603  0.2016  0.2883  0.1802
 4929W        W21113   3.308   9.258  15.628 -0.2376 -0.1619  0.3990
 4930W        W21114   5.745  12.908  13.685  0.2113  0.1651 -0.0432
 4931W        W21115   5.178   7.459  14.077  0.2741  0.1956 -0.6212
 4932W        W21116   2.552  13.050   0.646  0.0399  0.1205 -0.0296
 4933W        W21117   9.530   9.038  11.669 -0.0288 -0.0459 -0.0659
 4934W        W21118   1.165  17.049  11.487  0.0967 -0.0511  0.0827
 4935W        W21119   8.070   5.516   1.034  0.1742  0.0300  0.4001
 4936W        W21120   5.359  10.770   0.951  0.1594  0.2459  0.1105
 4937W        W21121  17.269   9.367  15.336 -0.1892 -0.0588  0.1625
 4938W        W21122   3.981   2.318  12.110  0.0567 -0.4591  0.0483
 4939W        W21123  12.495  15.939  13.080 -0.4278  0.2144  0.3141
 4940W        W21124   8.028  12.466  12.038 -0.4926 -0.2185 -0.0802
 4941W        W21125   1.658   0.139   1.693  0.1110  0.0015 -0.1330
 4942W        W21126  18.240   2.629  10.811  0.3178  0.0225 -0.1456
 4943W        W21127   2.307   5.469  16.147  0.2371 -0.0870 -0.0203
 4944W        W21128   8.410   5.840  13.852  0.0445  0.1303  0.0829
 4945W        W21129  15.558   5.341   4.889  0.0969  0.0269  0.2091
 4946W        W21130  12.507   7.026  11.919  0.2256  0.1880 -0.0460
 4947W        W21131  15.866  13.770  12.818 -0.3208  0.1085 -0.0650
 4948W        W21132  11.371  15.983  15.853 -0.0967 -0.2841  0.0892
 4949W        W21133   9.744  14.572  13.005  0.0372 -0.0855  0.0067
 4950W        W21134   9.937   7.399   2.056  0.3363 -0.2980 -0.1289
 4951W        W21135   6.416  12.170  14.839 -0.0360  0.2614  0.1112
 4952W        W21136  12.302  15.767   5.540  0.2824 -0.3980 -0.0312
 4953W        W21137  16.991  14.090   5.386 -0.1005 -0.1501  0.1975
 4954W        W21138   7.559  15.149  12.940  0.1291  0.0153 -0.0522
 4955W        W21139   7.567   1.614   2.786 -0.2767 -0.3144 -0.0833
 4956W        W21140  14.260   2.259   0.579  0.3494 -0.2127 -0.0518
 4957W        W21141  11.693  15.600  11.115  0.0677 -0.0377  0.2899
 4958W        W21142   1.997   8.857   1.908  0.0665  0.2131 -0.0234
 4959W        W21143  12.400   0.007   2.799 -0.0514  0.1088  0.0954
 4960W        W21144   6.900  17.329   3.115  0.2356  0.0884  0.4428
 4961W        W21145  17.629   8.343   0.850 -0.2888 -0.0733 -0.1767
 4962W        W21146   1.983   2.443  10.465  0.0223  0.0433 -0.2754
 4963W        W21147  10.554  18.521  15.402 -0.0701  0.3426  0.1925
 4964W        W21148  10.187  15.644  11.486  0.2027  0.3410  0.1375
 4965W        W21149  10.491  17.612   0.648 -0.1778 -0.2564 -0.0785
 4966W        W21150   3.454  13.512   2.205 -0.3065 -0.0367  0.0353
 4967W        W21151  18.408   8.957   0.948 -0.1710  0.0711 -0.2095
 4968W        W21152  14.857   3.056  13.504  0.1279  0.0928  0.3476
 4969W        W21153  14.142   0.569   3.688 -0.1169  0.2659 -0.1525
 4970W        W21154  16.644   9.063  12.983 -0.0765  0.2471 -0.0033
 4971W        W21155   6.043   3.211   4.337  0.1447  0.1750  0.0789
 4972W        W21156   6.776  16.846   3.583  0.4690 -0.1265  0.0189
 4973W        W21157   9.668  18.347   0.170  0.1767 -0.0633  0.0428
 4974W        W21158  17.919   4.841   0.565  0.0789  0.2052 -0.1327
 4975W        W21159  13.445  11.045   1.260 -0.0560  0.0347 -0.0867
 4976W        W21160  15.628  12.802   3.409 -0.0729  0.3080 -0.1169
 4977W        W21161   8.488  11.707  11.297 -0.2105  0.4359 -0.1843
 4978W        W21162   5.204  12.887   1.994  0.0518  0.0006 -0.3074
 4979W        W21163   6.354  16.726   5.037 -0.0062  0.2708 -0.1542
 4980W        W21164   4.108   8.201  14.312 -0.2188 -0.1907  0.0287
 4981W        W21165  13.589  11.555   0.557  0.0685 -0.2175  0.0616
 4982W        W21166  15.033  12.886  14.916  0.3007  0.0710 -0.3024
 4983W        W21167   5.832   1.326  11.277 -0.0175 -0.0602 -0.2453
 4984W        W21168   8.907   0.482   1.372  0.1816  0.0673 -0.2248
 4985W        W21169  11.786   4.073   1.427 -0.0660  0.0915  0.2876
 4986W        W21170   8.844  11.561  14.577 -0.1314 -0.4521  0.1313
 4987W        W21171   2.184   1.217  15.076 -0.1700 -0.3264  0.0181
 4988W        W21172   9.780   1.129  11.856 -0.0229  0.3568  0.1957
 4989W        W21173   8.942  11.328   4.536 -0.1560 -0.3866 -0.0644
 4990W        W21174   8.080   4.256  12.586 -0.2329 -0.0166  0.0677
 4991W        W21175  10.157   8.387  16.110  0.0335 -0.5071 -0.0656
 4992W        W21176   0.861   3.705  10.990  0.1226 -0.3799  0.2057
 4993W        W21177   6.301   7.102  15.998 -0.0308  0.0576 -0.0625
 4994W        W21178   1.005   8.846  15.916 -0.0171  0.0651 -0.0725
 4995W        W21179   8.174  17.313   4.023  0.2903 -0.2364 -0.2789
 4996W        W21180  11.167  11.508   2.749  0.2277 -0.0252 -0.0726
 4997W        W21181  10.074  15.259  11.825  0.2942  0.0532  0.2695
 4998W        W21182   2.842  10.402   1.557 -0.2734 -0.1044  0.0340
 4999W        W21183  12.379  10.383  11.298 -0.1856  0.1006  0.3392
 5000W        W21184   7.785  13.641   5.753 -0.2506  0.2566  0.1473
 5001W        W21185   0.078  17.057  13.132 -0.0019 -0.0352  0.1265
 5002W        W21186   7.705  14.966   3.484  0.0264  0.0186  0.0819
 5003W        W21187  14.977   5.578   1.844  0.3138  0.0687 -0.0467
 5004W        W21188   6.766  10.913  13.735  0.1068 -0.0573 -0.3462
 5005W        W21189  17.791  10.595  14.092  0.1209  0.1128  0.3032
 5006W        W21190  12.142   6.496  15.889 -0.0503  0.0991 -0.3121
 5007W        W21191   4.480   6.741   5.602 -0.2027 -0.3055  0.5082
 5008W        W21192   7.211  14.828  14.584 -0.1745 -0.1928  0.1671
 5009W        W21193  13.931   0.250  15.689  0.1086 -0.0017 -0.2293
 5010W        W21194   5.833  17.527   3.027 -0.3162 -0.3339  0.3573
 5011W        W21195   1.505  14.765   4.901 -0.0169 -0.0336 -0.0097
 5012W        W21196   1.340   9.491  11.465  0.4585  0.2718  0.0311
 5013W        W21197  14.809   2.951  14.012  0.0749 -0.0648  0.3801
 5014W        W21198  15.802   8.532  15.797 -0.0600  0.2327 -0.1018
 5015W        W21199   6.844  16.911  11.000 -0.1935  0.1218  0.1159
 5016W        W21200  11.465   8.208   5.498  0.1574  0.1611 -0.0345
 5017W        W21201   1.435   2.719  11.123 -0.0355 -0.1654 -0.0521
 5018W        W21202  14.467   0.481   4.181  0.0217 -0.2451  0.2346
 5019W        W21203   5.174  16.473   2.152 -0.0785  0.3062 -0.2324
 5020W        W21204  16.639   6.835   3.269 -0.3232 -0.0581  0.2770
 5021W        W21205   6.506  18.169   1.166  0.2627  0.2539 -0.1620
 5022W        W21206  13.225   4.139   1.536 -0.1081 -0.3345 -0.1455
 5023W        W21207  18.347  16.900   0.240 -0.2158  0.0365 -0.1721
 5024W        W21208   5.949  17.261   5.352  0.4100  0.2022  0.1024
 5025W        W21209  10.042  13.174  13.530  0.1480 -0.1515  0.3046
 5026W        W21210  13.562   1.979  14.908  0.0622  0.0661 -0.0147
 5027W        W21211  13.678   9.453   2.936  0.1199  0.2161 -0.0554
 5028W        W21212  13.694  14.982  14.009 -0.0209 -0.0531 -0.0564
 5029W        W21213  12.503   8.756  15.924 -0.0711 -0.0528 -0.1812
 5030W        W21214   1.483   1.275   0.157 -0.2280  0.2656 -0.1573
 5031W        W21215  14.845  11.276  14.122 -0.2970  0.0723  0.3458
 5032W        W21216   3.064   5.611   1.863 -0.0323 -0.1064  0.0241
 5033W        W21217   3.321   8.516  14.894  0.1070 -0.3671  0.1266
 5034W        W21218  11.580  10.612  13.704  0.0677 -0.1560 -0.3740
 5035W        W21219  13.628  14.538   1.102 -0.0509  0.0951 -0.1130
 5036W        W21220  11.429  10.840  14.674 -0.2297  0.1370 -0.1001
 5037W        W21221  16.736   3.260  10.780 -0.0659 -0.1290 -0.0757
 5038W        W21222  15.918   1.690  10.766 -0.0518  0.1542  0.0017
 5039W        W21223   0.829   4.232   5.162 -0.0527 -0.2437  0.1849
 5040W        W21224   9.507  17.074   5.059 -0.2060 -0.1646 -0.3288
 5041W        W21225  11.782  12.202   4.958 -0.2244  0.1442  0.0454
 5042W        W21226   1.851   5.274  15.924  0.0820 -0.0110  0.0781
 5043W        W21227  13.539   2.123  14.373 -0.0780 -0.0300  0.2281
 5044W        W21228   7.175   2.500  13.190  0.1054  0.0767  0.2337
 5045W        W21229   0.827  10.014  13.576 -0.0746 -0.4428  0.1508
 5046W        W21230  12.284  15.955   2.328 -0.1210 -0.0815  0.3324
 5047W        W21231   4.249   8.332   5.354 -0.1617 -0.1015  0.1092
 5048W        W21232  11.525  14.161   0.959 -0.1237  0.0004  0.0111
 5049W        W21233   7.861   4.658   1.244 -0.1603 -0.0658 -0.2250
 5050W        W21234   5.216  10.478  15.928  0.0319  0.0046  0.0168
 5051W        W21235  18.112  16.424  14.285  0.2696  0.0298  0.0689
 5052W        W21236   4.209   1.813  11.388 -0.1673  0.0062  0.1180
 5053W        W21237   6.508   3.990   3.617  0.1198 -0.2108 -0.2042
 5054W        W21238   9.420  13.537   3.512 -0.1849 -0.0220  0.2122
 5055W        W21239  13.551  17.994   5.514 -0.2651 -0.2368 -0.1600
 5056W        W21240  17.846   0.108  11.709  0.1365 -0.0324 -0.0430
 5057W        W21241  10.121   3.551  16.054  0.0734  0.2817 -0.0280
 5058W        W21242   1.038  12.000   6.304 -0.1946 -0.0397 -0.0180
 5059W        W21243   1.108  16.693   1.452  0.1645  0.0517  0.1604
 5060W        W21244  11.635   1.063   1.603  0.0979  0.1891 -0.0271
 5061W        W21245  13.907  12.537   3.664 -0.0893  0.0527 -0.1135
 5062W        W21246   2.330  11.060   4.767  0.1378  0.3269  0.0852
 5063W        W21247   1.752   4.595   4.908  0.2730 -0.2966  0.1261
 5064W        W21248  18.043  14.676   2.407 -0.1536  0.4228 -0.0438
 5065W        W21249  17.356   7.070  11.281  0.0041 -0.1666 -0.0279
 5066W        W21250   0.362  17.222  13.479 -0.2980 -0.4007 -0.1842
 5067W        W21251  15.847   1.708   0.427 -0.0374 -0.1016 -0.1058
 5068W        W21252  17.931   0.482   3.764  0.1615  0.0231  0.0384
 5069W        W21253   2.598  12.668   1.649 -0.0476  0.0409  0.0883
 5070W        W21254   8.021   1.252   5.940  0.6555 -0.3191 -0.0026
 5071W        W21255  17.249   1.590  16.059 -0.0163 -0.0722  0.1291
 5072W        W21256  10.122   5.363   5.631  0.1069  0.1967  0.0018
 5073W        W21257  15.944  12.691   1.299 -0.2541 -0.0789 -0.0446
 5074W        W21258   7.018  11.972  15.008 -0.0656 -0.0995  0.2653
 5075W        W21259  13.113   0.917  15.615  0.2474 -0.2323 -0.0684
 5076W        W21260   7.178  16.870  13.042 -0.0260  0.0051 -0.2695
 5077W        W21261   0.277   1.784  15.968  0.0253 -0.0627  0.2449
 5078W        W21262   7.903  11.668  12.590 -0.0261  0.1626  0.0174
 5079W        W21263   8.106  13.502   5.291 -0.2472  0.1581 -0.0151
 5080W        W21264  10.265   4.344  13.273  0.1715 -0.2064  0.0870
 5081W        W21265  17.701   9.326   4.914  0.1179  0.2743 -0.2845
 5082W        W21266  14.477  16.517   3.830 -0.1499  0.1627  0.1318
 5083W        W21267   5.687   7.168  14.510 -0.2706 -0.1901  0.0810
 5084W        W21268   3.055  14.377  13.945 -0.0443  0.1142 -0.0676
 5085W        W21269   7.896   7.054   2.066  0.2139  0.0207 -0.3392
 5086W        W21270  10.833  12.245  12.225  0.0540  0.0250 -0.0239
 5087W        W21271  12.124  12.362  13.003 -0.1661 -0.2288 -0.0418
 5088W        W21272  11.006   5.482   5.467 -0.3015  0.1263  0.1685
 5089W        W21273   7.218   9.515   5.167 -0.0414  0.0227 -0.0021
 5090W        W21274   3.113  13.339  10.852  0.0815 -0.0041  0.1879
 5091W        W21275   3.637  16.656   0.879  0.1905  0.1340 -0.1038
 5092W        W21276   6.402   0.130   1.194  0.1661  0.1376  0.2301
 5093W        W21277   2.585   9.404  15.533 -0.0895  0.0108  0.1182
 5094W        W21278  18.210   7.298  13.983  0.0593 -0.2115 -0.1112
 5095W        W21279   6.666   1.243   4.222 -0.2598  0.0941  0.5624
 5096W        W21280   0.834  18.398   2.732 -0.0175 -0.0851 -0.3406
 5097W        W21281  16.393   1.103  12.106 -0.0690  0.1919 -0.0655
 5098W        W21282   8.747  16.794   4.504  0.1281  0.1846  0.0685
 5099W        W21283   9.509   0.244  14.713  0.1053  0.0661 -0.3886
 5100W        W21284   4.449   1.659   2.937  0.0700  0.0779  0.0319
 5101W        W21285   1.753   2.964  15.579  0.0404 -0.0789  0.1527
 5102W        W21286   6.689  17.662  12.024  0.1202  0.2398 -0.0211
 5103W        W21287   9.370  13.687  14.562 -0.2456  0.1892  0.1018
 5104W        W21288   0.653   0.180  15.109  0.0495  0.1067 -0.0503
 5105W        W21289   0.897  13.235  13.932 -0.0697 -0.0307  0.2128
 5106W        W21290  14.049  11.076   4.000 -0.2305 -0.0282 -0.2011
 5107W        W21291   6.454   4.841   1.398  0.1962 -0.2148 -0.1123
 5108W        W21292  14.484   4.392  15.478 -0.1758  0.6195  0.1148
 5109W        W21293  18.049   0.540   2.748 -0.3669  0.2245  0.1862
 5110W        W21294   4.754   1.043   1.488 -0.1481  0.2953 -0.3399
 5111W        W21295   0.679  17.841   1.648  0.1845  0.0967  0.1730
 5112W        W21296   2.157   5.781   4.278 -0.0515  0.1268  0.2376
 5113W        W21297  14.980   9.498   5.444  0.3027  0.1850  0.0345
 5114W        W21298  17.027  15.661   0.959  0.0145 -0.1474 -0.4285
 5115W        W21299   2.056  10.692   4.531 -0.1072  0.2277  0.0741
 5116W        W21300   5.040  14.135   4.957 -0.1130  0.0586  0.0009
 5117W        W21301  13.002   7.053  14.394  0.0504  0.0277 -0.0201
 5118W        W21302   3.661   0.229  14.142  0.1622 -0.1287  0.0573
 5119W        W21303   8.247  13.404   0.737 -0.0697 -0.0710 -0.0336
 5120W        W21304   0.245   8.801   1.246 -0.2058  0.1598 -0.2049
 5121W        W21305  14.634  11.028   2.504  0.1356  0.1620  0.0391
 5122W        W21306  14.807   7.074  14.583 -0.1837  0.0052 -0.2686
 5123W        W21307  12.049   2.940   1.558 -0.0239  0.0972  0.1614
 5124W        W21308   1.390   3.499  12.186 -0.2017  0.1438 -0.5168
 5125W        W21309   9.786   1.681  12.551 -0.2265  0.0054  0.0331
 5126W        W21310   4.046   2.583  11.689  0.0809 -0.1773 -0.0988
 5127W        W21311  12.177  15.814  12.723  0.0089 -0.0219 -0.0530
 5128W        W21312  12.192   6.478   3.063 -0.0224  0.3780  0.4123
 5129W        W21313  13.764  10.036   2.737 -0.1451  0.0273 -0.2836
 5130W        W21314   0.546   8.942  15.631 -0.0342 -0.0176 -0.1624
 5131W        W21315  14.585  15.356  11.436 -0.1602 -0.1709 -0.0975
 5132W        W21316   6.871  11.306   3.198 -0.1890 -0.0503 -0.3524
 5133W        W21317   9.227   9.474   1.767  0.1866 -0.0652  0.0787
 5134W        W21318   8.877  13.201  14.001  0.1658 -0.2437  0.1705
 5135W        W21319   0.793   4.393   3.534 -0.1894  0.2157 -0.2408
 5136W        W21320   2.976   6.120   1.877  0.3353  0.1332  0.0014
 5137W        W21321   7.757   7.020  15.546  0.2393  0.0289  0.2885
 5138W        W21322  13.508   3.519  15.944  0.2232  0.5202  0.0560
 5139W        W21323  16.749  10.175  15.185  0.1460 -0.1390  0.1628
 5140W        W21324  18.374  13.204  14.158  0.2025  0.2981 -0.3279
 5141W        W21325  16.030   4.306   5.186 -0.1643  0.0104  0.1476
 5142W        W21326   8.850   7.226  12.784 -0.1388 -0.1520  0.1791
 5143W        W21327  12.877  15.297   0.572  0.0520  0.0604  0.0360
 5144W        W21328   4.314   7.253  14.294  0.0350  0.0162  0.0698
 5145W        W21329  10.506   8.754  13.380  0.0530  0.0514  0.2202
 5146W        W21330   6.412  11.271  12.966 -0.0554  0.1695  0.0148
 5147W        W21331  16.092  17.499   3.280  0.1087 -0.0975 -0.1401
 5148W        W21332  15.876   4.942   4.871 -0.1243 -0.0603 -0.0192
 5149W        W21333   5.373   2.643   0.385  0.2803 -0.1558 -0.1923
 5150W        W21334  16.925   3.008   3.381  0.0008 -0.4123 -0.0899
 5151W        W21335  12.139  13.306   4.307 -0.0347 -0.1368  0.0590
 5152W        W21336   9.716   6.804  14.995  0.1859  0.4850 -0.1082
 5153W        W21337  11.341   2.708   0.850 -0.2371 -0.2470  0.1069
 5154W        W21338  11.969   9.895   2.805  0.0217  0.2690 -0.5801
 5155W        W21339  17.701  10.763  11.255  0.1536  0.2070 -0.1145
 5156W        W21340  18.336   4.578   3.178 -0.2234  0.3078  0.0610
 5157W        W21341   5.687   4.539  12.668 -0.1655  0.1625 -0.0329
 5158W        W21342   5.198  17.449   0.152  0.2674 -0.3034 -0.0628
 5159W        W21343   0.626   4.467   4.005  0.3399  0.0139  0.1322
 5160W        W21344  16.232   3.697   2.198  0.0579 -0.1175 -0.0964
 5161W        W21345  12.765  13.348  15.813  0.2468  0.1226 -0.0332
 5162W        W21346  13.731   1.885  11.552 -0.3339  0.3220  0.1418
 5163W        W21347  14.359  17.795  12.825 -0.0750  0.0541 -0.0480
 5164W        W21348  17.486   4.054   1.120 -0.0245 -0.1955 -0.1387
 5165W        W21349  10.152   0.559  11.499 -0.1021  0.0837  0.0021
 5166W        W21350  10.932   4.095  14.317 -0.0122 -0.3200 -0.0757
 5167W        W21351   8.637  16.666   1.358 -0.1986  0.2638 -0.1427
 5168W        W21352  12.474   5.483   1.118 -0.0241 -0.2027  0.1896
 5169W        W21353  10.756   4.744  10.968  0.0930 -0.1505 -0.2097
 5170W        W21354  12.841   9.162  11.944 -0.0169  0.0476 -0.1080
 5171W        W21355  14.980   1.963   3.979 -0.2296  0.0820  0.0954
 5172W        W21356   3.218  12.593   0.941 -0.1597 -0.0091 -0.1854
 5173W        W21357  15.468   3.658  12.771 -0.0565  0.1206  0.0869
 5174W        W21358   1.010  16.652  15.101  0.0642  0.1395  0.2389
 5175W        W21359   4.283  16.353  15.887  0.0221 -0.1590 -0.2807
 5176W        W21360   6.612  17.719   1.340 -0.2457 -0.1885  0.1030
 5177W        W21361  10.681  11.130  11.442  0.0221  0.0642 -0.1908
 5178W        W21362   5.162   1.359  13.734  0.3251 -0.2591 -0.0466
 5179W        W21363   1.511  16.621  11.882 -0.3639 -0.0498 -0.2141
 5180W        W21364   1.661   4.564   2.942 -0.2204  0.0075  0.0367
 5181W        W21365   2.536  13.518   2.336 -0.1538 -0.2110  0.1748
 5182W        W21366  14.472   9.268   3.506 -0.3570  0.1463 -0.1283
 5183W        W21367   6.801  10.329   5.432  0.2716 -0.1247 -0.1361
 5184W        W21368   9.167   1.783  15.476 -0.0841  0.1692  0.0937
 5185W        W21369  13.613  13.007   3.723 -0.0680  0.1054  0.1155
 5186W        W21370  10.294   8.684  14.286 -0.0285 -0.1411  0.1574
 5187W        W21371  12.653  15.734   0.246  0.1960 -0.1601 -0.0689
 5188W        W21372   8.322   1.197  15.541 -0.0528  0.2389  0.1401
 5189W        W21373   7.217   2.977  12.244  0.1061 -0.0242  0.0782
 5190W        W21374   0.303   9.421  15.779  0.1448 -0.3084 -0.0668
 5191W        W21375   0.462   0.246   2.077  0.2299  0.0504  0.2668
 5192W        W21376   7.104  10.933  10.977 -0.0262 -0.4068  0.1819
 5193W        W21377  11.442  16.849  11.927  0.1779 -0.0537  0.0052
 5194W        W21378  18.299  17.109   2.651 -0.1644 -0.3640 -0.2071
 5195W        W21379   6.567  14.642   0.363  0.1508 -0.2657  0.0879
 5196W        W21380  16.734   7.299  15.037 -0.1379  0.1802  0.1857
 5197W        W21381  17.151  18.269   0.041  0.0545 -0.0574  0.0308
 5198W        W21382   2.326   5.886   2.930  0.2998  0.0543  0.3711
 5199W        W21383   8.189  16.578  15.529  0.2040 -0.2745 -0.2773
 5200W        W21384   8.971  15.413   1.733  0.0264  0.2986  0.0433
 5201W        W21385  13.807   6.877  13.876 -0.0930  0.0552 -0.0266
 5202W        W21386   1.054   3.205   1.653  0.1545  0.0739  0.2978
 5203W        W21387  11.919   0.365   4.289  0.0675 -0.2406 -0.1112
 5204W        W21388  13.054  11.819   4.493  0.2402  0.1496  0.3712
 5205W        W21389  14.538   1.207   0.992  0.1927 -0.1638  0.1917
 5206W        W21390   2.567   5.605   1.892  0.1708  0.6502 -0.1791
 5207W        W21391  16.909   1.939   1.310 -0.3624  0.3059  0.0772
 5208W        W21392   6.853  13.990   4.452  0.3303  0.0988  0.1343
 5209W        W21393  16.432   2.170   0.102 -0.0171  0.0903 -0.0650
 5210W        W21394   2.409   2.579   4.149 -0.4571  0.2137 -0.3254
 5211W        W21395   7.025   9.682  12.341 -0.1878  0.0979 -0.3954
 5212W        W21396   1.188  14.475  11.786  0.0383 -0.1681  0.1191
 5213W        W21397  18.472   5.284   3.333  0.1566  0.0708 -0.3205
 5214W        W21398   7.415   5.761  13.550  0.0781  0.1324  0.0311
 5215W        W21399  13.908   4.316  12.519  0.0142  0.0474 -0.0876
 5216W        W21400  13.722  16.106  12.509  0.0874 -0.0209  0.4699
 5217W        W21401  11.114  13.132   0.718 -0.0307  0.3178 -0.2725
 5218W        W21402  10.905   2.056   5.191  0.0274 -0.0377  0.0955
 5219W        W21403   8.132  16.574  11.281 -0.0298  0.1168  0.1977
 5220W        W21404  11.645  12.709   0.616 -0.0926 -0.0375 -0.0424
 5221W        W21405  11.123   7.073   3.812  0.0170 -0.1340  0.0830
 5222W        W21406  12.244  11.075   1.593  0.2370  0.0588 -0.2761
 5223W        W21407  16.160   8.413   4.823 -0.1667 -0.1660 -0.1520
 5224W        W21408  11.686   5.953   1.633  0.2825  0.1093  0.0559
 5225W        W21409  11.410   0.802  11.982 -0.4228  0.2275  0.1200
 5226W        W21410   2.590   6.352   3.122 -0.1415  0.4424  0.1580
 5227W        W21411   4.257   6.125   2.747  0.1004  0.6160  0.1225
 5228W        W21412   6.840  12.116  14.561  0.4095  0.0110  0.0443
 5229W        W21413   8.161   6.405  13.805  0.2995  0.1816  0.4482
 5230W        W21414  14.598   6.186  11.755  0.0346  0.1624 -0.0196
 5231W        W21415  10.288  13.098  15.335 -0.0274 -0.0669 -0.1535
 5232W        W21416   7.366  11.971  14.582 -0.1147 -0.0150 -0.0091
 5233W        W21417   2.585   6.238  14.530  0.0419 -0.2789 -0.0801
 5234W        W21418   6.233   4.635   2.835 -0.0222  0.3138  0.0784
 5235W        W21419  16.856  17.635   4.905  0.2779 -0.0513  0.0071
 5236W        W21420  10.291   2.310  11.576 -0.0407 -0.0400  0.0620
 5237W        W21421   9.339  17.862   0.157  0.0468 -0.0003  0.0064
 5238W        W21422   7.048   8.480   1.585 -0.0807 -0.1854  0.3729
 5239W        W21423  12.501  14.988  12.349  0.1786  0.0336 -0.1527
 5240W        W21424   0.769  17.123   0.335  0.4178  0.1245  0.2919
 5241W        W21425  13.567  18.091   3.485  0.2043 -0.2496  0.1137
 5242W        W21426   0.916   8.391   2.168 -0.2658  0.0701  0.2324
 5243W        W21427  10.610  16.788   2.071 -0.1865 -0.0854 -0.0060
 5244W        W21428   2.610   6.283   0.186 -0.2581  0.4721 -0.3054
 5245W        W21429   8.577  12.976  11.636  0.3847 -0.3008 -0.0959
 5246W        W21430  13.676   7.644  15.923  0.0317 -0.0696 -0.2440
 5247W        W21431   5.227  13.172  13.553  0.0828  0.2072 -0.0962
 5248W        W21432  10.175  11.808  12.914  0.2006  0.3147  0.0669
 5249W        W21433  10.326   5.028   2.339 -0.6307 -0.0083 -0.1001
 5250W        W21434   0.159   7.118  15.772  0.3073  0.0365  0.1305
 5251W        W21435   4.447   6.551   0.233 -0.1462  0.1280 -0.3327
 5252W        W21436  17.300  10.584   3.291 -0.0230 -0.1613 -0.4120
 5253W        W21437  16.898  14.232  13.393 -0.3052 -0.0436  0.0528
 5254W        W21438  14.129  10.536  12.213  0.1250  0.4157 -0.4764
 5255W        W21439  18.208   9.810   2.466  0.0271  0.0039  0.2470
 5256W        W21440  18.456   3.851   2.699 -0.0975  0.0963  0.2204
 5257W        W21441   1.923  16.064  13.364  0.0678  0.0317 -0.0552
 5258W        W21442   5.293   6.471   1.653  0.1356  0.0522 -0.1403
 5259W        W21443  14.403  15.242  11.900 -0.3407 -0.2728  0.2263
 5260W        W21444   8.780  16.086  11.810  0.1511 -0.0106  0.3546
 5261W        W21445  13.441  14.915   4.592  0.1398 -0.2944 -0.2018
 5262W        W21446  13.627  13.713   2.771  0.0466  0.0983  0.3114
 5263W        W21447   3.200  12.747  10.519  0.0168  0.4093 -0.2813
 5264W        W21448  18.324   5.629   3.685  0.4040  0.1722 -0.4192
 5265W        W21449  16.407  11.813  13.495 -0.3493  0.1150  0.0876
 5266W        W21450   5.045  12.129  13.715  0.1879 -0.0595  0.1223
 5267W        W21451   9.475  13.049   3.401 -0.1139  0.1629  0.1132
 5268W        W21452  17.678   3.556   3.463 -0.1398 -0.0283 -0.1396
 5269W        W21453   1.082   8.041   5.386 -0.0887 -0.0451 -0.1793
 5270W        W21454   9.223   4.616  14.500  0.2636 -0.1142  0.0463
 5271W        W21455   5.338  13.319  15.862 -0.1982 -0.0789 -0.0498
 5272W        W21456   5.669   9.401  13.524 -0.0147 -0.0460 -0.3030
 5273W        W21457   8.470   3.423  15.795  0.2327 -0.0491 -0.1150
 5274W        W21458  18.190   1.382   1.882 -0.1360  0.0243 -0.1152
 5275W        W21459   5.446   5.920   1.503  0.2349 -0.1488  0.1075
 5276W        W21460  16.872  15.932  10.293 -0.2414  0.2514  0.0438
 5277W        W21461  11.685   8.146   1.433 -0.0194  0.2390  0.2378
 5278W        W21462  13.843  13.533   6.306  0.0645  0.0546  0.0544
 5279W        W21463  15.446   1.412  12.019 -0.3003 -0.3415 -0.1027
 5280W        W21464  12.330   4.857  14.416  0.0504 -0.0444  0.2996
 5281W        W21465   0.070   7.020   5.302 -0.1085  0.0432 -0.0207
 5282W        W21466  10.528   4.865  11.930 -0.0608 -0.1356  0.5325
 5283W        W21467   6.301   8.329   0.947 -0.0682  0.3785 -0.0351
 5284W        W21468  17.109  11.125   1.603  0.1832 -0.0926  0.2284
 5285W        W21469  17.282  14.745   2.889 -0.0850  0.1764 -0.3814
 5286W        W21470   4.580  16.299   5.236  0.1150  0.0403 -0.0563
 5287W        W21471   5.057  15.520  14.681 -0.3742 -0.1807  0.2041
 5288W        W21472  10.173   9.595  13.464 -0.1122 -0.2212 -0.0942
 5289W        W21473   3.706  17.688  13.021 -0.1838 -0.2088  0.0808
 5290W        W21474   5.073   9.116  14.263  0.2747 -0.0759  0.0934
 5291W        W21475  13.754   9.301   2.202 -0.1498 -0.4600  0.1708
 5292W        W21476   7.331   6.565  14.429  0.1271 -0.2769 -0.0859
 5293W        W21477   8.193   6.921  11.987 -0.1342 -0.2073 -0.1073
 5294W        W21478   3.626  13.313  14.981 -0.1049  0.0529 -0.0598
 5295W        W21479  17.719   6.471   5.288  0.1635 -0.0585 -0.2304
 5296W        W21480   3.238   0.927  11.743  0.3169  0.2723 -0.2593
 5297W        W21481   4.934  16.033  14.659 -0.2306  0.1636  0.0800
 5298W        W21482   9.797   7.183  11.344 -0.0241  0.0584  0.2055
 5299W        W21483  15.271   7.223   0.005  0.0068 -0.1015 -0.1393
 5300W        W21484   0.325  17.466   0.355  0.6380  0.1435  0.2132
 5301W        W21485   8.981   6.061   2.530 -0.1402 -0.0121 -0.3996
 5302W        W21486   4.103   0.828  12.771 -0.0111 -0.0635  0.1509
 5303W        W21487   9.571  11.090   5.317 -0.0615 -0.3621 -0.1868
 5304W        W21488  16.910  16.547  16.140  0.0047 -0.0774 -0.0536
 5305W        W21489   9.675  18.146   5.629 -0.0053 -0.2342 -0.2599
 5306W        W21490  17.586   1.050  11.517  0.0089 -0.2975  0.0411
 5307W        W21491   9.617  13.153   5.832 -0.2228  0.0933  0.1921
 5308W        W21492  14.614  11.508   1.824 -0.2284  0.3795 -0.0340
 5309W        W21493   4.503   7.999  11.498  0.0877  0.0391  0.1802
 5310W        W21494  15.054   8.643   1.585  0.1297 -0.3045  0.0306
 5311W        W21495   2.828   0.210  13.923 -0.1676  0.0714  0.0730
 5312W        W21496   1.076   7.118   3.740 -0.2374 -0.2666  0.0362
 5313W        W21497  12.149   2.489  12.431 -0.4011  0.0236 -0.2252
 5314W        W21498   5.681   0.820   3.957 -0.0545 -0.1135  0.2604
 5315W        W21499  11.721  13.099  14.347  0.3142 -0.0430 -0.1469
 5316W        W21500  17.012   6.518   0.958 -0.1164 -0.1799  0.0076
 5317W        W21501   6.224  11.288   2.279 -0.4729  0.1015  0.1356
 5318W        W21502  15.719   8.007  14.166 -0.1768 -0.1024 -0.1838
 5319W        W21503  13.892   5.223   0.381 -0.2353 -0.1837 -0.1299
 5320W        W21504   3.537  14.156   0.239 -0.3766 -0.2585 -0.1937
 5321W        W21505   1.024   8.973  13.875  0.2001 -0.1341  0.1373
 5322W        W21506  14.483   2.851  13.193  0.1401  0.2873 -0.4832
 5323W        W21507  17.485  11.395  13.433 -0.1846 -0.0566 -0.0172
 5324W        W21508  11.155   1.256  12.321 -0.0959 -0.0201 -0.0881
 5325W        W21509  17.887  14.179   3.181 -0.0040 -0.2055 -0.2032
 5326W        W21510   6.053  17.232   4.837  0.1975  0.2556 -0.0751
 5327W        W21511  10.099   5.303  15.754 -0.0870 -0.1576  0.1660
 5328W        W21512   8.745   1.876   4.171  0.3529 -0.1698  0.0415
 5329W        W21513  15.009   0.576  11.695 -0.1555 -0.0250  0.1870
 5330W        W21514  17.516   2.629  15.024 -0.1137 -0.0588  0.1030
 5331W        W21515   3.822  12.871   0.643 -0.1847 -0.1490  0.1815
 5332W        W21516   8.380   8.530  11.932  0.3365 -0.2249 -0.0615
 5333W        W21517   5.151  11.661   1.433  0.4576 -0.1029 -0.2155
 5334W        W21518  14.224  12.549   4.591  0.1877  0.1385 -0.2499
 5335W        W21519   0.722   4.920   4.318 -0.2126  0.1576  0.0980
 5336W        W21520  12.720  18.246   0.773  0.2453 -0.0014 -0.0360
 5337W        W21521  18.261  16.866  11.047  0.1448  0.1046  0.1611
 5338W        W21522  14.493  14.946  14.115 -0.0778  0.1715  0.0081
 5339W        W21523  18.501   6.020   1.596 -0.0653  0.2232  0.3595
 5340W        W21524   3.277  18.105  13.418 -0.0655  0.0357 -0.1526
 5341W        W21525   9.089   5.517   1.812 -0.1211  0.1359  0.1118
 5342W        W21526  16.109  13.697   5.340 -0.0166  0.2381 -0.1190
 5343W        W21527   2.802   8.286  12.680  0.2343 -0.0582 -0.3944
 5344W        W21528   3.821   5.545   0.789 -0.2024  0.0358 -0.2027
 5345W        W21529  10.109   8.743   5.571 -0.0348 -0.2602 -0.1791
 5346W        W21530  17.309   1.977  12.981 -0.2545 -0.2375 -0.2856
 5347W        W21531   2.006  18.253  13.889  0.0653  0.1761 -0.2886
 5348W        W21532  16.444   2.733  13.435 -0.1254  0.0307 -0.1491
 5349W        W21533  15.926  13.837   3.784  0.1646 -0.2157 -0.1677
 5350W        W21534   6.055  12.215  15.292 -0.1608  0.0572 -0.1804
 5351W        W21535   2.189   2.437   3.412 -0.0277  0.3805  0.1487
 5352W        W21536  11.416  10.284   0.686  0.0145  0.0850 -0.1600
 5353W        W21537  10.361   1.223   3.779 -0.0487 -0.1826  0.1946
 5354W        W21538  12.085   2.348   1.322  0.0811 -0.1064  0.1032
 5355W        W21539  18.431   9.203  13.858 -0.1481 -0.1150 -0.0936
 5356W        W21540   0.700  11.322   4.862 -0.1944 -0.0487 -0.1268
 5357W        W21541  17.451   0.662   4.011  0.0193  0.1037  0.0825
 5358W        W21542   4.254   9.087  14.689 -0.1473 -0.3522  0.1925
 5359W        W21543  17.364  18.253  10.979  0.1349 -0.4319  0.3772
 5360W        W21544   3.564  11.190   3.371 -0.1439 -0.0116  0.1181
 5361W        W21545  16.809   0.841   2.058 -0.0801  0.0152 -0.1006
 5362W        W21546   6.016  12.417  14.729 -0.1445  0.2229 -0.0852
 5363W        W21547   2.601  15.767  15.072  0.0642  0.0124  0.0908
 5364W        W21548   0.990   7.342   1.387  0.0240 -0.0051  0.0143
 5365W        W21549   1.644  17.556  12.030  0.3562 -0.0667 -0.4659
 5366W        W21550   9.177   8.879  12.685  0.1165  0.0639  0.0541
 5367W        W21551   4.253   6.915  12.318  0.0297 -0.2611  0.1104
 5368W        W21552  14.296   0.306  15.323 -0.0316 -0.2376  0.1857
 5369W        W21553   5.233   6.607   2.420 -0.5751 -0.2045 -0.0741
 5370W        W21554   3.377   2.275   5.124  0.2737 -0.1186 -0.0361
 5371W        W21555  15.427   9.687   2.371 -0.0783 -0.2604 -0.3759
 5372W        W21556   6.716   5.398  13.554 -0.0188 -0.2411  0.1058
 5373W        W21557   8.284  17.087   0.271  0.1534  0.3039  0.3498
 5374W        W21558   9.551  10.967   3.898 -0.2399 -0.2688 -0.1420
 5375W        W21559  10.607  12.206   3.980 -0.1775 -0.0662  0.2557
 5376W        W21560  16.883   2.141   3.644  0.5846 -0.1346 -0.1492
 5377W        W21561  14.458  18.494   0.142  0.0201 -0.1489  0.2545
 5378W        W21562   2.652   5.057   4.479  0.0604 -0.0003 -0.0899
 5379W        W21563  15.341   1.247  13.469 -0.1408  0.2382 -0.0173
 5380W        W21564   9.305   2.985  14.135 -0.0544 -0.0085  0.0077
 5381W        W21565  11.903   4.935  14.699 -0.1580 -0.0525  0.4977
 5382W        W21566   2.928   9.563   3.768  0.0759  0.4045 -0.0940
 5383W        W21567   4.126   2.501  15.844 -0.0514  0.3366  0.0951
 5384W        W21568  13.871   0.154   4.889 -0.1432  0.1081 -0.1676
 5385W        W21569  16.327  12.670  15.054  0.0184  0.0602 -0.5008
 5386W        W21570   1.188  15.969   3.317 -0.1781 -0.3804 -0.0674
 5387W        W21571   6.915  15.730   0.008 -0.2110  0.2320  0.0868
 5388W        W21572  11.624   4.719   5.237 -0.0726  0.0365  0.0653
 5389W        W21573   7.458   2.190   3.122 -0.0993 -0.0777 -0.0871
 5390W        W21574   5.136  14.521  13.455 -0.1865 -0.0728  0.2432
 5391W        W21575   3.577  14.264  13.611 -0.0773  0.0521  0.0078
 5392W        W21576  13.597  14.779  13.049 -0.1467 -0.1361 -0.1849
 5393W        W21577  16.568  16.537  11.512  0.2942 -0.1683  0.3650
 5394W        W21578  15.304   2.627   1.432  0.1528  0.0046  0.0798
 5395W        W21579  10.610  13.891   5.287 -0.1119  0.0783  0.1611
 5396W        W21580   4.770   2.887  14.418 -0.1242  0.0455 -0.5137
 5397W        W21581  17.014   5.978   0.769  0.0023  0.0301  0.2003
 5398W        W21582  17.597  17.118   1.985  0.2437  0.2012  0.3601
 5399W        W21583   3.619   7.559   5.529 -0.0923 -0.1243  0.2609
 5400W        W21584   5.814   0.352  12.702  0.0249  0.0521 -0.1451
 5401W        W21585   4.399  16.755  15.596 -0.0677 -0.0959  0.2208
 5402W        W21586  17.617  16.312   4.236 -0.0486 -0.2503  0.0425
 5403W        W21587  12.055  16.605   3.812 -0.0980 -0.1324 -0.0006
 5404W        W21588  18.245   2.821   2.250 -0.3355 -0.0572  0.1167
 5405W        W21589  10.013   9.663   0.713 -0.0318  0.2164 -0.3794
 5406W        W21590   4.005  15.231   3.392 -0.1401  0.0007  0.0298
 5407W        W21591  17.425   1.548   2.597  0.1607  0.0279  0.0277
 5408W        W21592  12.279   1.612   0.237  0.0298  0.1824  0.2379
 5409W        W21593   5.681  15.747  15.822 -0.1909  0.0028 -0.3453
 5410W        W21594   2.294   1.678   5.173  0.0305 -0.0310  0.1698
 5411W        W21595   2.358  10.213   4.964  0.0328 -0.0817  0.0714
 5412W        W21596   2.641   5.536   3.198 -0.2684 -0.4298 -0.2092
 5413W        W21597   3.671  11.918  14.544  0.1676  0.1527 -0.2385
 5414W        W21598  15.892   9.838   2.594 -0.0149 -0.3464  0.1816
 5415W        W21599   3.354   4.054  14.300 -0.1564  0.0305  0.2094
 5416W        W21600  17.292   8.243  11.334  0.0369  0.1764  0.0433
 5417W        W21601   7.118  11.274  14.682  0.2522 -0.0133 -0.0484
 5418W        W21602  15.764  11.155  11.895  0.0576  0.2461  0.5152
 5419W        W21603   1.184   4.251   4.774  0.3107 -0.1951  0.0452
 5420W        W21604  10.658  18.041   1.479  0.1819  0.0295  0.0471
 5421W        W21605  15.628  11.789  14.254  0.2655 -0.0702  0.0096
 5422W        W21606  15.558  14.706  12.243  0.3240 -0.2233 -0.2326
 5423W        W21607   9.448  14.312  13.782 -0.1771 -0.1724 -0.0043
 5424W        W21608   8.932  11.073   3.745  0.1298 -0.4481 -0.1745
 5425W        W21609  15.859  12.375   2.364  0.0566  0.2339 -0.0524
 5426W        W21610   3.770  14.000   4.094 -0.0440 -0.1311  0.0048
 5427W        W21611   8.253   6.051  12.754 -0.0869 -0.3817 -0.3251
 5428W        W21612   7.913  10.140   4.969 -0.1031  0.0997  0.1086
 5429W        W21613   3.245  11.605   1.623 -0.1213 -0.0893  0.4843
 5430W        W21614  13.823   3.287   0.714  0.2579  0.2338 -0.3439
 5431W        W21615  12.148   7.540   5.674  0.3918 -0.1226  0.2146
 5432W        W21616  16.085   2.815   4.702 -0.4497  0.1998  0.1863
 5433W        W21617  17.949  16.056  15.268  0.0655  0.1751 -0.2616
 5434W        W21618   5.303   2.049  12.331 -0.0953 -0.1586 -0.1718
 5435W        W21619  13.146   0.503   0.564 -0.1246 -0.0140  0.0362
 5436W        W21620   6.578   1.183  16.056  0.1941 -0.1172 -0.1724
 5437W        W21621  13.716   9.270  13.556 -0.0395  0.0937  0.0491
 5438W        W21622  11.499  14.682   4.001 -0.2364 -0.1392  0.0343
 5439W        W21623  17.446  14.255   5.153  0.0183 -0.3090 -0.0485
 5440W        W21624  16.172  16.061   1.427 -0.0055 -0.1006 -0.1793
 5441W        W21625   4.171   2.175   0.418 -0.0104 -0.3294 -0.1664
 5442W        W21626   2.859  10.482  11.269 -0.0985 -0.0540  0.1283
 5443W        W21627   6.998  14.649   0.756 -0.0615 -0.1840 -0.1686
 5444W        W21628  13.510  13.698  15.371 -0.2162  0.2483 -0.0120
 5445W        W21629  14.171   7.692   0.565 -0.0440 -0.0451 -0.2897
 5446W        W21630  17.909   1.959   3.907 -0.1244 -0.2105 -0.3198
 5447W        W21631  12.030   3.497  14.923 -0.0035  0.0217 -0.0510
 5448W        W21632  11.250   9.045   5.028  0.2540 -0.1161  0.0061
 5449W        W21633  11.286   7.307  13.276 -0.0072 -0.0268  0.2571
 5450W        W21634  16.307  17.455  11.590  0.0718  0.0505 -0.0599
 5451W        W21635  14.015   9.199  13.967  0.2802  0.0452 -0.1073
 5452W        W21636  15.398  14.967   3.931 -0.2267  0.3020 -0.2131
 5453W        W21637  15.577   7.275   5.505 -0.2756  0.0894 -0.2632
 5454W        W21638  16.966  14.096   1.758 -0.1465  0.3963 -0.1290
 5455W        W21639   3.976  12.227   0.125 -0.3480 -0.2199  0.2540
 5456W        W21640  14.038   6.707   0.145  0.1798  0.0292  0.1010
 5457W        W21641  14.585  15.827  14.565 -0.1225  0.3061 -0.0335
 5458W        W21642   0.728   8.270  12.645 -0.1309 -0.1193 -0.0956
 5459W        W21643  14.239  16.637  12.818 -0.1681  0.4172  0.0736
 5460W        W21644   7.072  16.792   4.184 -0.1710  0.3224 -0.0025
 5461W        W21645  14.548   1.644  11.906  0.2715 -0.2990  0.4497
 5462W        W21646   6.822  17.043  12.733  0.1414  0.2366  0.2744
 5463W        W21647  15.507  18.098  15.643 -0.0488  0.4195  0.0136
 5464W        W21648   0.283   8.411  13.311  0.0427  0.0486 -0.1691
 5465W        W21649  18.200  14.956   4.245 -0.1263 -0.2433  0.1478
 5466W        W21650   3.993   3.817   3.878  0.4009  0.1237  0.0791
 5467W        W21651  12.679   7.088  13.453 -0.0969 -0.2455  0.2658
 5468W        W21652  14.207   9.927   5.609 -0.1403  0.0006 -0.0494
 5469W        W21653   6.714   2.888   0.021 -0.2259 -0.2573  0.0440
 5470W        W21654   8.656   4.130  14.101 -0.2125 -0.0192  0.1914
 5471W        W21655  17.540   6.027  11.347 -0.1680 -0.0018 -0.1658
 5472W        W21656  12.218   4.772  13.875  0.2951  0.4746  0.2926
 5473W        W21657   7.882  12.225   3.281 -0.1287  0.1326  0.2246
 5474W        W21658   8.564   5.418  15.528 -0.1985  0.0386  0.4122
 5475W        W21659  11.308  10.610  11.844  0.0257  0.2669  0.2358
 5476W        W21660  13.443  17.390   1.343  0.2582 -0.2064  0.1646
 5477W        W21661   7.630   5.622  11.748 -0.3136 -0.0715  0.4143
 5478W        W21662  16.543   5.501   0.316 -0.1834 -0.0297  0.1601
 5479W        W21663   5.578   9.730   1.499 -0.0423  0.1954  0.0693
 5480W        W21664  11.165   0.499   1.508 -0.2276 -0.1145 -0.0831
 5481W        W21665   7.082   3.057  11.764 -0.2743  0.2715  0.0594
 5482W        W21666  16.064   6.251   1.631  0.0997  0.0441 -0.0051
 5483W        W21667   6.001   9.568   4.875  0.1114 -0.0878  0.2479
 5484W        W21668  16.771  12.003   2.977 -0.2587  0.0705  0.1128
 5485W        W21669   9.085   4.546   3.584  0.2043 -0.1511 -0.1223
 5486W        W21670   5.668   4.513  11.277  0.5808 -0.0331  0.0679
 5487W        W21671   2.613   9.192   0.546 -0.0747 -0.3843 -0.2329
 5488W        W21672   3.498  17.870  11.300 -0.0748 -0.2322  0.1492
 5489W        W21673   4.344   0.165  14.789 -0.0986 -0.0342  0.1294
 5490W        W21674   0.661   1.492   1.142 -0.1042 -0.1024  0.2338
 5491W        W21675   0.193   5.768  11.126 -0.2280 -0.1375 -0.2257
 5492W        W21676   0.303  11.320   4.183 -0.0590  0.2964 -0.0399
 5493W        W21677  14.454  10.401   4.390  0.0550 -0.2827  0.1510
 5494W        W21678   5.120   1.940   2.625  0.0045 -0.2716 -0.1771
 5495W        W21679  15.275   5.961  12.518 -0.2251  0.0479 -0.0089
 5496W        W21680   4.909   4.783  11.449  0.1882 -0.0392 -0.3275
 5497W        W21681   3.113   1.515  14.032 -0.2697  0.0243 -0.0820
 5498W        W21682   0.723  12.612  11.375 -0.0871  0.0326 -0.0930
 5499W        W21683   0.107  15.603  14.619 -0.1867  0.1305 -0.0225
 5500W        W21684  16.375   5.159   4.908 -0.0886 -0.0171 -0.1083
 5501W        W21685   5.878  17.028  11.104 -0.0590 -0.2979 -0.0328
 5502W        W21686   9.026   5.001   0.189  0.1267 -0.2231  0.4674
 5503W        W21687  12.639  17.751   4.985  0.0826 -0.0690 -0.0111
 5504W        W21688  17.508   6.655  12.219 -0.1124  0.1405  0.0028
 5505W        W21689  13.304  17.138   2.260 -0.1441 -0.3061  0.1753
 5506W        W21690   1.759  17.494   3.495 -0.1041 -0.1364  0.0037
 5507W        W21691  10.428  16.992  11.759  0.0293 -0.2139 -0.1294
 5508W        W21692   8.729   2.361  10.689  0.1630 -0.1582  0.4346
 5509W        W21693   6.538   0.003  14.041 -0.1421 -0.2249  0.2231
 5510W        W21694  11.187   8.944   1.208  0.0241 -0.2748 -0.0434
 5511W        W21695   7.370   4.047  15.200 -0.0694  0.0146 -0.0743
 5512W        W21696  17.875  13.898  13.516 -0.2501 -0.0803 -0.1985
 5513W        W21697   9.694  16.385   5.846  0.3269  0.1996 -0.1474
 5514W        W21698  10.961   3.101   4.932 -0.2146  0.0009 -0.2776
 5515W        W21699  17.892   3.042  13.784 -0.1473 -0.1566  0.0646
 5516W        W21700  17.232  11.153   0.587 -0.3682  0.2436 -0.2007
 5517W        W21701   6.528   0.137   1.758 -0.1357  0.0330  0.5613
 5518W        W21702  18.457   5.504  13.455 -0.0093 -0.2783  0.0124
 5519W        W21703  17.325  11.148  13.932 -0.0032 -0.0938 -0.0026
 5520W        W21704   0.985  10.890  15.644 -0.1583  0.2053 -0.0074
 5521W        W21705  10.974   3.955  16.122  0.1314  0.2342 -0.2292
 5522W        W21706  13.762   5.928  15.340  0.0109  0.3848 -0.5250
 5523W        W21707   0.620  17.935  14.546  0.0572  0.0182  0.2369
 5524W        W21708  10.090   6.299   5.424 -0.1272 -0.0252  0.4892
 5525W        W21709  14.566  17.372  11.706 -0.0800  0.2345  0.1636
 5526W        W21710  14.712   0.108   3.290  0.0014  0.0867  0.2717
 5527W        W21711  14.594  16.412  13.372  0.3360 -0.3137  0.2365
 5528W        W21712   2.383   0.924   2.316  0.1449 -0.2886  0.0027
 5529W        W21713  12.690  16.353  13.574 -0.0284  0.1618 -0.2287
 5530W        W21714   0.162   6.629  16.026 -0.0353 -0.0221 -0.3084
 5531W        W21715   0.784  15.221  13.460  0.0810  0.3540  0.0855
 5532W        W21716   5.492   1.797   3.595 -0.0075  0.2105 -0.1890
 5533W        W21717  11.362   5.296  14.834  0.3388  0.2681  0.0117
 5534W        W21718   4.464  15.001  15.103 -0.2968 -0.0428 -0.0423
 5535W        W21719   3.119   1.028  15.245  0.0785 -0.1814  0.1821
 5536W        W21720   4.210  13.633   6.007  0.1404 -0.1430 -0.3096
 5537W        W21721   0.554  10.828  12.157 -0.0758  0.0397  0.0793
 5538W        W21722   0.102  10.537  13.618  0.0857 -0.2112 -0.3109
 5539W        W21723   4.784   5.347  12.015  0.2227  0.0841  0.0040
 5540W        W21724  10.270  16.965  14.810 -0.0460 -0.0331  0.1023
 5541W        W21725   4.107   8.455  13.835  0.0004  0.1345  0.3794
 5542W        W21726   4.295   2.392   2.530 -0.1678 -0.0172  0.2001
 5543W        W21727  11.720  11.623   0.308 -0.1248  0.0257  0.4438
 5544W        W21728   7.223  14.856   2.789  0.0648 -0.4360  0.3107
 5545W        W21729  17.685  15.680   0.846  0.1530  0.3399 -0.1029
 5546W        W21730  16.536  17.494   0.319  0.1421 -0.1126 -0.1714
 5547W        W21731  17.569   7.710  15.908  0.1780  0.0476 -0.0945
 5548W        W21732  18.287   4.461  15.814  0.1677 -0.0322  0.2702
 5549W        W21733  13.018  16.716  15.711  0.1777 -0.1086 -0.0359
 5550W        W21734   0.536   0.281  12.892  0.0893  0.1763  0.0570
 5551W        W21735  13.516   6.937  11.145 -0.2493 -0.0221  0.0209
 5552W        W21736   4.142   5.748  13.146  0.0754 -0.1327 -0.0695
 5553W        W21737  14.967   0.583   1.232  0.0445  0.0387  0.1632
 5554W        W21738  16.455   7.971   0.089 -0.2205  0.3435 -0.2117
 5555W        W21739   6.079  10.758   0.028 -0.0971  0.2036  0.0709
 5556W        W21740   7.926  18.377  11.826  0.2087  0.1692  0.0607
 5557W        W21741  10.154  17.666  13.975  0.5003  0.3301 -0.2473
 5558W        W21742   8.452   0.869   4.082 -0.2346 -0.1685  0.2038
 5559W        W21743  13.136  17.965  15.395  0.0787  0.3073  0.1162
 5560W        W21744   1.473   7.688  13.113  0.2358 -0.1292  0.2142
 5561W        W21745  17.894  16.329  11.496 -0.1458  0.0999  0.1294
 5562W        W21746   7.543  17.650  14.953 -0.0364 -0.0487 -0.1211
 5563W        W21747   9.900   5.982   0.723  0.2342  0.1497 -0.1211
 5564W        W21748  11.729   5.780   3.998  0.2717  0.1627  0.0026
 5565W        W21749   9.217  12.282  13.167  0.0536 -0.1431  0.2294
 5566W        W21750   3.883   6.059   0.709  0.0356  0.2728  0.3427
 5567W        W21751  13.087   4.700   3.388  0.1942  0.3569  0.2756
 5568W        W21752  12.578  14.623  14.779  0.0534  0.4348  0.0485
 5569W        W21753   4.130  17.063  11.569 -0.0651  0.2835  0.1184
 5570W        W21754   7.168   0.020  14.815 -0.3382 -0.0052 -0.0014
 5571W        W21755   2.389   6.586  11.800  0.0385  0.1654  0.1379
 5572W        W21756   8.422  10.004  12.439  0.0282 -0.0757  0.1793
 5573W        W21757  18.387   1.622   4.952 -0.0471  0.0434  0.1045
 5574W        W21758  15.970  11.558  13.377  0.2623 -0.3984  0.1601
 5575W        W21759   1.112  13.452   2.869  0.0595  0.0674  0.0976
 5576W        W21760  16.073   1.278   2.999  0.0543 -0.1722  0.1229
 5577W        W21761   6.805   1.882   0.930 -0.2144 -0.0212 -0.0200
 5578W        W21762  15.550  13.806  14.048  0.0516 -0.0170  0.0077
 5579W        W21763   3.348   6.258  12.651 -0.0391 -0.1739  0.1705
 5580W        W21764   7.064  18.227   0.519 -0.1556 -0.2001  0.1093
 5581W        W21765   0.497  17.197  15.121 -0.1653  0.1985 -0.3526
 5582W        W21766   1.039   8.865   5.168  0.0204  0.1313 -0.0405
 5583W        W21767  12.919   3.712  15.616  0.3723 -0.1511 -0.0772
 5584W        W21768   3.101  14.396   5.207  0.0011 -0.0025  0.0823
 5585W        W21769   2.305  15.077   1.597  0.1214  0.3191 -0.1610
 5586W        W21770  13.710   2.815   0.892 -0.0760 -0.0948  0.1242
 5587W        W21771   8.547   2.365  11.691 -0.0778 -0.0500  0.0218
 5588W        W21772   6.979  10.773  15.701  0.1286 -0.2173  0.1599
 5589W        W21773   7.934   5.373   0.187  0.1383  0.0833  0.1538
 5590W        W21774   0.020  18.450  14.818 -0.0142  0.3029  0.0229
 5591W        W21775  11.629   1.746  14.483  0.2023 -0.1040  0.2872
 5592W        W21776  11.144  13.588  14.376  0.0976 -0.1699 -0.3206
 5593W        W21777  12.706  14.977  12.974  0.0441 -0.0343 -0.0024
 5594W        W21778   9.728   4.576  14.715  0.1126 -0.0313 -0.0645
 5595W        W21779  18.354   3.182   3.132 -0.0965 -0.0566 -0.0722
 5596W        W21780  16.310   2.560   1.442  0.1709 -0.1338 -0.1477
 5597W        W21781  16.694   8.453  15.783 -0.2033 -0.2959 -0.2476
 5598W        W21782  16.465   3.327   5.976 -0.1820  0.0745 -0.2757
 5599W        W21783  12.280  11.235  12.188 -0.0011 -0.0059  0.1690
 5600W        W21784   9.750  18.314  12.308 -0.1262 -0.2327  0.2471
 5601W        W21785  16.233   1.087   5.386 -0.1572 -0.0636 -0.2816
 5602W        W21786   4.617   9.626   4.980 -0.2729 -0.3669  0.0933
 5603W        W21787   5.944   6.005  11.623 -0.1897  0.3073  0.1278
 5604W        W21788   4.053   8.548   1.611 -0.2430  0.0233  0.2447
 5605W        W21789  12.473   6.526   2.032  0.0030 -0.0079 -0.1812
 5606W        W21790   2.731  15.237  14.156 -0.0475  0.4085  0.1904
 5607W        W21791  13.189  14.740   2.575 -0.2710 -0.1680 -0.0027
 5608W        W21792  15.911  11.934   3.299 -0.1370  0.2039 -0.2031
 5609W        W21793  13.838  10.742   5.518  0.4281 -0.1304 -0.1771
 5610W        W21794  16.137   7.408   4.312  0.0633 -0.0720  0.1870
 5611W        W21795  15.012   7.751   3.031  0.0387  0.2032 -0.2808
 5612W        W21796   6.964   4.463   0.664  0.0247  0.3292  0.4174
 5613W        W21797  14.327   8.666   1.795 -0.1439 -0.3449  0.2727
 5614W        W21798  10.140  17.084  12.131  0.1005 -0.0814  0.0511
 5615W        W21799  18.025  13.082  11.823  0.0805 -0.1432 -0.3434
 5616W        W21800   6.942  14.516   4.809  0.0464  0.2191 -0.1016
 5617W        W21801   1.770   6.572   4.109 -0.0947 -0.1446 -0.0791
 5618W        W21802  17.085   7.084   0.100  0.2869 -0.3001 -0.6598
 5619W        W21803  14.627   4.871   1.188 -0.0643 -0.1251  0.0392
 5620W        W21804  13.849  17.018   5.925  0.0122 -0.0267 -0.1278
 5621W        W21805   5.871   0.833  15.539  0.1545  0.1871  0.1687
 5622W        W21806  16.300  13.660   0.373  0.1573  0.2554  0.0471
 5623W        W21807  15.456   3.150   3.140  0.1483  0.1339 -0.0928
 5624W        W21808   8.202   5.804   2.650 -0.1593 -0.4898  0.1082
 5625W        W21809   1.685  10.723  15.308  0.0832 -0.3093  0.0269
 5626W        W21810  15.041  16.026  15.532  0.0953 -0.1737  0.5172
 5627W        W21811  10.137   5.808   5.317 -0.1574  0.1100 -0.0207
 5628W        W21812   3.514   6.416  15.892 -0.3256 -0.0630 -0.0302
 5629W        W21813  14.731  15.013   2.119  0.1948  0.0842  0.0380
 5630W        W21814  12.483   6.313   1.525 -0.0213 -0.0735 -0.0141
 5631W        W21815  14.020   9.073   1.744  0.1350  0.0003 -0.0123
 5632W        W21816  14.701   6.266   5.286 -0.2118  0.3143 -0.1215
 5633W        W21817  11.691   7.637   1.202  0.2235 -0.2414 -0.2553
 5634W        W21818   5.293  16.177  12.523  0.2509  0.0120  0.0662
 5635W        W21819  10.432   7.943   2.974 -0.0527  0.0786  0.2926
 5636W        W21820   5.807   7.748  13.725 -0.0770 -0.0578 -0.2160
 5637W        W21821   4.595   8.969   5.194  0.1457 -0.1644  0.0781
 5638W        W21822   2.152   3.676  15.165 -0.1767  0.0063 -0.0420
 5639W        W21823   2.071   1.117  13.058 -0.2044 -0.2113 -0.0249
 5640W        W21824   0.610  12.855  14.646  0.1798  0.2435 -0.1459
 5641W        W21825   8.904   4.565  15.368 -0.0929  0.1525 -0.1390
 5642W        W21826   1.978   8.485   2.970  0.0733  0.3130  0.0660
 5643W        W21827   5.743  15.094  12.021 -0.0879  0.0175 -0.1722
 5644W        W21828   9.611  10.255  15.550 -0.2103 -0.2730 -0.1379
 5645W        W21829   2.223   2.364   1.110  0.2207  0.0657  0.0134
 5646W        W21830   5.799   8.014  14.517 -0.1828  0.2415 -0.2741
 5647W        W21831   2.143  13.593   1.580 -0.0461  0.0521  0.1117
 5648W        W21832  18.257   3.129  14.579 -0.3754 -0.2613  0.0984
 5649W        W21833  10.524   8.621   4.629 -0.1720 -0.1705  0.2851
 5650W        W21834   9.994   5.372  11.112  0.4066 -0.0745  0.1211
 5651W        W21835  10.945  13.911  12.501  0.3190  0.0783  0.1054
 5652W        W21836  16.715  10.356  12.287 -0.2056 -0.0401 -0.2878
 5653W        W21837  12.560   6.305  13.894  0.0213  0.2428  0.0699
 5654W        W21838   9.560   8.250   6.179 -0.1087 -0.1987 -0.1453
 5655W        W21839   9.542   1.663   0.630  0.3382  0.2952 -0.1061
 5656W        W21840  16.128  16.574   5.075  0.1012 -0.0407 -0.1009
 5657W        W21841  10.562   3.139  11.601  0.1096  0.2966 -0.0776
 5658W        W21842   4.843  16.174  11.675  0.2070  0.1807 -0.1566
 5659W        W21843  18.347   0.831   0.409 -0.0397 -0.0869  0.0164
 5660W        W21844   1.706  10.460   4.269 -0.0966 -0.1282 -0.0928
 5661W        W21845  11.363  11.800   4.418  0.1947  0.0296 -0.2367
 5662W        W21846   1.019   8.436   3.946  0.1987  0.1033  0.1177
 5663W        W21847   6.870   1.494   1.664 -0.2124  0.2233 -0.1022
 5664W        W21848   5.772  12.472  15.748  0.0090  0.1799 -0.1614
 5665W        W21849   1.486   2.223   3.987 -0.2544 -0.2098 -0.3016
 5666W        W21850  11.498  13.002  15.857  0.1538 -0.3141  0.2187
 5667W        W21851   4.343  10.991   1.704 -0.1793  0.1378  0.0527
 5668W        W21852   6.063   6.154   4.544  0.1319  0.0636  0.1170
 5669W        W21853  16.831  16.454  15.079 -0.2910  0.0732  0.1805
 5670W        W21854  13.053   0.436  15.704  0.1723  0.3451  0.1635
 5671W        W21855   0.541  12.953   2.200 -0.0870  0.1687  0.2166
 5672W        W21856   0.202  17.969   2.185 -0.0636  0.0139 -0.0719
 5673W        W21857  17.903  10.884  14.778 -0.1577  0.1473 -0.0221
 5674W        W21858  10.961   3.250  12.000  0.0600  0.5499  0.1875
 5675W        W21859  12.293   3.863   3.595  0.0545 -0.0919 -0.2649
 5676W        W21860  15.709   7.768   4.247 -0.0576 -0.1073 -0.1632
 5677W        W21861   1.009  12.099  11.299  0.0630  0.0564  0.2959
 5678W        W21862   3.333  16.660  15.999  0.0364 -0.1929 -0.2109
 5679W        W21863   4.553   2.190  13.556 -0.2073  0.0642  0.0968
 5680W        W21864  11.810   5.936  11.469 -0.2925  0.2965  0.1243
 5681W        W21865   6.316  13.669   2.713  0.2330  0.1034  0.1442
 5682W        W21866  10.007  10.277   4.301 -0.1073 -0.2092  0.0080
 5683W        W21867   8.559  15.062   3.411 -0.1300 -0.0461 -0.2460
 5684W        W21868   6.552   1.489  13.366 -0.1312 -0.1945  0.1696
 5685W        W21869   9.322   5.841  10.907  0.0615  0.1879  0.1579
 5686W        W21870  15.526   8.478  14.443  0.2130 -0.1823 -0.2400
 5687W        W21871  17.165  13.425   5.216 -0.0502 -0.1254  0.1847
 5688W        W21872  10.025   6.488   2.448 -0.1221  0.0148 -0.0085
 5689W        W21873   1.848  14.245   5.312  0.1805 -0.1389  0.1173
 5690W        W21874  18.440  10.225   3.234  0.0471  0.0734 -0.2526
 5691W        W21875  15.884  18.473  15.385  0.1673 -0.4398  0.0491
 5692W        W21876  17.986  15.417   4.920 -0.0236  0.2454 -0.2268
 5693W        W21877  17.310  14.518  11.179  0.1198 -0.1239 -0.0503
 5694W        W21878   2.964  17.009  15.323 -0.1166  0.3328  0.2069
 5695W        W21879  18.290  15.010   3.718  0.4480  0.1159 -0.3225
 5696W        W21880  16.008  16.828   3.433 -0.0744  0.0091 -0.2842
 5697W        W21881   7.512  13.327   5.366 -0.2204 -0.0400 -0.1248
 5698W        W21882  10.062   5.811  12.896 -0.0521  0.0070  0.0130
 5699W        W21883   0.383  16.564  15.772 -0.1381 -0.1938 -0.3535
 5700W        W21884  17.789   3.348   4.957  0.2011  0.1189 -0.0640
 5701W        W21885  11.551  15.774   3.266  0.1787  0.4946 -0.2830
 5702W        W21886  10.596   1.418  11.693  0.2556 -0.1242  0.2435
 5703W        W21887   5.221  18.175   1.574 -0.0361  0.1669 -0.1329
 5704W        W21888   2.241   1.941  13.185 -0.3287 -0.0987  0.1731
 5705W        W21889  17.477  17.354  10.762 -0.1340  0.2304  0.3770
 5706W        W21890  12.034   6.845   2.840 -0.0415 -0.0998 -0.3138
 5707W        W21891  15.436   6.423  12.788 -0.1154  0.2731 -0.0797
 5708W        W21892  18.272  10.744   2.077 -0.0271  0.1893  0.1290
 5709W        W21893  13.857  18.310   3.092  0.1066 -0.1131 -0.1504
 5710W        W21894   1.200   7.419  12.328  0.1813 -0.0591 -0.1647
 5711W        W21895   2.845  10.639   2.244  0.0397 -0.0127 -0.2339
 5712W        W21896  11.176  10.922  13.883 -0.0094  0.0814 -0.2014
 5713W        W21897  11.540  12.913  15.374 -0.1083 -0.2782  0.0606
 5714W        W21898   5.850  18.346   2.274  0.1503 -0.2315  0.0083
 5715W        W21899   5.776   3.713  10.981 -0.3430  0.0435 -0.3436
 5716W        W21900  15.312  14.281  14.410 -0.0535 -0.0188  0.3990
 5717W        W21901   3.282   1.385  13.554  0.3066 -0.0787 -0.0745
 5718W        W21902  14.362   2.514  12.701 -0.0052  0.2845 -0.1222
 5719W        W21903   7.182   2.565   0.798 -0.1961  0.1169 -0.2205
 5720W        W21904  17.014  13.141  13.740 -0.0046  0.1592  0.0530
 5721W        W21905   8.663   8.967  15.238  0.0631  0.2382 -0.0419
 5722W        W21906   1.432  11.860  11.673 -0.1668  0.0023 -0.1418
 5723W        W21907   1.846   2.305  14.235  0.3194  0.2341 -0.0671
 5724W        W21908  14.633   5.732  15.621  0.2858  0.0623  0.1809
 5725W        W21909   7.154   2.337  15.778 -0.3036 -0.3914  0.0213
 5726W        W21910   3.503   0.221   2.430 -0.1029 -0.0472 -0.2285
 5727W        W21911   1.226   8.613  12.834 -0.0082 -0.1523  0.1544
 5728W        W21912  17.391  15.655  11.185 -0.0766 -0.1202 -0.0189
 5729W        W21913   1.773  13.593  12.947 -0.0049 -0.1691  0.3386
 5730W        W21914   5.800   0.830  11.875  0.0912  0.0179  0.0977
 5731W        W21915   5.559  17.020   1.486 -0.0803  0.0950 -0.2434
 5732W        W21916   8.287   0.819  11.949  0.1241  0.1650 -0.0362
 5733W        W21917  13.582  14.647  12.177  0.1670  0.2087 -0.0956
 5734W        W21918  15.422  17.970   3.871  0.0973 -0.0342  0.0028
 5735W        W21919  16.292   6.864   2.471  0.3991  0.2951 -0.1087
 5736W        W21920   6.373  14.136   0.448 -0.1450  0.0838 -0.1835
 5737W        W21921   3.138   8.311  12.269  0.3056  0.2688 -0.1357
 5738W        W21922  17.170  15.987   5.555 -0.0436  0.0543 -0.1978
 5739W        W21923  15.804   9.543   0.675  0.0258  0.4577  0.1054
 5740W        W21924   6.330  11.361   1.730 -0.1344 -0.1293 -0.1774
 5741W        W21925  10.983   6.210  15.241  0.0668 -0.3786 -0.0077
 5742W        W21926  14.177  16.939   3.737 -0.1122  0.1567 -0.3187
 5743W        W21927   9.733   8.006  11.619  0.0007  0.3081 -0.2755
 5744W        W21928   4.747  12.971   2.217 -0.0685 -0.2633 -0.2972
 5745W        W21929  15.424  14.270  11.866  0.0280  0.0036 -0.1738
 5746W        W21930  11.944   5.630   2.032  0.3406 -0.1085  0.0649
 5747W        W21931  14.208  12.871   0.764  0.0874  0.1792 -0.1769
 5748W        W21932   3.527   9.260   1.553  0.0376 -0.0015  0.0310
 5749W        W21933   9.635  14.225   1.603 -0.0047 -0.3075 -0.2072
 5750W        W21934  14.840   6.110  14.388 -0.4172  0.0314  0.1492
 5751W        W21935  13.305   8.377  14.238  0.1381 -0.0449 -0.2087
 5752W        W21936  10.604   5.697  15.550  0.3638 -0.2528 -0.0040
 5753W        W21937  15.750  17.036  11.510 -0.0612 -0.1287 -0.1019
 5754W        W21938  18.228  14.480  16.079 -0.0183 -0.0474  0.3024
 5755W        W21939   1.432   1.259  13.886 -0.4053  0.0328 -0.1041
 5756W        W21940   1.029  14.342  13.865  0.0509  0.0115 -0.0661
 5757W        W21941  10.355   9.137  15.644 -0.0295 -0.0276 -0.1215
 5758W        W21942   9.483   1.715  14.357 -0.2020 -0.2227 -0.1758
 5759W        W21943   3.888   9.981  13.833 -0.3152 -0.0238  0.0684
 5760W        W21944  16.255   8.400  16.035  0.0449 -0.2054 -0.1581
 5761W        W21945  13.168  12.974   5.378 -0.0049 -0.0117 -0.1246
 5762W        W21946  15.051   9.178   0.573 -0.2470 -0.1371  0.1508
 5763W        W21947   5.005   9.984   1.194 -0.0675 -0.2027  0.2196
 5764W        W21948   6.125   7.759  11.731 -0.0904  0.3340  0.0990
 5765W        W21949   2.598   9.389  14.573  0.1161  0.3029 -0.1472
 5766W        W21950  15.449  13.796   2.554 -0.2692  0.1864  0.0070
 5767W        W21951   2.954   6.849   4.349 -0.1830  0.0839 -0.0722
 5768W        W21952  12.392   7.715  12.833  0.3556 -0.1249  0.3416
 5769W        W21953   2.102  16.572  13.178 -0.2636  0.0434 -0.1209
 5770W        W21954   4.446   7.100   5.108  0.3932 -0.2643  0.0085
 5771W        W21955  11.216  14.181   3.248  0.1506 -0.1870 -0.1040
 5772W        W21956   8.931   2.057  15.039  0.3685 -0.2389  0.0346
 5773W        W21957   8.335   5.873   0.789 -0.1682 -0.1214  0.0220
 5774W        W21958  12.430   1.393  15.960 -0.1227 -0.0527  0.1741
 5775W        W21959   7.511  13.375  14.311  0.1065  0.0112 -0.2651
 5776W        W21960  17.685  12.405  13.012 -0.0337  0.0411  0.1836
 5777W        W21961  13.344  16.827   1.384  0.0988 -0.2172  0.1089
 5778W        W21962  13.453   1.806   4.116  0.3278  0.0044  0.0457
 5779W        W21963   7.225   5.808  14.798  0.1088 -0.0577 -0.0546
 5780W        W21964  14.291   4.835   0.054 -0.1386  0.0303 -0.3097
 5781W        W21965  11.047   1.137  11.822  0.0897  0.1601 -0.1617
 5782W        W21966  14.212   4.043  12.245  0.1466 -0.2584 -0.0197
 5783W        W21967   4.475   2.947   3.997 -0.2220 -0.4147 -0.0904
 5784W        W21968  16.842   5.678   1.146 -0.0236  0.0063  0.0292
 5785W        W21969  17.836   1.741  11.817  0.0438  0.0993 -0.1241
 5786W        W21970  11.355   2.065   2.650  0.3196  0.2020  0.1899
 5787W        W21971  16.357   4.079   2.541 -0.0375  0.0401 -0.1733
 5788W        W21972  13.418  14.584  14.136  0.3773 -0.0757 -0.1348
 5789W        W21973   5.059   1.057  12.402  0.0942 -0.1419  0.0576
 5790W        W21974  13.458  11.971  13.889  0.3524  0.3257 -0.1852
 5791W        W21975   5.519   0.946   3.348  0.5360  0.2364  0.0275
 5792W        W21976  10.255   9.649   5.046  0.1799  0.0437  0.0203
 5793W        W21977   4.506  17.248   5.907 -0.0326  0.2440 -0.1713
 5794W        W21978   0.303  12.001   3.449  0.0878 -0.1177 -0.0373
 5795W        W21979   9.089   0.082   4.183 -0.1561  0.0731  0.4502
 5796W        W21980  12.528  17.111   1.640  0.0246  0.1197  0.0891
 5797W        W21981  12.056   8.068  14.812  0.1118  0.0185  0.4441
 5798W        W21982   4.857   5.675  13.099  0.0110  0.0086  0.2831
 5799W        W21983  17.273   0.345   4.391  0.0429  0.2698 -0.2144
 5800W        W21984   6.365  11.197   0.124  0.0865 -0.2103 -0.0149
 5801W        W21985  15.208  18.099   2.829 -0.0139 -0.0521  0.2888
 5802W        W21986   2.063  16.641   3.891  0.1936 -0.1040 -0.0371
 5803W        W21987   0.798   2.394  12.112 -0.1507  0.2633  0.0881
 5804W        W21988   5.044   8.938  15.913 -0.0027  0.0848  0.0801
 5805W        W21989   2.153  17.982   1.945 -0.0888  0.0792  0.3060
 5806W        W21990   0.553  17.977  12.356 -0.0917  0.2461  0.3839
 5807W        W21991  12.471  15.229   0.943  0.2684  0.1806  0.1130
 5808W        W21992   4.708  17.792  14.322  0.2709 -0.0958  0.0526
 5809W        W21993  18.380   2.971  11.628  0.0130 -0.0671  0.0272
 5810W        W21994   8.108   9.432  13.577  0.1380 -0.0331  0.2787
 5811W        W21995   3.274   7.307  13.407 -0.2765  0.1073 -0.0902
 5812W        W21996  12.770  15.036  11.242  0.1368  0.1762  0.2262
 5813W        W21997   7.971  16.862   4.708 -0.1914  0.0870  0.2586
 5814W        W21998   5.808   8.861   3.523 -0.4175  0.1788 -0.2328
 5815W        W21999   6.237   1.999  15.650  0.1432  0.0902  0.3063
 5816W        W22000   3.975   6.633  11.349  0.1682 -0.1658  0.0237
 5817W        W22001   9.187  11.607   5.599  0.0901  0.0580  0.1913
 5818W        W22002   1.371   2.184   0.318  0.1111  0.0175  0.0137
 5819W        W22003   4.069  13.040   3.947 -0.1221 -0.4328 -0.2796
 5820W        W22004  17.461   1.215   4.751 -0.0254  0.0387  0.0480
 5821W        W22005  13.875   3.180  11.210 -0.0168 -0.1251 -0.1068
 5822W        W22006  10.970   7.900   2.503  0.0136 -0.1231  0.0725
 5823W        W22007   9.103  13.664  12.450 -0.0568  0.1276 -0.1206
 5824W        W22008   3.259   8.688  15.418  0.0094  0.2197 -0.1234
 5825W        W22009   8.675   8.644  15.621 -0.3833 -0.1222 -0.1814
 5826W        W22010   1.018  10.357   4.354 -0.0556  0.0658 -0.4075
 5827W        W22011  13.787   6.305   5.859 -0.1379  0.5406 -0.0072
 5828W        W22012   3.711   5.480  12.459 -0.3652  0.2771 -0.1909
 5829W        W22013   3.732   9.852   1.470 -0.0537  0.2642  0.1918
 5830W        W22014   6.611   1.620   2.957 -0.2768 -0.2693  0.2972
 5831W        W22015   1.465   5.973   4.738  0.2832 -0.2210  0.1436
 5832W        W22016   9.514   5.562   0.463  0.1811  0.0121 -0.2039
 5833W        W22017   5.259  12.984   0.124 -0.0106 -0.0272 -0.1546
 5834W        W22018  12.714   7.984  13.248  0.2584 -0.2281 -0.1255
 5835W        W22019  12.400  12.736  14.231 -0.4944 -0.0454 -0.1294
 5836W        W22020  16.116  10.775  13.449 -0.1776  0.1269  0.0469
 5837W        W22021   7.198   2.159   4.676  0.0008 -0.2299 -0.1304
 5838W        W22022   9.725   0.551   2.713  0.5557 -0.0920  0.0956
 5839W        W22023   9.796   1.196  12.419  0.0521 -0.2314  0.1433
 5840W        W22024  14.978  10.773  12.904  0.1099  0.3819 -0.0435
 5841W        W22025   4.979   8.840  13.803 -0.1479  0.1816 -0.1391
 5842W        W22026  12.862   1.263  11.426 -0.0027 -0.1396  0.1010
 5843W        W22027   5.389   1.323  14.198  0.0305  0.0885  0.1006
 5844W        W22028  18.329   7.933   1.049 -0.2090 -0.0705 -0.0813
 5845W        W22029   4.514  16.643   5.705  0.0145  0.1257 -0.0624
 5846W        W22030  17.766   5.188  15.599  0.0961 -0.1534 -0.1143
 5847W        W22031   4.595   1.608  12.663 -0.1928 -0.3615 -0.0938
 5848W        W22032   7.356   3.534  15.143 -0.0706  0.1211  0.0898
 5849W        W22033  13.742  17.798  16.128  0.0441 -0.0073  0.0358
 5850W        W22034   7.608  11.819   3.445 -0.0126 -0.0655 -0.2471
 5851W        W22035  12.549  15.299  11.769 -0.0060 -0.4241  0.3679
 5852W        W22036   3.594   2.173  15.066  0.1508  0.0884 -0.0519
 5853W        W22037   3.799  17.198  12.848  0.1086  0.0094 -0.3272
 5854W        W22038  10.379  13.444   4.684 -0.0334 -0.1632  0.2875
 5855W        W22039  18.146   2.370   4.361  0.1067  0.0089  0.0678
 5856W        W22040  11.219   8.945  11.433  0.0794  0.2640  0.1568
 5857W        W22041  15.401   7.424   3.295 -0.0991 -0.3020 -0.0419
 5858W        W22042   9.412   1.789   3.383 -0.1429  0.3574  0.0651
 5859W        W22043  12.379   2.847   0.136 -0.2107 -0.1225  0.1336
 5860W        W22044   6.362   9.454  12.882 -0.0721  0.1870 -0.0522
 5861W        W22045   3.843   2.372  13.712 -0.0361  0.2918  0.2091
 5862W        W22046   3.958   0.166  11.407 -0.0981 -0.1586  0.1320
 5863W        W22047   3.305  13.398   2.628  0.0005 -0.2092 -0.0044
 5864W        W22048   7.389  15.105   0.598  0.4852  0.1447  0.1233
 5865W        W22049   3.737  16.583  11.852 -0.0071  0.0155 -0.1777
 5866W        W22050  11.638   8.108   3.201 -0.3633  0.0939 -0.0269
 5867W        W22051   9.065  10.749  12.179 -0.1043  0.2081  0.0622
 5868W        W22052  17.857   2.966  15.386  0.2281  0.1929 -0.0738
 5869W        W22053  13.993   4.861  13.175 -0.3952 -0.0339  0.0577
 5870W        W22054  12.752   2.806   5.554  0.0225 -0.1175 -0.3177
 5871W        W22055  12.019  12.784  14.648  0.0742  0.0157 -0.0550
 5872W        W22056  12.096   3.942   4.566  0.1198 -0.2970 -0.0902
 5873W        W22057   6.130   3.195  12.855 -0.1092  0.0312  0.0534
 5874W        W22058  18.178   0.850   1.946 -0.2403 -0.4048  0.0276
 5875W        W22059   6.365  16.495  13.861 -0.1470  0.0345 -0.2114
 5876W        W22060   0.979  14.440  15.448 -0.1339 -0.0584  0.0345
 5877W        W22061  15.130  17.722  11.033  0.1003  0.1138  0.0617
 5878W        W22062  14.598  12.564  16.106  0.1925  0.0642 -0.1847
 5879W        W22063  13.545   8.102  12.491  0.0432  0.2007 -0.0172
 5880W        W22064   3.376   0.806   9.700  0.1995 -0.0662 -0.0518
 5881W        W22065  13.396   2.350   1.010 -0.0242  0.3555 -0.0522
 5882W        W22066  14.176   4.522  14.027 -0.0343 -0.1501 -0.1650
 5883W        W22067   5.674  12.997  15.585 -0.1093  0.3452 -0.0431
 5884W        W22068  10.567   7.924  11.654 -0.1549 -0.1510  0.0753
 5885W        W22069   0.870  13.515   0.621 -0.1024  0.1835 -0.0176
 5886W        W22070   6.192   1.308   4.939 -0.2068  0.2245 -0.1607
 5887W        W22071  13.021   9.709  15.051  0.3896 -0.2477 -0.3228
 5888W        W22072   2.823  18.309   4.780 -0.1667  0.0820 -0.1902
 5889W        W22073  18.157  16.823  14.822 -0.0999  0.0566  0.1023
 5890W        W22074  12.931  14.173   2.595 -0.0364  0.1238  0.2066
 5891W        W22075  16.499  17.689   4.075 -0.0472 -0.1146  0.3721
 5892W        W22076   3.918  10.105   0.475 -0.1091  0.3385  0.1192
 5893W        W22077   3.584   5.444   1.557 -0.0783 -0.2957  0.4675
 5894W        W22078   0.630   4.383   0.029  0.0623  0.1371 -0.1025
 5895W        W22079  15.601  17.165  11.021 -0.1115 -0.0639 -0.1764
 5896W        W22080  10.663   0.343  11.315  0.0095  0.1456  0.0725
 5897W        W22081   6.290  18.370   3.894 -0.4309  0.0472  0.0251
 5898W        W22082   9.038  11.677   1.772  0.1413 -0.0020  0.1429
 5899W        W22083  14.625   5.509   3.740 -0.0807 -0.0046 -0.0745
 5900W        W22084  11.133   9.460  11.486 -0.0761  0.4639  0.3182
 5901W        W22085  13.410   7.283   0.880 -0.0442  0.1796 -0.0843
 5902W        W22086   6.722   5.460   3.856  0.4452 -0.0027 -0.0616
 5903W        W22087  12.430   5.231   2.811 -0.2198  0.0027 -0.2853
 5904W        W22088   6.521  10.917   0.787 -0.2112 -0.0478  0.1581
 5905W        W22089   5.148  12.069  14.379  0.3500 -0.1047 -0.0159
 5906W        W22090   1.939  11.700  11.631  0.0120 -0.1306 -0.4148
 5907W        W22091  16.312   8.984  12.592 -0.3331  0.0319  0.0098
 5908W        W22092   6.117   1.598  15.298  0.2828 -0.0277  0.0762
 5909W        W22093   9.452  11.234   1.007 -0.0641  0.1861 -0.1823
 5910W        W22094   1.966   3.541   2.955 -0.7145  0.1331 -0.2192
 5911W        W22095  12.333   0.837  15.293 -0.0051  0.0710 -0.2211
 5912W        W22096  17.579  15.956  15.602 -0.1238 -0.1059  0.1719
 5913W        W22097   1.207   0.723   0.544 -0.1299 -0.1613  0.0964
 5914W        W22098  15.588   9.609  12.856 -0.1058 -0.1626  0.5359
 5915W        W22099   5.387   4.324  12.249  0.1631  0.0151 -0.0544
 5916W        W22100   8.536   1.602   5.146  0.0010  0.2866 -0.0297
 5917W        W22101   7.788   6.267  12.750  0.2791  0.1479  0.1586
 5918W        W22102   5.062  11.472  11.380  0.0456  0.1996  0.0028
 5919W        W22103   2.827  15.583  15.699 -0.2450  0.5314  0.3261
 5920W        W22104   7.620   0.361   5.959 -0.0063 -0.2009  0.0489
 5921W        W22105  11.412   1.451   1.579  0.0559  0.1232 -0.4322
 5922W        W22106   4.187  14.822   0.421 -0.0174  0.0845  0.0188
 5923W        W22107   2.475   7.345  12.961 -0.0838 -0.2593  0.1925
 5924W        W22108  15.153  10.780  15.079 -0.0020  0.2508  0.0423
 5925W        W22109   8.821  16.200   0.096 -0.0957  0.0139  0.0401
 5926W        W22110  16.685  16.423   2.709 -0.3127 -0.5477 -0.3268
 5927W        W22111   4.125   0.284   1.219  0.2353  0.2149 -0.0657
 5928W        W22112  16.782  13.815  13.056  0.3102  0.1985  0.3482
 5929W        W22113   2.368   6.641   0.048 -0.0069  0.2927  0.0522
 5930W        W22114  14.946   9.883   4.036 -0.0857  0.2890  0.0255
 5931W        W22115   2.542   4.703   5.440 -0.0593  0.1191  0.0144
 5932W        W22116   8.181  15.390   0.640 -0.1943  0.1023  0.1796
 5933W        W22117  15.484   5.973  12.998  0.0958 -0.1758  0.1248
 5934W        W22118  11.888  11.528  11.944 -0.1943 -0.1952  0.2215
 5935W        W22119  18.291   3.643  15.225 -0.1858  0.0185  0.0846
 5936W        W22120   7.747  13.349   3.145  0.3039 -0.0561 -0.2483
 5937W        W22121  16.562   9.002  13.540 -0.1488 -0.0592 -0.1795
 5938W        W22122  10.062   7.724   2.464  0.0431 -0.1626  0.1126
 5939W        W22123  14.047   6.694  11.489  0.1505 -0.0134  0.0439
 5940W        W22124   3.721  12.646   1.088  0.0601  0.2216  0.3080
 5941W        W22125   4.315   4.805   0.513  0.2009  0.1549  0.1523
 5942W        W22126   4.477   4.466  11.314 -0.0427 -0.1599 -0.0843
 5943W        W22127   6.113   5.406  11.553  0.1124 -0.0065 -0.2879
 5944W        W22128   8.753  13.258   2.140  0.1734 -0.3763 -0.1152
 5945W        W22129  11.663  14.180   4.054 -0.1981  0.1357 -0.0074
 5946W        W22130  10.978  14.206   1.878 -0.2103  0.0056 -0.2246
 5947W        W22131  14.935   1.758   0.582 -0.1095  0.3596 -0.0815
 5948W        W22132   3.353   4.487   1.923 -0.0238 -0.0122 -0.1541
 5949W        W22133   0.817   5.901  15.201  0.2833 -0.3942 -0.2093
 5950W        W22134   4.421   5.995   3.822 -0.0550  0.1110 -0.0668
 5951W        W22135  12.535  12.526  14.803 -0.0888  0.1091  0.3292
 5952W        W22136   7.050  15.431  13.899 -0.0086  0.0280  0.2582
 5953W        W22137  11.067  15.887   5.351 -0.1881 -0.0195 -0.2594
 5954W        W22138  15.699  17.744   3.557  0.2166  0.1023 -0.0818
 5955W        W22139   9.007   4.989   2.629  0.0694  0.2239  0.0484
 5956W        W22140   4.491  15.895  15.608  0.0012 -0.0564 -0.1322
 5957W        W22141   4.373  12.128   1.847 -0.1343 -0.1131 -0.0993
 5958W        W22142   0.960  11.158  13.957  0.1953 -0.0933  0.0059
 5959W        W22143   2.679   1.612  13.245  0.2328  0.1471 -0.1509
 5960W        W22144   5.082   5.610  14.118  0.3210  0.1648 -0.0512
 5961W        W22145   3.053  10.821   0.884  0.3134 -0.0954  0.0516
 5962W        W22146   3.778  11.535   0.987 -0.0835 -0.0684  0.1322
 5963W        W22147   0.630   4.604  11.992  0.1088 -0.0760 -0.0736
 5964W        W22148  13.246   4.011   0.632 -0.2965 -0.1789 -0.1203
 5965W        W22149   3.713  16.116   5.176  0.0874 -0.2106  0.2129
 5966W        W22150   6.955   5.513  14.405 -0.3432 -0.0216  0.0829
 5967W        W22151   2.565  11.591   1.354  0.1332  0.4094  0.2103
 5968W        W22152   2.309   8.378  15.510 -0.2542 -0.0518  0.2539
 5969W        W22153  17.309  14.498   0.642 -0.1239 -0.0975  0.0312
 5970W        W22154   1.704   3.944   3.201 -0.2354 -0.3228 -0.1109
 5971W        W22155   0.385   3.152   3.572  0.0369 -0.1015  0.3037
 5972W        W22156   5.252   2.044  11.713 -0.2446  0.5090  0.1476
 5973W        W22157   1.679  13.689   1.557  0.2045 -0.2423  0.0996
 5974W        W22158  11.562  17.548  15.143  0.0946 -0.0240 -0.2014
 5975W        W22159   4.636   4.011  12.992 -0.0628  0.0636  0.2170
 5976W        W22160   4.907  12.707  15.258  0.0572 -0.0197  0.0574
 5977W        W22161  14.266   8.730   5.193 -0.3293  0.0846  0.0577
 5978W        W22162   7.468  14.877   2.335 -0.2367 -0.0410 -0.0894
 5979W        W22163  10.424  11.714  16.086 -0.6316 -0.1370 -0.1167
 5980W        W22164   4.086   0.957   0.039  0.0529 -0.0938  0.1423
 5981W        W22165   4.065   1.143  14.421 -0.2161 -0.1583  0.3164
 5982W        W22166   3.328  15.756  13.804  0.0101  0.1601  0.1791
 5983W        W22167  16.974   6.502   3.592  0.2247 -0.2792  0.0556
 5984W        W22168   3.773   6.713  14.959 -0.3219 -0.1588  0.1329
 5985W        W22169  12.964   5.871  15.029  0.0450  0.1422  0.1404
 5986W        W22170   9.931   1.465   2.567  0.0920 -0.3314  0.2672
 5987W        W22171   4.326  17.130   1.172  0.0798 -0.1439  0.2898
 5988W        W22172  12.437   6.945   2.364  0.1490 -0.0044  0.2052
 5989W        W22173  13.676   0.724  12.240  0.2160 -0.0453 -0.1017
 5990W        W22174  17.348   4.903  14.381  0.0399  0.0877 -0.1224
 5991W        W22175   1.925   7.157   5.092  0.0114  0.2332  0.1187
 5992W        W22176   0.469  14.550  13.725  0.4231  0.0011  0.0299
 5993W        W22177   4.053  15.387  14.200 -0.0250 -0.2761  0.2354
 5994W        W22178  11.852  16.644   4.273  0.1185  0.2212  0.0604
 5995W        W22179   2.129   9.058  14.769 -0.0842  0.0412 -0.3817
 5996W        W22180   5.554  17.442  15.012 -0.1467  0.0347 -0.0561
 5997W        W22181  10.576   5.652  13.052  0.0255  0.0083 -0.2911
 5998W        W22182   9.955   5.677   4.187  0.0331  0.2836  0.0588
 5999W        W22183   8.944   5.335   0.610  0.1220  0.2042  0.2637
 6000W        W22184   9.111  13.325   5.575  0.0009  0.0559  0.3925
 6001W        W22185  14.956   9.660  13.516 -0.0914 -0.2231  0.0275
 6002W        W22186   0.263  13.586  12.264 -0.0889 -0.2758  0.2979
 6003W        W22187   1.247  15.202  13.646 -0.1466  0.1036  0.2149
 6004W        W22188  17.134   1.456  12.284  0.0021 -0.2192 -0.1438
 6005W        W22189   6.169   6.555  13.444  0.0057 -0.0834 -0.0390
 6006W        W22190  11.413   5.356   3.974 -0.2728 -0.2642 -0.1001
 6007W        W22191   7.773  18.224  11.208  0.1997  0.0183 -0.1823
 6008W        W22192   1.302  14.421   0.737  0.0642 -0.2031 -0.1699
 6009W        W22193  10.414  15.052  14.164  0.1835 -0.0460 -0.0958
 6010W        W22194  11.817   6.159  14.229 -0.1248 -0.0679  0.1151
 6011W        W22195   5.686   8.723   5.880  0.2638 -0.0175  0.1057
 6012W        W22196   6.087   6.094  15.873 -0.0152  0.0697  0.2471
 6013W        W22197   5.473   1.835  16.124 -0.0702  0.0448 -0.1183
 6014W        W22198   9.684  13.127  11.884  0.1914  0.0078 -0.1260
 6015W        W22199  14.712  17.310  13.463 -0.0812  0.1095 -0.0705
 6016W        W22200   0.738   5.828   5.225  0.0083  0.0767  0.0086
 6017W        W22201  10.888  12.612  12.496  0.2010  0.0398 -0.0637
 6018W        W22202  17.531   4.457   1.917 -0.0633 -0.1847 -0.0033
 6019W        W22203  11.095   7.813  15.165  0.1057  0.2108  0.1153
 6020W        W22204  16.225  16.491  14.062 -0.1052  0.1855 -0.0614
 6021W        W22205  17.176  15.285   1.491  0.2522 -0.3205 -0.4118
 6022W        W22206   0.876   4.992  15.580  0.1291 -0.1092 -0.3559
 6023W        W22207   3.474  17.169  15.113 -0.1529  0.0493  0.2170
 6024W        W22208  14.585   1.396  15.818  0.0230 -0.1899 -0.0957
 6025W        W22209   1.381   9.396  12.975 -0.1311  0.0787  0.2285
 6026W        W22210   2.572   5.788   0.891  0.0949  0.3685 -0.3271
 6027W        W22211  15.444  14.941   3.444 -0.1770  0.1348 -0.1098
 6028W        W22212  13.005  16.969  14.739  0.1612  0.0531  0.3367
 6029W        W22213   2.423   3.307   3.665  0.4445  0.2498  0.1315
 6030W        W22214   4.880  12.756  13.209 -0.1034  0.0968  0.0675
 6031W        W22215  14.725   3.434  12.682 -0.1030 -0.0205  0.1208
 6032W        W22216  11.522  11.491   1.669  0.0215  0.1858  0.0984
 6033W        W22217   5.554  11.366  14.090 -0.0255  0.3374  0.0825
 6034W        W22218   1.874   2.525   4.342 -0.3234  0.0467  0.0025
 6035W        W22219  17.203  13.287   2.646  0.0348  0.0345 -0.2276
 6036W        W22220  13.617  17.249   4.447  0.0576  0.0596  0.2954
 6037W        W22221  16.850  12.826  14.209  0.3270  0.2789 -0.2282
 6038W        W22222   7.118   5.289   4.134  0.0105 -0.0036 -0.1729
 6039W        W22223   4.649  15.434  13.376 -0.1698 -0.0510  0.1845
 6040W        W22224  15.936   8.431   4.407  0.1574  0.0660  0.2327
 6041W        W22225   3.017  15.279   0.001  0.2048  0.0570 -0.2030
 6042W        W22226  15.991   6.473   2.413 -0.0517 -0.2045 -0.2154
 6043W        W22227  14.119  13.747   1.435  0.0399  0.0454 -0.2580
 6044W        W22228   3.601  11.589  13.159  0.2931 -0.2504  0.1588
 6045W        W22229   1.750  17.766   1.588  0.0996 -0.0971 -0.1215
 6046W        W22230   4.944   3.965   1.101 -0.2139  0.0951  0.0328
 6047W        W22231  15.560  15.501  13.658  0.1097 -0.1802 -0.0093
 6048W        W22232  15.140   3.417  12.466 -0.2682 -0.2025  0.5070
 6049W        W22233   9.214   4.881  14.104  0.5778  0.0249  0.0923
 6050W        W22234   9.135   6.180   5.376 -0.3870  0.0995  0.1483
 6051W        W22235   0.839   9.625  15.057 -0.0960  0.1953 -0.3296
 6052W        W22236   6.810   6.212  11.996  0.0639 -0.2264 -0.1340
 6053W        W22237   5.087  12.986  11.874  0.0053  0.1243  0.2602
 6054W        W22238  14.827   0.760   0.320 -0.3336  0.1295 -0.0494
 6055W        W22239  13.327  17.765   0.257  0.1099  0.1331 -0.3150
 6056W        W22240   6.516  17.041   4.557  0.3845 -0.0151 -0.0303
 6057W        W22241   5.536   6.755   4.211  0.0953 -0.4395 -0.2792
 6058W        W22242  14.075   2.786  14.481 -0.2747  0.1492 -0.0885
 6059W        W22243   0.505   7.400   2.821 -0.2226  0.0007  0.1397
 6060W        W22244  16.321   7.730   3.343  0.1552  0.1232  0.0770
 6061W        W22245  17.970  14.134   4.119  0.0173  0.2114  0.1076
 6062W        W22246   3.236  13.492  14.017  0.1906  0.2142  0.3150
 6063W        W22247   2.552   9.583   5.178  0.1242 -0.3497 -0.0820
 6064W        W22248   9.674   7.092  14.578  0.0367  0.2082  0.1033
 6065W        W22249   3.306  16.674   0.474  0.2624 -0.0196 -0.0004
 6066W        W22250   8.850  13.510   1.433 -0.0300  0.2822 -0.2826
 6067W        W22251   2.612   6.940  12.094 -0.0221 -0.0872  0.4808
 6068W        W22252  13.896  11.671  15.678 -0.0121  0.2849 -0.0215
 6069W        W22253  12.742   2.178  13.719 -0.0280  0.2350  0.0750
 6070W        W22254   6.342   1.193  14.298 -0.0786  0.0666 -0.0972
 6071W        W22255   1.460   9.719  16.029 -0.2532 -0.1021  0.2047
 6072W        W22256  14.482  12.493   0.479  0.0994 -0.0309 -0.3409
 6073W        W22257   2.191  11.252  10.908  0.1089  0.1791 -0.0526
 6074W        W22258   2.269  16.605   3.431  0.2498 -0.2053  0.0147
 6075W        W22259  10.218   1.015   4.275  0.0118 -0.1560  0.0516
 6076W        W22260   4.513  10.428   3.628 -0.2347 -0.2847 -0.4609
 6077W        W22261  14.119  12.157  13.170 -0.0398 -0.1682  0.1559
 6078W        W22262  15.062   8.945   4.093  0.2254  0.0813  0.1303
 6079W        W22263  14.813   7.855  11.785 -0.0252  0.1462 -0.0612
 6080W        W22264  10.733   8.135  14.969 -0.1919  0.1056 -0.1967
 6081W        W22265   2.982   5.312  11.023 -0.0662 -0.3780  0.1331
 6082W        W22266  18.488   3.910   1.257 -0.2629  0.0917 -0.0920
 6083W        W22267  12.246   0.385   3.310 -0.0935 -0.0652 -0.1863
 6084W        W22268   5.973  10.108  14.539  0.1751 -0.0979  0.1682
 6085W        W22269  13.627  10.244   2.244  0.2049 -0.0655 -0.0686
 6086W        W22270   8.065  11.748   0.642 -0.1233  0.2056 -0.3044
 6087W        W22271   3.433  10.565   5.081  0.3160 -0.1243  0.1972
 6088W        W22272   6.755   4.131  14.711  0.0720 -0.0045 -0.0270
 6089W        W22273  17.618  13.749   4.296  0.1419 -0.3927  0.0189
 6090W        W22274   8.318  16.802  12.436 -0.1359 -0.0614 -0.0005
 6091W        W22275  15.298   0.977  14.339 -0.0560  0.0126  0.2145
 6092W        W22276  17.959   3.781   2.641  0.1272 -0.2068 -0.0153
 6093W        W22277   6.438  13.237   4.583  0.2760  0.2698  0.3502
 6094W        W22278   2.920  16.205  13.423 -0.0617  0.1124  0.1880
 6095W        W22279   6.636   4.367  12.604 -0.0759  0.1282 -0.0133
 6096W        W22280   6.649  15.647   4.856 -0.0405 -0.0712  0.3418
 6097W        W22281  17.014  10.836  11.084  0.3669  0.1400  0.0269
 6098W        W22282   8.472  14.171   0.148 -0.1398 -0.1978  0.1441
 6099W        W22283   4.262   2.648   4.321  0.2929 -0.2500  0.0800
 6100W        W22284  18.214   4.565  13.797  0.2053  0.0300  0.1291
 6101W        W22285  16.120   4.018  10.464  0.1707  0.0153  0.2269
 6102W        W22286  18.246  17.949   2.229  0.4069  0.3748  0.4573
 6103W        W22287   8.558   4.564   3.728 -0.1022  0.0089 -0.3664
 6104W        W22288   1.231   9.195  15.070  0.2134  0.0599  0.2383
 6105W        W22289  14.472  12.716  13.827  0.1320  0.5077  0.1852
 6106W        W22290  14.934   8.320  12.462 -0.3130 -0.4512  0.2951
 6107W        W22291   5.951   4.508  14.185 -0.0784  0.0491  0.2511
 6108W        W22292   7.160   3.994  12.604 -0.2458 -0.2293 -0.0770
 6109W        W22293   7.405  13.024   5.784 -0.2812  0.3709 -0.2440
 6110W        W22294   8.385  18.474   0.582  0.1096 -0.1279  0.1887
 6111W        W22295   1.095  16.463   1.907 -0.0219  0.0995  0.2676
 6112W        W22296  10.763   4.362   4.940 -0.0365 -0.0205  0.0634
 6113W        W22297   3.430  13.010  11.549 -0.2784 -0.3059  0.0877
 6114W        W22298  13.141  16.518  13.325  0.2894 -0.3175  0.1634
 6115W        W22299  13.618  11.456   3.847 -0.1512 -0.1154  0.2897
 6116W        W22300  17.994   4.920  15.992  0.2216  0.2026 -0.1134
 6117W        W22301   5.681   9.907  14.145  0.0129 -0.0635 -0.3733
 6118W        W22302   5.884   7.229  12.354 -0.0970  0.0735 -0.0830
 6119W        W22303   0.639   7.803   0.728 -0.0653 -0.2153 -0.0093
 6120W        W22304  18.117  11.538   4.667 -0.1787  0.1323 -0.1095
 6121W        W22305  10.802   7.948  15.496 -0.0662 -0.0907  0.1810
 6122W        W22306  17.464   3.544   4.610  0.1393 -0.0623 -0.0250
 6123W        W22307  16.167   0.447  13.512 -0.0873  0.3932 -0.1433
 6124W        W22308   2.016  16.485  11.867 -0.2525  0.0924 -0.0572
 6125W        W22309  17.599   5.910   3.155  0.1265  0.2597 -0.1935
 6126W        W22310   6.104   6.988  15.300 -0.3808  0.1576  0.0596
 6127W        W22311  16.479   8.056   5.536 -0.2429  0.0415  0.1114
 6128W        W22312  17.677   7.559  12.273  0.1113 -0.1345  0.0004
 6129W        W22313  17.043  16.804  14.740 -0.2004  0.0490  0.0523
 6130W        W22314   9.456   7.045  15.384  0.0324  0.2091 -0.0415
 6131W        W22315  16.526  16.237   4.971 -0.0895  0.2950 -0.0366
 6132W        W22316   9.490  13.663  15.984  0.2870  0.2429 -0.0766
 6133W        W22317  10.297   7.213   2.311  0.2115  0.1067  0.3254
 6134W        W22318   9.438  11.663   2.954  0.0855  0.1931  0.1335
 6135W        W22319   7.595   0.759   3.159 -0.1309 -0.0612  0.1048
 6136W        W22320  16.744  16.790  10.586  0.0400  0.2473  0.0164
 6137W        W22321  12.954   9.610  10.974 -0.5811  0.0317 -0.0131
 6138W        W22322  11.948  14.145   0.600  0.0070  0.3186 -0.0555
 6139W        W22323   8.106   1.214   6.452 -0.0152 -0.1522  0.1230
 6140W        W22324   7.512  17.789  14.088  0.3222 -0.0382 -0.1072
 6141W        W22325   1.156  17.836  15.840 -0.0176  0.3250 -0.1523
 6142W        W22326   8.651  10.530  12.454 -0.0651  0.2395 -0.3399
 6143W        W22327   9.793  11.490   3.834 -0.1014  0.0290  0.0503
 6144W        W22328  13.428  15.410  14.170  0.0935  0.0491  0.1894
 6145W        W22329   7.350  11.522  13.251  0.5486 -0.3412 -0.1059
 6146W        W22330   0.060   0.550   1.712 -0.0551 -0.0994 -0.1292
 6147W        W22331   6.573   5.292   0.652  0.1538  0.1941  0.3865
 6148W        W22332   7.258  13.230   3.763 -0.0692 -0.0211 -0.2395
 6149W        W22333  16.775   3.810   3.264  0.0235 -0.0149  0.2347
 6150W        W22334   8.104   6.477  13.133  0.0799  0.0245 -0.0860
 6151W        W22335  12.380  16.866  11.934  0.1638 -0.0250  0.2595
 6152W        W22336   3.702  18.444   0.612 -0.0994  0.2149  0.2827
 6153W        W22337   7.875   8.335  11.802  0.0979  0.2167  0.2396
 6154W        W22338  10.794  13.832   3.094  0.1770  0.0844 -0.0779
 6155W        W22339   0.984   7.262  15.247  0.0076 -0.0957  0.0617
 6156W        W22340  18.504   0.570   9.645 -0.0919 -0.1769 -0.1058
 6157W        W22341   2.228   6.887  13.077 -0.1086 -0.3393  0.2263
 6158W        W22342  10.810  10.818  14.825  0.2963 -0.0743 -0.3279
 6159W        W22343  10.155   0.941  12.625 -0.0820 -0.0754  0.2434
 6160W        W22344   7.644   1.965  11.360  0.1642  0.1580 -0.1061
 6161W        W22345  12.220  16.417   5.170 -0.0350 -0.1557 -0.3877
 6162W        W22346  14.487  15.344   2.826 -0.0263 -0.2451 -0.0274
 6163W        W22347  11.005  12.176   4.404  0.1509 -0.1108 -0.3889
 6164W        W22348  14.372  12.110  15.871 -0.0747 -0.2254  0.0532
 6165W        W22349   3.032   8.765   4.527 -0.4749  0.0310 -0.2498
 6166W        W22350   8.442  15.466  14.528  0.2017 -0.1118 -0.0802
 6167W        W22351  11.256   1.033   1.180 -0.1426  0.0732 -0.2828
 6168W        W22352   7.511  16.605  12.733 -0.1847 -0.0360 -0.0319
 6169W        W22353  13.642  18.012   1.855  0.1718  0.0883 -0.1465
 6170W        W22354   9.108  15.194  10.899  0.0328 -0.2524  0.0982
 6171W        W22355   8.819   4.222   4.041 -0.1077 -0.2075 -0.0382
 6172W        W22356   7.581   0.937   4.044  0.2370  0.0585  0.0272
 6173W        W22357   4.334   9.539   4.543  0.0935 -0.3209  0.0381
 6174W        W22358  13.246  13.183  15.008  0.1370  0.2373  0.4111
 6175W        W22359  12.670   1.257  14.004  0.2120  0.0409  0.3457
 6176W        W22360  14.241   7.838   4.147  0.0804  0.1362  0.1860
 6177W        W22361  16.034   8.073  13.619  0.2467  0.1057 -0.1573
 6178W        W22362  12.405  12.091   0.050 -0.3197 -0.5005  0.2760
 6179W        W22363   2.781   7.516   0.881  0.0166  0.1259  0.1733
 6180W        W22364   8.657  14.077   3.942 -0.2819  0.0015 -0.2556
 6181W        W22365   2.571  16.561  14.616 -0.0568  0.1138 -0.0721
 6182W        W22366  14.585  11.085  12.066 -0.1198  0.1124 -0.2822
 6183W        W22367  15.937  11.958  16.063  0.0151  0.2257  0.1342
 6184W        W22368  15.500   4.568   4.310 -0.1571 -0.0969  0.0712
 6185W        W22369   6.936  16.269   4.150  0.0871 -0.2384 -0.0401
 6186W        W22370  17.960   5.494  12.805  0.0723 -0.0293 -0.1731
 6187W        W22371  15.854   3.777  11.633  0.3085  0.0272  0.3582
 6188W        W22372   0.076   2.047   1.287  0.0399  0.1984  0.3555
 6189W        W22373  16.288   0.720  11.648  0.0141 -0.3119  0.2320
 6190W        W22374   1.116  13.822   1.649 -0.4685 -0.1474  0.0133
 6191W        W22375   0.886   5.411   4.491  0.3328  0.2712 -0.2399
 6192W        W22376  15.672   5.954   0.340 -0.1877 -0.2030 -0.0272
 6193W        W22377  12.200   4.254  15.399  0.1289  0.2379  0.0447
 6194W        W22378  18.185   5.860   4.696  0.0513 -0.0338  0.1415
 6195W        W22379  10.649  16.701  13.047 -0.1658  0.0088 -0.0447
 6196W        W22380  14.527  15.987   3.879  0.1078 -0.1490  0.0033
 6197W        W22381  18.390   0.946  16.010 -0.0241 -0.1978  0.0989
 6198W        W22382   5.360   4.907  15.833 -0.0641 -0.0441 -0.1705
 6199W        W22383   0.956  10.787  11.036  0.1517  0.0228  0.1073
 6200W        W22384   4.173   3.866  13.139 -0.0662  0.1769 -0.0416
 6201W        W22385  17.188  16.009  12.027 -0.0727  0.3487 -0.2552
 6202W        W22386  14.416  10.120  14.914  0.2690 -0.0480 -0.4489
 6203W        W22387   8.132   0.152   1.945  0.0806 -0.0642  0.2003
 6204W        W22388   9.426   4.250  13.731 -0.0895 -0.0166 -0.2498
 6205W        W22389   8.921   7.044   1.987  0.0091 -0.3055 -0.0558
 6206W        W22390   2.076   2.372   2.039 -0.1995  0.0009  0.0179
 6207W        W22391   0.760  11.654  12.985  0.0758 -0.1601 -0.1092
 6208W        W22392  13.030  16.585   4.681 -0.0921  0.0374  0.2841
 6209W        W22393   9.834   4.677   4.359  0.0531 -0.2571  0.1936
 6210W        W22394   5.412  14.886   0.911 -0.4390 -0.1206 -0.0116
 6211W        W22395  16.869   4.739  13.113  0.1594 -0.3218  0.1466
 6212W        W22396   5.586   1.554   4.081  0.0995  0.0073 -0.2864
 6213W        W22397  15.539   3.623  12.091  0.0785 -0.1110  0.0262
 6214W        W22398   7.185  15.805   1.474 -0.1507 -0.1986 -0.2284
 6215W        W22399  11.751  15.456   2.597  0.3096 -0.0786  0.0710
 6216W        W22400   6.076   4.032   2.357  0.2624 -0.2301 -0.0081
 6217W        W22401   8.968   2.565  13.026 -0.2250 -0.2195 -0.1169
 6218W        W22402   6.270  14.461   3.958  0.2061 -0.0891  0.2923
 6219W        W22403  11.601  15.789   4.579  0.1000 -0.1382 -0.0539
 6220W        W22404  17.181  17.769   0.562 -0.1450 -0.1851 -0.1630
 6221W        W22405  15.674  17.144   1.110  0.1012  0.0245  0.2477
 6222W        W22406  16.353   5.490  15.563  0.2387 -0.0328  0.2290
 6223W        W22407   6.697  14.676  14.647  0.0427 -0.3493  0.0832
 6224W        W22408   0.102   6.698   4.476 -0.1745  0.0231 -0.3036
 6225W        W22409   1.671  13.438  15.634 -0.2724  0.1206  0.3949
 6226W        W22410  15.033  10.002  15.171  0.0151 -0.2290  0.1517
 6227W        W22411   9.902   4.130   5.469 -0.0747  0.0974 -0.1985
 6228W        W22412   9.425  16.832  13.253  0.0919 -0.1455 -0.0763
 6229W        W22413   4.106   2.952  15.685 -0.0120 -0.0889 -0.1242
 6230W        W22414  10.082  16.210  14.518 -0.0450 -0.2312 -0.0084
 6231W        W22415   2.801   5.877   2.362  0.1314  0.0794 -0.2018
 6232W        W22416   7.106  18.194  12.488 -0.1697  0.2636  0.0037
 6233W        W22417   0.940  11.625  11.724  0.2176 -0.2718  0.0317
 6234W        W22418   9.738   0.255  11.389 -0.1046  0.0543 -0.2064
 6235W        W22419  12.849  10.317   0.360 -0.1361  0.0219  0.1140
 6236W        W22420  10.696   8.935  12.927  0.2204 -0.0484 -0.1218
 6237W        W22421  12.892  16.890   3.836  0.1108  0.1474  0.0534
 6238W        W22422   4.390   6.876  15.847 -0.1208  0.0472  0.1149
 6239W        W22423   2.237  14.852   2.861 -0.2014  0.1221 -0.0044
 6240W        W22424  17.872  10.661  13.045 -0.2913 -0.2271  0.3040
 6241W        W22425   9.248   6.685   2.170 -0.0834 -0.2507  0.1521
 6242W        W22426   0.491  13.514   5.445 -0.0039  0.0408  0.0325
 6243W        W22427   1.523   7.092   0.373 -0.0948  0.0921 -0.0463
 6244W        W22428  12.332  12.040  15.717 -0.0803 -0.1541 -0.1234
 6245W        W22429  12.307   1.715  14.290 -0.1654  0.3660 -0.0490
 6246W        W22430   9.021   9.447   0.404 -0.1639 -0.0402 -0.3819
 6247W        W22431   0.385   7.568   4.723  0.0325  0.0099  0.3114
 6248W        W22432   8.177   4.956  13.749  0.1156 -0.4296  0.0557
 6249W        W22433  17.022  13.447   1.916 -0.0104  0.0197  0.0772
 6250W        W22434   8.612   4.616   3.230  0.1354 -0.0303 -0.1215
 6251W        W22435   2.829  15.417   4.388 -0.0191 -0.0115  0.0436
 6252W        W22436  10.316  14.506   4.737 -0.0510 -0.1311  0.0031
 6253W        W22437   8.888   2.521  14.777  0.1776 -0.2083 -0.0960
 6254W        W22438   3.281  10.310  13.322 -0.3954  0.0802 -0.0085
 6255W        W22439  18.061   2.765  11.916  0.0904 -0.0053 -0.0136
 6256W        W22440   1.250   5.007   4.471  0.0735 -0.1997  0.2619
 6257W        W22441   3.117  10.107  14.262 -0.2897  0.0105 -0.0884
 6258W        W22442  17.677   2.298  13.024  0.2679  0.4302 -0.1557
 6259W        W22443  14.945   1.990  13.261 -0.2884  0.0870 -0.1311
 6260W        W22444  12.878  16.950  13.015 -0.0465 -0.0198 -0.2109
 6261W        W22445   4.719  18.097   0.246 -0.0762 -0.2904  0.2004
 6262W        W22446   9.853   8.006  15.799  0.0273  0.0459 -0.3150
 6263W        W22447  16.446  11.140  12.394  0.1017 -0.2309  0.3841
 6264W        W22448   3.453   4.500  11.058 -0.0020 -0.0129  0.0053
 6265W        W22449  11.955  13.789   4.139 -0.3563 -0.0181  0.0157
 6266W        W22450  12.624   2.441   4.227 -0.1411 -0.0363  0.1754
 6267W        W22451   8.548   8.336  10.251 -0.0026  0.1435  0.1012
 6268W        W22452   2.435   6.531  12.307  0.2049  0.0569 -0.2255
 6269W        W22453   6.341  12.105  16.123 -0.0866 -0.1591 -0.0181
 6270W        W22454  17.109  13.868   3.385  0.3545  0.0465  0.0052
 6271W        W22455  15.121  12.042  14.485 -0.0877  0.2119  0.1162
 6272W        W22456   4.654  10.910   6.422  0.0627 -0.1926 -0.0157
 6273W        W22457   4.162   7.519   4.881  0.0628  0.3780  0.1920
 6274W        W22458  12.570  10.547   3.170 -0.1501  0.1379 -0.0851
 6275W        W22459  15.382  14.321   1.330  0.0410  0.3173 -0.0001
 6276W        W22460   8.535   3.814  13.192  0.1259 -0.1489 -0.0037
 6277W        W22461  15.825   7.098  12.012 -0.1248 -0.0784 -0.0084
 6278W        W22462   9.926   8.055  12.153  0.0860  0.1474  0.1777
 6279W        W22463   3.821   8.218  15.793  0.0739 -0.0925  0.1273
 6280W        W22464   8.864   9.794   3.065  0.0865 -0.1818 -0.0536
 6281W        W22465  11.265   0.899  14.163  0.0845  0.1685  0.2974
 6282W        W22466   2.400   2.947  12.684 -0.1981 -0.1375  0.2399
 6283W        W22467  12.841   9.751   2.966 -0.2401 -0.1866 -0.1521
 6284W        W22468   6.477   7.848   3.455  0.2868 -0.1592 -0.6287
 6285W        W22469   1.518   7.556   2.136 -0.1456  0.1759  0.0211
 6286W        W22470   7.265  15.006   4.313  0.2100  0.1447 -0.3909
 6287W        W22471  17.310  15.346  14.363  0.0911  0.2379 -0.2353
 6288W        W22472   5.721   4.813  13.099  0.2850  0.0270 -0.2251
 6289W        W22473  11.811   2.448  11.447  0.0096 -0.0729  0.0441
 6290W        W22474   3.467  17.463  14.660 -0.0340  0.1478  0.1983
 6291W        W22475  18.064  13.279   0.156  0.2090  0.0400 -0.0325
 6292W        W22476   4.649   0.171   1.806  0.0431  0.1118 -0.2580
 6293W        W22477   7.150  10.479  11.809 -0.0965  0.2445 -0.1141
 6294W        W22478  11.435  17.254  13.445 -0.1029 -0.1108  0.0776
 6295W        W22479  18.035   9.744   4.605 -0.2247  0.0217 -0.3201
 6296W        W22480   7.642  12.634  12.956 -0.2889 -0.2927  0.1927
 6297W        W22481   4.549  10.450   4.179  0.0253  0.1762 -0.0270
 6298W        W22482   8.381  12.528  11.716 -0.3345 -0.1621  0.2801
 6299W        W22483   7.566  18.138  10.776  0.1754  0.1404  0.0193
 6300W        W22484   2.832  18.065  11.195 -0.0141  0.0157 -0.1698
 6301W        W22485  16.829  11.550  12.572 -0.0665 -0.3145 -0.1080
 6302W        W22486  11.576   0.116   4.862 -0.1379 -0.1835 -0.2208
 6303W        W22487   2.964   8.062   0.921 -0.0087  0.2564 -0.0019
 6304W        W22488  12.556  13.534  12.996  0.3128 -0.3108 -0.3826
 6305W        W22489   6.192   8.934  14.463 -0.1492  0.0448  0.3890
 6306W        W22490   1.476  12.669   4.696  0.1125 -0.0585 -0.1697
 6307W        W22491  18.019   0.465  12.200 -0.1766  0.1711  0.1832
 6308W        W22492   1.278  17.416  10.655  0.1790 -0.2137  0.1045
 6309W        W22493  17.583   0.387   3.440 -0.1142 -0.1010  0.1495
 6310W        W22494   7.385  13.574   2.791  0.2932 -0.0501 -0.0407
 6311W        W22495   0.106   3.654   0.397  0.4655  0.1097  0.0263
 6312W        W22496  13.579  18.122  15.612  0.1853  0.2775  0.4280
 6313W        W22497   0.166   6.995   1.820 -0.1524  0.3423  0.4749
 6314W        W22498  17.654  13.425  13.364  0.3064 -0.0358  0.0860
 6315W        W22499   3.744   7.968  12.909 -0.3460  0.4120 -0.0398
 6316W        W22500   1.656   9.918  15.063  0.0020 -0.1666 -0.3740
 6317W        W22501   2.208  12.829   1.983  0.0374 -0.0866  0.0177
 6318W        W22502  11.457   7.473   4.909  0.0944 -0.1831 -0.0834
 6319W        W22503  16.873  14.534  10.867  0.0692 -0.0077  0.1272
 6320W        W22504   1.191  12.388  12.826  0.0211  0.1707 -0.0919
 6321W        W22505  17.953  10.538   1.064  0.1595 -0.2664 -0.0081
 6322W        W22506  12.175  12.813   4.251 -0.3353  0.0892 -0.3015
 6323W        W22507   5.963   4.147  14.585 -0.0836 -0.0307 -0.0192
 6324W        W22508  13.629   4.337   5.044  0.4015  0.2460  0.3248
 6325W        W22509  18.070   2.587  13.942  0.0349 -0.0569  0.1063
 6326W        W22510  14.040  18.345  12.169  0.0225  0.0951 -0.3476
 6327W        W22511   1.676  17.592   2.948  0.1810 -0.1392 -0.1674
 6328W        W22512  11.210   3.968   3.465  0.1214 -0.0816  0.3336
 6329W        W22513  12.653   4.711  12.095  0.2165 -0.1552 -0.0705
 6330W        W22514   3.537   7.811  15.918 -0.1163  0.2475 -0.1237
 6331W        W22515  16.306   3.673   5.672  0.0607  0.1818 -0.0947
 6332W        W22516  17.026   3.547  16.027  0.0932  0.0250  0.0636
 6333W        W22517  16.081  10.152   3.246  0.0821  0.4850 -0.2864
 6334W        W22518  11.880   3.803  11.964 -0.1723  0.0585  0.2372
 6335W        W22519   8.909   8.210  15.411  0.0230  0.1054  0.0350
 6336W        W22520   0.755  14.279   4.169  0.0795  0.3956 -0.1630
 6337W        W22521  12.196   9.407  15.059 -0.1817  0.3135 -0.1304
 6338W        W22522  16.390   9.480  11.291 -0.1975  0.0099  0.2510
 6339W        W22523  10.335   3.638  14.500  0.2466 -0.0555 -0.0260
 6340W        W22524  13.616   6.630   4.384  0.1804 -0.4156  0.2015
 6341W        W22525  11.951  10.441  13.007  0.1924 -0.2201 -0.0183
 6342W        W22526  12.489   9.028   4.681 -0.2081 -0.0930 -0.0414
 6343W        W22527   4.072   7.344   1.292  0.0118  0.1045 -0.3780
 6344W        W22528   4.626   8.512  12.601 -0.0054  0.0619  0.0792
 6345W        W22529  15.795   6.683   2.882 -0.2949 -0.0688 -0.0894
 6346W        W22530   6.299   0.101   4.368  0.1743 -0.1282  0.2572
 6347W        W22531   6.689  18.217  15.642 -0.1754  0.3548 -0.3204
 6348W        W22532   5.279   8.149  14.428 -0.0462  0.0949  0.1124
 6349W        W22533   2.365  17.654  12.584 -0.0506  0.2173  0.2464
 6350W        W22534  17.632  11.977  11.747  0.0208 -0.2299  0.1253
 6351W        W22535  10.490   8.109  12.743 -0.2876  0.0995  0.1720
 6352W        W22536   5.890   4.020   4.866  0.1518  0.2040  0.2637
 6353W        W22537   9.226   7.222  11.956  0.3471 -0.0611  0.1252
 6354W        W22538  18.511  12.425  13.601  0.2897  0.2527  0.0873
 6355W        W22539  17.707  13.483   0.833  0.3380  0.0750 -0.0864
 6356W        W22540   3.393   9.487  16.119  0.0708  0.2167 -0.3382
 6357W        W22541   7.017  16.879   4.690 -0.2694  0.1349  0.2224
 6358W        W22542  11.667  11.327   2.376 -0.0209  0.1762  0.3501
 6359W        W22543   1.979  15.715   4.824 -0.0631  0.1383 -0.0857
 6360W        W22544   9.964  11.578  14.889  0.0067 -0.1400  0.0023
 6361W        W22545  17.527  13.683   3.641  0.1438 -0.1614 -0.1449
 6362W        W22546  12.794  10.516  12.232 -0.0977 -0.4144 -0.1023
 6363W        W22547   1.691   9.619  11.799  0.1018  0.3513 -0.2445
 6364W        W22548   4.213   9.956  11.632  0.2071  0.3146 -0.2490
 6365W        W22549   4.867   1.086   2.338 -0.2958 -0.5132  0.0233
 6366W        W22550  13.303   9.580  14.591 -0.2019  0.2277 -0.0715
 6367W        W22551  18.499  18.195  14.324  0.2645  0.0395  0.2979
 6368W        W22552   8.721   7.911  11.551 -0.0390  0.0449  0.2062
 6369W        W22553  16.711   3.349  12.839  0.1028 -0.1661 -0.0682
 6370W        W22554   3.216  13.309   4.477  0.1296 -0.1180  0.5083
 6371W        W22555   4.317  15.415  16.011 -0.1900 -0.0680 -0.0103
 6372W        W22556  17.299   9.988   1.314  0.2143 -0.1907  0.1874
 6373W        W22557   8.621   7.830  15.179  0.0178  0.1599 -0.3608
 6374W        W22558   8.590   2.535  11.146 -0.3046 -0.3365  0.0006
 6375W        W22559   0.827   0.124   5.441 -0.0864 -0.2759 -0.2785
 6376W        W22560  12.192   3.408  11.945 -0.1031  0.0522 -0.0198
 6377W        W22561   4.579  14.513   0.299  0.2106 -0.0813  0.0563
 6378W        W22562  15.932  18.189  14.158  0.1514 -0.0996 -0.0680
 6379W        W22563  17.326   6.000   2.291  0.0703 -0.2525  0.2990
 6380W        W22564   9.601  11.843  15.232 -0.2960 -0.0672 -0.2824
 6381W        W22565  11.525   9.488  12.973 -0.1463  0.2386 -0.1872
 6382W        W22566  11.156   2.492   5.212  0.0103 -0.1835 -0.0419
 6383W        W22567   8.686   4.402  11.635 -0.0693  0.1677 -0.0248
 6384W        W22568   0.153   9.619  13.848 -0.1015 -0.2146 -0.0234
 6385W        W22569   2.389  11.004   4.275 -0.0852 -0.0108 -0.3766
 6386W        W22570   1.579   9.536   0.394 -0.3709  0.0291 -0.1753
 6387W        W22571  10.653  18.350   3.079 -0.1448  0.0553  0.1520
 6388W        W22572  17.963   8.238   5.883 -0.3530 -0.1060 -0.0901
 6389W        W22573  10.180   3.435   5.100 -0.0331 -0.3118  0.0785
 6390W        W22574   7.226   0.013   0.141  0.0728 -0.0063 -0.0163
 6391W        W22575   9.066   1.197  13.000  0.2312  0.0067 -0.1869
 6392W        W22576  15.035  15.611  14.498 -0.4475  0.4053 -0.0173
 6393W        W22577   4.892   0.646  10.943 -0.0055  0.3526  0.2763
 6394W        W22578  16.437  17.438  15.543  0.1726  0.0664  0.2163
 6395W        W22579  12.308  16.442  11.551 -0.2708 -0.2456 -0.0132
 6396W        W22580   3.629  13.339  11.023  0.1328  0.0361 -0.2364
 6397W        W22581  17.521   7.668  13.724  0.0112  0.0497 -0.2206
 6398W        W22582  16.144  15.758   5.359 -0.5110 -0.0818 -0.0984
 6399W        W22583   4.835  10.775   3.850 -0.4251  0.1973 -0.3064
 6400W        W22584  10.581   1.326  14.861  0.0401  0.0651 -0.1764
 6401W        W22585  14.752  10.401   1.807 -0.1544 -0.2289  0.0730
 6402W        W22586  17.019   6.146   1.283 -0.1241 -0.2079  0.2284
 6403W        W22587  10.793   1.387  16.030  0.2708 -0.0965 -0.2368
 6404W        W22588   2.444   4.782   6.002  0.2864  0.1736  0.0067
 6405W        W22589  18.067   0.527  11.356 -0.0197 -0.0604  0.0445
 6406W        W22590  17.193  15.157   2.579  0.0562 -0.1178 -0.1037
 6407W        W22591  15.983   8.919   0.604 -0.3816 -0.3489 -0.2628
 6408W        W22592  17.809  18.116  13.716  0.1035 -0.2019 -0.1508
 6409W        W22593   6.033  17.521  13.816 -0.0224  0.2333 -0.1299
 6410W        W22594  15.609   7.364  14.803  0.0021 -0.0518 -0.2888
 6411W        W22595   8.110  11.637  13.941 -0.0114  0.1794 -0.1982
 6412W        W22596  17.669   9.657  11.740 -0.1165  0.3933  0.2832
 6413W        W22597  14.492   1.777  10.983 -0.0727  0.0460  0.1340
 6414W        W22598   9.188  11.589  15.078  0.0473 -0.3479 -0.0841
 6415W        W22599  16.554  11.985  15.767 -0.1043  0.0858 -0.1084
 6416W        W22600  11.576   7.017   2.553  0.3402 -0.0210 -0.1051
 6417W        W22601   3.398   5.125  12.771 -0.2247  0.1218  0.0813
 6418W        W22602  11.096   9.578   1.908 -0.0621 -0.2061 -0.1494
 6419W        W22603   2.915  13.547  14.570  0.0298 -0.0378  0.1156
 6420W        W22604  14.758  15.232   3.223  0.0076  0.0879 -0.0301
 6421W        W22605   8.393  10.033   1.621  0.3075  0.1853  0.1772
 6422W        W22606   9.274  15.267   2.727 -0.3086  0.2581 -0.0460
 6423W        W22607  13.619  16.967   0.953 -0.1561 -0.3161 -0.1158
 6424W        W22608   6.745   3.241  15.799 -0.0796  0.1264  0.4900
 6425W        W22609   7.785   6.592  14.681 -0.1618  0.0206  0.2640
 6426W        W22610   9.525   9.533   5.709 -0.0914 -0.2461  0.2111
 6427W        W22611   0.994   3.612   2.736 -0.4176  0.1872 -0.5708
 6428W        W22612  10.632  12.665   5.831  0.2304  0.4280  0.0642
 6429W        W22613   7.170   7.956   5.103 -0.3097 -0.2689 -0.1585
 6430W        W22614   8.178  10.877  13.133 -0.0054 -0.1004  0.0588
 6431W        W22615   4.149  17.843  14.998  0.1371  0.0360  0.0543
 6432W        W22616   5.087  11.409   0.877  0.2853 -0.2711 -0.3439
 6433W        W22617   1.056  12.992   2.179 -0.1648 -0.4295 -0.0752
 6434W        W22618  12.261   2.827  15.313  0.2304 -0.1442  0.0876
 6435W        W22619  18.230  10.139  14.592  0.2771 -0.0068 -0.0254
 6436W        W22620  14.998  15.965  12.313 -0.0984  0.1388  0.0832
 6437W        W22621  10.909  12.296  13.003 -0.2530  0.0803 -0.2127
 6438W        W22622  12.579   3.228  15.756  0.0081 -0.2154  0.0454
 6439W        W22623  17.268   8.692  10.550 -0.0450 -0.1682  0.1683
 6440W        W22624  11.337  11.118   0.149  0.2131  0.0324  0.1330
 6441W        W22625  16.120   5.436  13.300 -0.1012 -0.0392  0.0120
 6442W        W22626   4.154  12.214  15.282  0.0681 -0.0069  0.3797
 6443W        W22627   8.114  18.457   4.772  0.0334  0.4456 -0.3714
 6444W        W22628  12.448  12.485  15.937 -0.1805  0.1724 -0.1773
 6445W        W22629   2.066   9.390   2.564 -0.1090  0.0412 -0.1091
 6446W        W22630  11.027   2.970  15.303 -0.2063  0.0578  0.1190
 6447W        W22631  17.221  15.300   0.666 -0.1849  0.1626 -0.0665
 6448W        W22632   0.347  13.048   3.138  0.2451  0.0957 -0.0481
 6449W        W22633  15.844   3.354   0.979 -0.2099 -0.1667  0.0218
 6450W        W22634   9.988  10.320   2.476  0.1605 -0.0499  0.1726
 6451W        W22635   6.728   5.557   5.149 -0.0520 -0.0858  0.0606
 6452W        W22636   0.619  11.023   5.728  0.0821 -0.1893  0.1055
 6453W        W22637   5.357  13.737   2.068 -0.0752 -0.1437  0.3886
 6454W        W22638   5.105   9.640   4.691  0.4021  0.1798 -0.0367
 6455W        W22639   7.058  14.294   5.634 -0.2752  0.2346 -0.1127
 6456W        W22640  14.919   4.639   5.029 -0.1875  0.1216  0.0270
 6457W        W22641   2.409  15.533  13.802  0.2114  0.2457 -0.1388
 6458W        W22642  10.807   5.783   0.191  0.1187  0.2862 -0.0568
 6459W        W22643   1.146  14.985   5.229 -0.1534 -0.0281 -0.1954
 6460W        W22644  10.320   8.978  15.093 -0.1187  0.0331  0.0027
 6461W        W22645   8.744   3.279   1.348  0.1060  0.1856 -0.3422
 6462W        W22646  14.547   3.828  12.973 -0.4731 -0.1300 -0.3802
 6463W        W22647  10.829   2.993  13.955  0.0300 -0.1616  0.1832
 6464W        W22648   4.163  18.448   3.482 -0.2018  0.1280  0.0166
 6465W        W22649   8.009   7.268   1.147  0.1492 -0.2214 -0.0090
 6466W        W22650   2.792   3.737   1.735  0.1384 -0.0568  0.0238
 6467W        W22651   6.010   6.036   1.549  0.2887  0.0203 -0.0188
 6468W        W22652   3.481   2.070   4.683 -0.1182  0.2552  0.2568
 6469W        W22653  15.710  16.145   4.501  0.0295 -0.1805 -0.3747
 6470W        W22654   2.602   2.590  11.462  0.0177  0.1337  0.2665
 6471W        W22655   6.159   9.001  13.594 -0.3331  0.2264 -0.0224
 6472W        W22656  17.534  11.122  14.503  0.1151 -0.0041  0.0806
 6473W        W22657   9.749  16.993  13.963  0.0778 -0.0466 -0.0225
 6474W        W22658   3.720   5.698  15.887  0.1785 -0.2805 -0.3773
 6475W        W22659  11.544   2.552   2.684 -0.0896 -0.0058  0.0972
 6476W        W22660  16.715   1.415   5.287  0.3138  0.2615  0.1489
 6477W        W22661   2.228  17.570   2.339 -0.0756  0.0940 -0.1536
 6478W        W22662  17.309   4.440   3.003  0.1089 -0.2953  0.0163
 6479W        W22663   4.988   1.948   1.432 -0.0271 -0.0754  0.2200
 6480W        W22664   4.227  15.944  12.550  0.1814 -0.1388  0.0064
 6481W        W22665   0.928  15.620   2.155  0.1502 -0.0953 -0.0861
 6482W        W22666   7.865  13.840   2.980  0.1398 -0.5296 -0.0981
 6483W        W22667   0.605   7.307   3.872 -0.1221 -0.0042  0.1003
 6484W        W22668   4.700   2.567   3.320  0.1861  0.2735  0.3242
 6485W        W22669  12.083  17.474  11.574  0.0596 -0.3845 -0.1703
 6486W        W22670  12.588   1.593  12.752  0.0377  0.0431  0.1824
 6487W        W22671   2.832  12.684  14.034 -0.0286 -0.4467 -0.1789
 6488W        W22672  13.515  10.692  14.220  0.0143 -0.1959 -0.0679
 6489W        W22673   3.437  10.785  15.864 -0.0320  0.1308 -0.1444
 6490W        W22674  18.223   7.961   0.430 -0.0588  0.2272 -0.1677
 6491W        W22675  13.696   9.902   1.337  0.1093  0.1449 -0.1342
 6492W        W22676   4.491   2.396  11.466 -0.0959  0.0162  0.0738
 6493W        W22677  15.185   4.262   3.983  0.2955 -0.1036 -0.0477
 6494W        W22678  17.275  14.530  13.543  0.0172 -0.1105  0.4294
 6495W        W22679   7.240   3.402   4.180 -0.1055  0.3481 -0.0347
 6496W        W22680  16.879  18.165   5.057  0.0653 -0.0554 -0.2587
 6497W        W22681   3.302  17.082   0.184  0.2293 -0.2126  0.4101
 6498W        W22682   7.171   5.793   2.410  0.0832 -0.0327  0.0105
 6499W        W22683   5.921   7.271   1.655 -0.2773  0.2476  0.0450
 6500W        W22684   2.767  17.348   3.224  0.0983  0.2953 -0.2365
 6501W        W22685   3.928  10.607   1.147  0.3459  0.2199 -0.0499
 6502W        W22686  17.450   3.837   1.629 -0.0004  0.2797 -0.1090
 6503W        W22687   3.251  16.451   3.504  0.2974 -0.1817 -0.3406
 6504W        W22688  12.324  15.856   1.844 -0.2221  0.0919  0.0204
 6505W        W22689  13.203  14.385  10.770 -0.4396  0.0278  0.0233
 6506W        W22690   3.993   4.314  15.818 -0.1265 -0.0521  0.1903
 6507W        W22691  16.217   7.716  15.841  0.4921  0.2306 -0.1528
 6508W        W22692  13.919  12.201  15.865  0.0436 -0.0234  0.3011
 6509W        W22693   8.192   3.644   2.091  0.0014 -0.0022  0.0061
 6510W        W22694   3.673   3.174   4.045 -0.0773 -0.0585  0.0913
 6511W        W22695   7.711  13.574  15.735  0.3463  0.0669  0.3754
 6512W        W22696  14.717   3.637   4.471  0.1589  0.2324  0.0387
 6513W        W22697  15.532   3.524  15.629 -0.2313  0.1798 -0.3705
 6514W        W22698   5.892  10.290  14.999 -0.1933  0.0608 -0.1918
 6515W        W22699   2.683  11.362  11.545 -0.0339 -0.1587 -0.1790
 6516W        W22700  10.591   4.879   2.977  0.3062  0.2654  0.0504
 6517W        W22701   8.213  14.482   2.810 -0.3352  0.5262 -0.0886
 6518W        W22702   2.656   3.605  13.313  0.0929  0.1233 -0.2106
 6519W        W22703  11.286  13.707   1.316 -0.0094  0.1433 -0.3013
 6520W        W22704  12.902   4.144  14.331  0.2679 -0.5678 -0.0324
 6521W        W22705  17.251  14.964   1.882 -0.2417  0.1280  0.0479
 6522W        W22706   2.241  14.569   5.467 -0.2201 -0.1527 -0.2439
 6523W        W22707  11.647   4.384  13.433 -0.1655  0.1740 -0.1542
 6524W        W22708  17.423   6.782   0.625 -0.1164  0.0706  0.1413
 6525W        W22709   1.010   4.855   3.436  0.1184  0.0765 -0.5581
 6526W        W22710  15.527  14.181   0.333  0.0602  0.0601 -0.0241
 6527W        W22711  13.841  15.253   1.576 -0.0559  0.2920 -0.4156
 6528W        W22712  10.661  11.676  12.355  0.3115 -0.0650 -0.2585
 6529W        W22713   5.392   1.768   5.283 -0.1468  0.0675  0.2073
 6530W        W22714   2.647   6.387   1.543 -0.0691  0.0029 -0.1049
 6531W        W22715   4.775   4.475   1.360 -0.0807 -0.3248  0.1468
 6532W        W22716   6.043   2.698   3.473  0.2889  0.3524 -0.5051
 6533W        W22717  16.664   6.123   4.336 -0.3663  0.1233  0.2483
 6534W        W22718  16.337  16.918   3.875 -0.1906  0.2186 -0.6063
 6535W        W22719   3.056   4.882  10.713 -0.1093  0.2062 -0.0107
 6536W        W22720   0.235   1.301  15.200 -0.1582  0.0438  0.1820
 6537W        W22721   4.578  12.964   1.161 -0.2189 -0.1315  0.2455
 6538W        W22722  17.452  13.269  12.501  0.2372 -0.0613  0.0719
 6539W        W22723  18.399   3.762  12.881  0.1394  0.3231  0.0180
 6540W        W22724  15.855   5.431  15.600 -0.0111  0.2476 -0.4672
 6541W        W22725   2.882   3.420   3.839  0.0430  0.3713 -0.2196
 6542W        W22726  12.998   8.388  11.648 -0.4527 -0.3807  0.0001
 6543W        W22727  17.427   8.167   0.001 -0.0221  0.2644 -0.1240
 6544W        W22728   8.136  15.104   3.660  0.1870 -0.2338 -0.3753
 6545W        W22729  15.177   0.618  13.594  0.1570 -0.0713  0.2154
 6546W        W22730   7.108   5.391   0.936 -0.2125 -0.1063 -0.3605
 6547W        W22731  12.351   5.208  11.909  0.0370 -0.1602 -0.0384
 6548W        W22732  15.454  17.790  12.556  0.0834 -0.2086 -0.0814
 6549W        W22733   0.405   9.532  15.262  0.1947  0.0793 -0.2787
 6550W        W22734  16.968  12.407  12.178 -0.1429 -0.2776  0.1363
 6551W        W22735  12.784  15.082  15.335 -0.1560 -0.0368 -0.0242
 6552W        W22736   2.868  14.293  11.571 -0.0607  0.1408  0.1178
 6553W        W22737  11.496   8.284   0.375  0.2011  0.2000  0.0679
 6554W        W22738  14.151   3.158   3.105  0.1330  0.0833 -0.0115
 6555W        W22739   9.175   4.302  11.607  0.0111 -0.0863 -0.2618
 6556W        W22740   8.785   6.212   4.967  0.2465 -0.5823  0.2384
 6557W        W22741  17.661   7.276  11.891 -0.1537 -0.0010  0.2790
 6558W        W22742   4.839  14.642  15.907 -0.1315 -0.2017  0.0607
 6559W        W22743  11.537   3.607  14.834  0.3931  0.0881  0.0285
 6560W        W22744   5.907  14.889   0.699 -0.2584 -0.0231  0.1524
 6561W        W22745   8.261  13.346  13.482  0.0853  0.2138  0.0824
 6562W        W22746  14.836  13.072   1.670 -0.0380  0.2191  0.1841
 6563W        W22747   8.368   1.804   4.574  0.0840  0.0730 -0.1087
 6564W        W22748   2.961  12.397  13.052  0.0778  0.1242 -0.0150
 6565W        W22749   6.872   1.862  14.346  0.0566  0.0470  0.1978
 6566W        W22750   3.593  13.429  11.929 -0.1660  0.1521  0.1164
 6567W        W22751  10.846   1.929   2.908 -0.0847  0.2462 -0.2888
 6568W        W22752   6.628  17.282  13.842  0.1347 -0.1003  0.0272
 6569W        W22753   8.014  18.253   2.713 -0.0892 -0.0871  0.0579
 6570W        W22754  10.269  15.808   2.159  0.3790  0.0124 -0.3012
 6571W        W22755  17.817   8.743  14.814 -0.0430 -0.0595  0.0222
 6572W        W22756  17.449  10.205  11.798 -0.2169  0.1672  0.1468
 6573W        W22757  16.673   6.796   1.803 -0.2469  0.1320  0.0758
 6574W        W22758  17.521  11.513   0.335 -0.0575  0.1793  0.2724
 6575W        W22759   5.587   5.703  13.909  0.1265 -0.2220  0.1080
 6576W        W22760  11.593   0.639  14.406 -0.1534  0.1442  0.2614
 6577W        W22761  14.061  11.272   3.559  0.3727  0.0433  0.2866
 6578W        W22762  12.446  12.865   4.673  0.2120 -0.1882 -0.1259
 6579W        W22763   0.150  10.544  13.038 -0.2123 -0.0928 -0.0357
 6580W        W22764   3.407  12.934  10.054  0.4255 -0.1226 -0.3246
 6581W        W22765  16.040  16.388  14.593 -0.2654  0.0024 -0.1267
 6582W        W22766  15.183  11.712  11.298  0.0714  0.0056 -0.0263
 6583W        W22767   6.954   4.329   1.187 -0.1711  0.2664  0.0899
 6584W        W22768   1.501   0.043  11.049  0.0266  0.1950 -0.0878
 6585W        W22769   2.558  12.558   2.659  0.0110  0.1101  0.0591
 6586W        W22770   3.093   3.462  12.305 -0.0681  0.0658 -0.0652
 6587W        W22771   8.674  15.414  15.133  0.3301 -0.1377  0.1160
 6588W        W22772   1.173  13.980  14.695  0.2803 -0.1853  0.0313
 6589W        W22773   8.993  13.290   4.857 -0.3639 -0.0972 -0.0662
 6590W        W22774   9.120   5.553   2.739  0.3109  0.2702  0.1773
 6591W        W22775  16.736  15.293  12.645  0.4038  0.0150 -0.0735
 6592W        W22776   3.248  15.569  11.578  0.3336 -0.0909 -0.1240
 6593W        W22777  14.572   4.446   2.356  0.0910 -0.2887 -0.3017
 6594W        W22778  10.385  14.872   0.820 -0.0002  0.1756 -0.0565
 6595W        W22779   3.457   7.361   1.981 -0.3586 -0.1824 -0.1935
 6596W        W22780   1.870  14.367  15.443 -0.0031 -0.0941 -0.3572
 6597W        W22781   6.221   3.450  15.700 -0.2594 -0.0850 -0.1586
 6598W        W22782  18.347  16.058  10.721  0.0511 -0.1690  0.0211
 6599W        W22783   0.841  14.949   4.439 -0.0150  0.1715  0.0006
 6600W        W22784   0.338   9.909  11.838 -0.0691 -0.1095  0.2111
 6601W        W22785  14.959   6.708  15.656 -0.2120 -0.0790 -0.2960
 6602W        W22786   4.112  17.958  11.817  0.0006  0.1696  0.1646
 6603W        W22787  14.803   2.809  15.680 -0.1777  0.0188  0.0488
 6604W        W22788  10.244  16.591   3.206 -0.1915  0.0334 -0.3484
 6605W        W22789   6.377   1.959  10.200 -0.4912 -0.2119 -0.2303
 6606W        W22790   7.043   4.890   3.799 -0.0326  0.1066 -0.0456
 6607W        W22791  16.770   0.843  12.936 -0.1199  0.2253  0.3195
 6608W        W22792   7.124  12.148   0.669  0.0086  0.1333 -0.0420
 6609W        W22793   5.107   6.360  12.352  0.0705 -0.0382  0.2366
 6610W        W22794   5.526   3.773  12.302 -0.0404  0.2620  0.2121
 6611W        W22795   3.151   3.562  14.203  0.0435  0.0920  0.0768
 6612W        W22796   7.196  15.641  15.730 -0.0282 -0.0979 -0.0186
 6613W        W22797   7.701   5.217   1.229  0.0730 -0.3915 -0.3137
 6614W        W22798  18.480  15.050  15.272  0.1707 -0.2304  0.4064
 6615W        W22799   6.681  16.728  13.092 -0.5647  0.1622  0.0539
 6616W        W22800   4.970   2.335  12.879  0.0016  0.2216  0.1069
 6617W        W22801  11.447   0.080  14.523 -0.3023  0.2466 -0.2867
 6618W        W22802  10.583   8.988  14.035  0.0982  0.0949  0.0193
 6619W        W22803  10.017  13.303   6.138  0.0595 -0.2144  0.1550
 6620W        W22804  17.430  16.806   3.290  0.1305  0.0601 -0.1440
 6621W        W22805   3.571   7.995  12.177 -0.1700  0.0879  0.1764
 6622W        W22806  13.265   4.518   2.604  0.0749 -0.1565  0.3750
 6623W        W22807  17.469  14.861  14.400 -0.1381 -0.0741  0.2070
 6624W        W22808   0.231   3.932   5.868  0.0080  0.1862 -0.0528
 6625W        W22809  11.671  18.406   5.388  0.2049  0.1876  0.2566
 6626W        W22810   9.180  13.252  13.567 -0.1749 -0.3122  0.2291
 6627W        W22811  16.387   9.331   5.104  0.2013 -0.0486 -0.0426
 6628W        W22812  12.068  13.789   4.680  0.0654 -0.4808 -0.3825
 6629W        W22813  15.911   3.838   2.713  0.1999 -0.0207  0.0393
 6630W        W22814  16.570  13.064  15.240  0.0334 -0.1589  0.1583
 6631W        W22815   6.592   0.999  11.855  0.2662 -0.1236  0.1855
 6632W        W22816  17.075  18.255  12.642  0.0044 -0.3584 -0.5664
 6633W        W22817  11.042  11.797  12.006 -0.1738 -0.1301 -0.2483
 6634W        W22818   5.666  11.862   4.365 -0.1332 -0.1805  0.3802
 6635W        W22819  11.205   0.065   3.528 -0.0266 -0.1876  0.1091
 6636W        W22820  13.625  11.103   4.324 -0.0493  0.2332 -0.0616
 6637W        W22821   9.939   7.864  13.425  0.0486  0.1388 -0.4113
 6638W        W22822  12.893   9.640  14.140  0.3004  0.1565 -0.0309
 6639W        W22823  13.675   2.833   5.403 -0.2625 -0.0210 -0.0909
 6640W        W22824   9.694  10.358  11.459 -0.0778  0.1928 -0.2192
 6641W        W22825   2.664  15.127  13.558 -0.0145 -0.4286 -0.0999
 6642W        W22826   2.747  15.838  13.103  0.1986  0.0846  0.2574
 6643W        W22827  15.055   8.296  13.028  0.1218 -0.0548  0.0124
 6644W        W22828  18.351  12.462   1.827 -0.2285  0.1856  0.3170
 6645W        W22829   8.785  13.690   5.800 -0.5647 -0.0358  0.2687
 6646W        W22830  17.201  17.008   3.881  0.2337 -0.0296 -0.1221
 6647W        W22831  16.149   8.881   5.726 -0.0217  0.2900 -0.2700
 6648W        W22832  13.791  15.055   1.127 -0.2675  0.0853  0.0908
 6649W        W22833  12.376   3.726  13.533  0.2011  0.0361 -0.1331
 6650W        W22834  18.275  10.858  13.948  0.2417  0.1716 -0.3389
 6651W        W22835   8.161  13.779  13.720  0.1703  0.0730 -0.3622
 6652W        W22836   5.175   5.263  13.150  0.0243  0.0377 -0.0188
 6653W        W22837  10.135  14.738  13.854  0.3128  0.2919  0.0094
 6654W        W22838   1.793  17.209  15.427 -0.2177  0.0990 -0.0291
 6655W        W22839  14.061   0.285   0.032  0.1645 -0.0107 -0.0934
 6656W        W22840   1.172   3.047   5.650 -0.2360 -0.0171  0.3285
 6657W        W22841   4.173   7.785  13.349 -0.1929 -0.4831 -0.0942
 6658W        W22842   1.885  17.895   3.275  0.3886 -0.1490  0.3555
 6659W        W22843   0.587  13.771   0.931 -0.1988 -0.1537  0.0222
 6660W        W22844   2.061  15.982   1.121  0.1171  0.0365  0.2019
 6661W        W22845  15.622  16.654   3.706 -0.1100 -0.1338 -0.3274
 6662W        W22846   6.035   8.508   1.745  0.1201 -0.4177  0.1246
 6663W        W22847  16.697  18.385   0.274 -0.0228  0.4554  0.0683
 6664W        W22848   7.737   6.708  15.163 -0.3074  0.0191 -0.2303
 6665W        W22849  13.199  11.054   0.792  0.1322  0.0594  0.0925
 6666W        W22850  13.355   1.853  15.407 -0.0724  0.1726 -0.1471
 6667W        W22851   0.589  14.679   2.501 -0.0206 -0.2281 -0.0761
 6668W        W22852  15.322  11.011   0.788 -0.1193  0.0009  0.1929
 6669W        W22853  13.381   4.681   0.605  0.3226 -0.2528  0.1020
 6670W        W22854   3.902   2.518   5.243 -0.1084 -0.0581 -0.0719
 6671W        W22855   3.234   0.879  12.898  0.0369  0.0814  0.0088
 6672W        W22856   1.035  13.583   1.156 -0.3651 -0.1057  0.3047
 6673W        W22857   6.834  12.456  11.662 -0.2968 -0.2610 -0.0050
 6674W        W22858   0.201  14.353   2.786  0.0695 -0.2650 -0.2973
 6675W        W22859  13.198   4.086   5.075 -0.0089  0.2532 -0.1320
 6676W        W22860  18.381  15.014  13.238  0.2957 -0.0863 -0.1547
 6677W        W22861   2.481   6.748   3.369 -0.3515 -0.3232  0.1793
 6678W        W22862   4.244   0.136   2.250  0.1647  0.1063  0.0159
 6679W        W22863  12.900   6.278   1.787 -0.1281 -0.2521 -0.0086
 6680W        W22864  10.401   8.128   3.783 -0.0929  0.1514 -0.1440
 6681W        W22865   6.873   1.912   4.284 -0.1795 -0.0397 -0.2161
 6682W        W22866  12.206   0.122  12.456 -0.1629 -0.0599 -0.0035
 6683W        W22867   6.782  18.318  12.834 -0.3514  0.0836 -0.0237
 6684W        W22868   9.744  14.450   0.292 -0.1448 -0.2057 -0.1362
 6685W        W22869  11.562   3.916  12.407  0.3481  0.1289 -0.0678
 6686W        W22870  14.483   2.016  14.499 -0.0544  0.3048 -0.1771
 6687W        W22871   5.041  10.821  13.365 -0.0705  0.2996  0.0548
 6688W        W22872   4.528   2.599  14.920  0.0148  0.1474  0.1081
 6689W        W22873  10.592  11.055  12.319 -0.0615  0.0139 -0.1003
 6690W        W22874  10.185  11.464  12.347  0.1003 -0.1594  0.0991
 6691W        W22875   6.946   7.411  15.447 -0.1169  0.0875  0.0831
 6692W        W22876  14.842  10.515  14.803 -0.1470  0.0278 -0.0510
 6693W        W22877   5.005  14.260   4.456  0.0594 -0.1365 -0.1216
 6694W        W22878  10.633   5.807   3.797 -0.1633  0.2173 -0.1240
 6695W        W22879  10.997  17.982   4.726  0.1386 -0.2664  0.0790
 6696W        W22880   6.239   6.472  12.460 -0.1002  0.0129 -0.0615
 6697W        W22881  14.021  12.931  11.690 -0.2565 -0.1888 -0.1117
 6698W        W22882   2.492   6.212  12.780 -0.2951 -0.0181  0.0352
 6699W        W22883  18.142   8.789   2.221  0.1379 -0.1381 -0.1121
 6700W        W22884   3.530   7.679  14.669  0.0890  0.0088 -0.1721
 6701W        W22885   0.151  14.281  13.508 -0.1532  0.2300 -0.2298
 6702W        W22886   2.137  14.835  11.493 -0.0782 -0.3039 -0.0521
 6703W        W22887  14.378   4.017   4.471 -0.0445  0.0504 -0.2303
 6704W        W22888   0.008   3.727  12.221 -0.2077 -0.3414  0.2256
 6705W        W22889  16.885   2.365  15.891  0.1750 -0.1244  0.0260
 6706W        W22890   7.554   1.539  11.123  0.0796  0.2378 -0.0091
 6707W        W22891   4.474   4.769  16.123 -0.4201 -0.2045 -0.0237
 6708W        W22892   1.535   8.366  10.854 -0.3504 -0.0788  0.0570
 6709W        W22893  11.491  15.191   3.989 -0.0664 -0.2999  0.3215
 6710W        W22894   7.321   4.727  11.463 -0.2261 -0.1228  0.0554
 6711W        W22895   5.679   5.087  10.778 -0.0524 -0.2844  0.1408
 6712W        W22896   6.562   1.774   5.020 -0.2345  0.1236 -0.2324
 6713W        W22897  15.859   3.277   0.440  0.0763 -0.3331 -0.2332
 6714W        W22898  14.864  13.675   3.779 -0.1490  0.0513 -0.1860
 6715W        W22899   8.912   6.434   4.409  0.2231 -0.0217  0.1366
 6716W        W22900  10.118   3.618   2.441 -0.2263 -0.0773 -0.0365
 6717W        W22901  12.317   8.694   4.349  0.2272 -0.0660 -0.1783
 6718W        W22902   4.811  15.913  13.667 -0.2575  0.0136  0.0411
 6719W        W22903  13.091  16.381  14.891 -0.1982  0.4143 -0.0834
 6720W        W22904  10.896  10.225   0.523 -0.0289  0.0230 -0.1372
 6721W        W22905   3.392  17.286   4.234  0.0682 -0.2217 -0.1002
 6722W        W22906   3.510  16.118   3.292  0.1199 -0.1105  0.1111
 6723W        W22907   6.532  14.991   6.501 -0.4188  0.0425 -0.0422
 6724W        W22908  16.225   2.346  15.294  0.2897  0.1868 -0.1991
 6725W        W22909  11.759   7.927   4.706  0.0245  0.1483 -0.4069
 6726W        W22910   4.457   2.388   4.657 -0.1183 -0.0212 -0.1706
 6727W        W22911   3.800   5.014  12.439  0.0570  0.2646 -0.1371
 6728W        W22912   5.643  12.531   0.103  0.2591  0.1230 -0.3678
 6729W        W22913   0.063   0.705  11.358  0.4348  0.0438  0.0481
 6730W        W22914   0.412  14.938   1.453 -0.0180 -0.3036  0.0233
 6731W        W22915  14.708  13.114  12.871 -0.0876 -0.0718 -0.0534
 6732W        W22916  12.556   3.693  12.824  0.3293 -0.0546  0.4175
 6733W        W22917  15.778  12.291  11.773  0.0532  0.0974  0.0803
 6734W        W22918   7.720  10.915   3.131  0.1856 -0.1070  0.2672
 6735W        W22919   1.125   6.230  15.451 -0.4653  0.1863 -0.1308
 6736W        W22920   5.315   2.445  12.015 -0.3269 -0.1572  0.2776
 6737W        W22921  13.064   5.521  11.450 -0.1707  0.2911  0.0377
 6738W        W22922   1.134   7.853   0.522  0.1127 -0.1580  0.0612
 6739W        W22923   0.434  11.872   2.454  0.2565 -0.1785  0.0436
 6740W        W22924  10.471   6.100  15.864  0.2760 -0.1168  0.0204
 6741W        W22925  16.268   4.309  14.849  0.1212  0.5743 -0.0140
 6742W        W22926   9.094   4.698  13.588  0.0799  0.0212  0.0936
 6743W        W22927   6.798  12.920  10.435 -0.1925 -0.2725 -0.1274
 6744W        W22928  16.210   2.644   3.163  0.0407 -0.0249  0.1507
 6745W        W22929   9.585  14.989   0.467 -0.1168  0.4114 -0.1026
 6746W        W22930  10.453  16.216   4.586 -0.3019  0.1295  0.0027
 6747W        W22931   8.539  12.796   1.308 -0.3185 -0.1802 -0.0819
 6748W        W22932   7.729   5.146  13.617  0.2387  0.1950 -0.2281
 6749W        W22933  12.632   5.911   2.513  0.2435 -0.1322 -0.1215
 6750W        W22934  17.620  16.698  14.599 -0.2529  0.0164 -0.2285
 6751W        W22935  17.142   3.616   0.349  0.2442  0.0112 -0.1805
 6752W        W22936   5.269   0.809   5.909  0.1545  0.1844  0.0925
 6753W        W22937  13.837   4.340  14.332 -0.2296  0.1535 -0.5146
 6754W        W22938   8.267   6.439   1.606  0.1179 -0.3118 -0.0117
 6755W        W22939  13.915   7.031   4.318 -0.2153 -0.1838  0.1395
 6756W        W22940   4.811   6.529  14.144 -0.1763 -0.2293 -0.1384
 6757W        W22941  15.496  16.447  15.569 -0.0910  0.1370 -0.0875
 6758W        W22942  15.463  10.768  16.143 -0.0015 -0.4182  0.1013
 6759W        W22943   9.519   7.594  11.302 -0.3563  0.2827  0.2173
 6760W        W22944   3.270   6.897  16.147 -0.3633 -0.0077  0.0501
 6761W        W22945  11.089  17.137   1.271  0.1450 -0.1634 -0.2282
 6762W        W22946   9.155   3.557   0.355  0.3226  0.2091 -0.0346
 6763W        W22947   3.571  11.122  12.915 -0.1202  0.0121  0.1421
 6764W        W22948  11.520  15.240  15.364 -0.1154  0.1314  0.1731
 6765W        W22949   6.100  13.147   2.625  0.0825  0.2669  0.1573
 6766W        W22950   8.445   2.460  12.701 -0.0532 -0.1787  0.3698
 6767W        W22951   3.614  12.879   5.073 -0.0218  0.0649 -0.0704
 6768W        W22952  17.813  10.864   4.593 -0.0570 -0.2822  0.2286
 6769W        W22953   2.650  10.577  16.027 -0.0262  0.0678  0.2378
 6770W        W22954   0.349  16.520  14.681  0.0319 -0.0214 -0.2019
 6771W        W22955   1.443   7.408  11.893 -0.1473 -0.1469 -0.0935
 6772W        W22956   6.758   0.908   1.519 -0.2759 -0.1626 -0.1140
 6773W        W22957   3.406   1.909  13.904  0.0451  0.1431  0.2030
 6774W        W22958  11.332   2.170  11.586  0.1941  0.3066 -0.0327
 6775W        W22959   1.840  14.767   6.006  0.0375 -0.4345  0.1349
 6776W        W22960   4.345  18.422  11.723  0.0936 -0.4776  0.1813
 6777W        W22961  17.607   4.608   0.995 -0.2792 -0.2898  0.1148
 6778W        W22962   5.829  10.885   0.869 -0.3071  0.0480  0.2843
 6779W        W22963  15.631   6.352   0.839  0.0421 -0.0642 -0.0849
 6780W        W22964   9.466   5.146  15.205 -0.2408 -0.1582 -0.0810
 6781W        W22965  15.239   9.687   1.921  0.2198  0.0587  0.0099
 6782W        W22966  14.594   1.915   3.015  0.2513  0.1157  0.1833
 6783W        W22967   6.191  12.399   5.745 -0.1428  0.1592 -0.4181
 6784W        W22968   8.023  14.672  14.957 -0.1179 -0.1364  0.2154
 6785W        W22969  18.188   3.511  11.401  0.0223 -0.0653 -0.0995
 6786W        W22970  16.998   3.266  11.690 -0.1159  0.2514 -0.4288
 6787W        W22971   5.047   8.529   4.022  0.0953 -0.2204  0.1948
 6788W        W22972  17.601   2.730   1.823  0.3381  0.1304  0.1068
 6789W        W22973  12.322   8.874  12.230  0.1009 -0.0452  0.0593
 6790W        W22974   5.518  16.581  10.967 -0.1294  0.3227  0.1075
 6791W        W22975  16.248   0.821   0.320 -0.2225 -0.3041  0.3222
 6792W        W22976  17.193   4.539  13.485  0.0787  0.0153 -0.0585
 6793W        W22977   6.061   8.230  12.490  0.1180 -0.2598  0.2677
 6794W        W22978  10.122  16.174  11.675  0.0091  0.0363  0.0723
 6795W        W22979   5.259   4.800   2.236  0.1825 -0.0301  0.1587
 6796W        W22980  16.120   6.885   4.740 -0.2404 -0.2225  0.1122
 6797W        W22981  13.960   2.040   5.913 -0.1933  0.2523 -0.1244
 6798W        W22982   2.745   0.129  15.925  0.0228 -0.3505  0.1347
 6799W        W22983   8.754   1.935   3.190  0.1379 -0.1695  0.6801
 6800W        W22984  15.982  16.613   2.453 -0.0381  0.0072  0.0495
 6801W        W22985   8.693   1.242  15.050 -0.3192 -0.2058  0.0780
 6802W        W22986  13.127   5.081   5.263 -0.0767  0.2307  0.0761
 6803W        W22987   9.618  12.016  12.997  0.3715  0.1966  0.1989
 6804W        W22988  16.470   2.840  14.368 -0.2577  0.0239  0.0555
 6805W        W22989  13.015  11.947  12.094 -0.5187  0.2968 -0.1358
 6806W        W22990  10.525  14.021   1.776  0.0200  0.1070 -0.2873
 6807W        W22991  14.124   0.668   3.184  0.3361 -0.1456 -0.1799
 6808W        W22992  18.439   2.504   1.339 -0.0877 -0.0179 -0.0164
 6809W        W22993  12.910   5.302   1.731 -0.0737  0.2494 -0.1266
 6810W        W22994  14.600   3.039  15.291 -0.0529 -0.0111 -0.0872
 6811W        W22995  13.104  12.310   2.763 -0.2609 -0.0171  0.1598
 6812W        W22996   6.964   9.067   0.260  0.2755 -0.2296 -0.0806
 6813W        W22997  17.230  17.314   3.384  0.2796 -0.0576 -0.1958
 6814W        W22998  17.032   5.725  12.231  0.1706  0.1649 -0.0623
 6815W        W22999   8.904  10.613  13.823  0.0964 -0.6292  0.1143
 6816W        W23000   3.536  10.488   3.468  0.2045  0.1832 -0.0615
 6817W        W23001  16.436  10.069   1.158  0.0915  0.1878  0.0769
 6818W        W23002   3.806  15.670   3.633  0.1946  0.0228 -0.0072
 6819W        W23003  13.925  15.282  12.941  0.2167  0.2158 -0.1431
 6820W        W23004   1.221   5.242  13.332 -0.2263  0.3115 -0.0511
 6821W        W23005  15.834   3.686  14.237 -0.0777 -0.0540  0.1808
 6822W        W23006   7.700  11.223  15.859 -0.1521  0.0927  0.0182
 6823W        W23007   5.649  14.863   2.866  0.0435  0.2351 -0.0080
 6824W        W23008  16.403   9.015  14.604  0.0431  0.1892 -0.4495
 6825W        W23009   7.545  16.124  12.998 -0.1116  0.0207  0.2694
 6826W        W23010   2.780   4.363  13.925 -0.0813  0.0473 -0.1478
 6827W        W23011   5.963   1.938  12.847  0.0208  0.2520  0.3437
 6828W        W23012   8.749   6.732   2.936  0.2260 -0.0325 -0.1492
 6829W        W23013  16.630  16.827  12.648  0.3465  0.0438 -0.0000
 6830W        W23014   7.205   2.710  14.976 -0.2376 -0.1392  0.1757
 6831W        W23015  10.118   2.072   2.092 -0.1456  0.0222  0.1124
 6832W        W23016  16.634  13.562   5.245  0.3321 -0.0583  0.0129
 6833W        W23017   8.064   2.465  14.678 -0.0760  0.2173  0.0940
 6834W        W23018  16.454   5.481   2.951  0.0990  0.2995 -0.2155
 6835W        W23019  11.839   3.250  13.032 -0.0637 -0.0519 -0.3061
 6836W        W23020   3.161   5.640  14.823  0.3259 -0.1618  0.1305
 6837W        W23021   9.007   5.059  15.431 -0.3557  0.2114 -0.1129
 6838W        W23022   4.312   8.120   0.834  0.2526 -0.1236 -0.0938
 6839W        W23023   2.585  18.214   1.809  0.0190 -0.3322 -0.2561
 6840W        W23024   3.480  15.367  12.965  0.0357 -0.1377  0.2037
 6841W        W23025   3.100   3.619   1.240 -0.2100  0.1087  0.1661
 6842W        W23026  10.562  10.658  11.323 -0.1676 -0.1521  0.4358
 6843W        W23027  14.684   3.623   1.162  0.0485 -0.0512  0.3575
 6844W        W23028   9.828  15.290   2.844 -0.2963 -0.1309  0.1079
 6845W        W23029   5.561   5.223   3.364  0.0169 -0.0310 -0.2229
 6846W        W23030   2.371   9.736  12.724  0.1365 -0.0313 -0.1317
 6847W        W23031  17.952   4.120  14.614  0.0376 -0.0016  0.0386
 6848W        W23032   7.023   6.148   4.531 -0.4428  0.0806  0.0782
 6849W        W23033  11.725   9.930   4.982  0.0873 -0.0297 -0.0558
 6850W        W23034   0.933  15.510  12.436 -0.0919 -0.1356 -0.2627
 6851W        W23035  13.737   0.236  13.476 -0.1009  0.2724  0.1005
 6852W        W23036   7.383  12.835   4.004  0.2906  0.0944 -0.1303
 6853W        W23037  14.600   6.473  14.084  0.1606  0.0247  0.1598
 6854W        W23038  12.478   7.168   1.645 -0.0223 -0.0927 -0.0094
 6855W        W23039   8.907  11.924   5.318 -0.0545  0.3612 -0.4147
 6856W        W23040   4.395   8.479   0.091  0.1680  0.1549  0.0997
 6857W        W23041  18.289   8.840   0.397 -0.1638 -0.3753 -0.2853
 6858W        W23042  12.477  11.286   5.156  0.0842 -0.1150 -0.2234
 6859W        W23043   9.684   8.381   4.864 -0.0321 -0.4195 -0.0457
 6860W        W23044  10.157   8.970  12.360  0.2083  0.2547  0.1379
 6861W        W23045  13.639  16.225   4.228 -0.0097 -0.2149  0.2241
 6862W        W23046   2.001  12.066  15.999 -0.0077  0.1074  0.2591
 6863W        W23047  10.022   3.678   0.593  0.0718  0.2215 -0.1323
 6864W        W23048  15.812   4.011  15.866  0.2518  0.3969 -0.2226
 6865W        W23049   5.165   8.238  15.177  0.0346 -0.0939  0.1077
 6866W        W23050   0.626   6.123  11.186 -0.2717 -0.1791  0.1547
 6867W        W23051   1.707  15.114  13.590 -0.1183  0.1377  0.0487
 6868W        W23052   8.351  15.534  12.611  0.2073 -0.0978  0.3873
 6869W        W23053   4.244   4.402   3.963  0.1438 -0.2089  0.0582
 6870W        W23054   3.758   7.767   4.972 -0.0283  0.3243 -0.2699
 6871W        W23055   8.087  15.967  12.337 -0.3723  0.0730  0.2466
 6872W        W23056  13.307   4.964   2.402 -0.1983  0.0757 -0.1436
 6873W        W23057   1.687   5.034  10.987  0.2313  0.4268  0.1242
 6874W        W23058   1.771  10.488  14.416  0.6448 -0.1177 -0.1511
 6875W        W23059   6.098  13.865   1.041  0.0274  0.1412 -0.0485
 6876W        W23060   3.012   4.800   1.695  0.1001  0.1522  0.0949
 6877W        W23061  10.422   6.985   5.241 -0.0182 -0.0918  0.0036
 6878W        W23062   2.643  10.998   3.870  0.0979  0.1630  0.0724
 6879W        W23063  10.320   2.564  15.929 -0.3230 -0.1269  0.3992
 6880W        W23064  12.354   1.626   1.812 -0.1648  0.2309  0.0604
 6881W        W23065  17.046   1.766   4.024 -0.0911  0.0517  0.1370
 6882W        W23066  10.199   2.322  12.663  0.1621  0.0158  0.3276
 6883W        W23067  17.926   0.123  12.662 -0.1608 -0.1688  0.3190
 6884W        W23068   0.616  16.492   5.460 -0.1694 -0.0711  0.0002
 6885W        W23069   5.717   6.245  14.629 -0.2910  0.1053  0.0769
 6886W        W23070   0.398  17.549   4.026  0.3412  0.0642  0.0255
 6887W        W23071  18.028  10.606   0.208 -0.0298 -0.4989 -0.1570
 6888W        W23072   4.909   4.123  12.536  0.0074 -0.2569 -0.3634
 6889W        W23073  17.492   5.817   0.575  0.0357  0.1122 -0.1978
 6890W        W23074  11.569  12.749  11.608 -0.0927 -0.0075  0.3324
 6891W        W23075  13.530   5.110  13.583  0.0247 -0.0046 -0.2425
 6892W        W23076  17.478  11.443  11.616 -0.0781  0.2158 -0.1343
 6893W        W23077  17.482   0.745   4.959  0.2579  0.0855  0.2409
 6894W        W23078   0.158   2.961   4.867 -0.0352 -0.1640 -0.1484
 6895W        W23079   2.708   4.261   1.695  0.3120  0.0648 -0.0317
 6896W        W23080   3.590  11.989  13.605  0.2014 -0.4850  0.0763
 6897W        W23081   3.308   8.373   2.378  0.0545  0.0108 -0.0245
 6898W        W23082   7.732   4.540   3.139  0.0833  0.0713  0.0384
 6899W        W23083   0.825   7.745  13.766  0.2922 -0.0539 -0.1074
 6900W        W23084  10.251   0.453  12.755 -0.0823  0.2305  0.0916
 6901W        W23085   7.726   9.793   5.857  0.1607  0.0974  0.0071
 6902W        W23086  13.762   7.828   0.297 -0.2401 -0.1541  0.2252
 6903W        W23087   6.910  16.404  15.301  0.0705 -0.0485 -0.2906
 6904W        W23088  12.019   0.508  15.736 -0.2500 -0.1616 -0.1303
 6905W        W23089   9.182   7.420  15.977  0.2249  0.1210 -0.0862
 6906W        W23090   9.724  10.043   3.393 -0.0044  0.1211  0.1016
 6907W        W23091   2.159   0.879   2.785 -0.1472  0.4819  0.2263
 6908W        W23092   8.148  15.741   1.485  0.1212  0.5674 -0.0134
 6909W        W23093   2.464  13.689  13.627  0.0207 -0.3996  0.0610
 6910W        W23094  17.372   3.360  10.796  0.0216 -0.0235  0.0356
 6911W        W23095   7.591   9.708   1.315 -0.2345 -0.2641  0.2047
 6912W        W23096   0.085  13.709   0.962 -0.0521  0.1557  0.3452
 6913W        W23097  15.632  15.754  10.824 -0.1046 -0.3662  0.3229
 6914W        W23098   8.805  15.457   6.076  0.1598 -0.1119 -0.1277
 6915W        W23099  16.768   7.860   3.039 -0.1005 -0.1214  0.1000
 6916W        W23100   4.916  18.361  13.303 -0.2781  0.3148 -0.2137
 6917W        W23101  15.244  15.902   3.005  0.0646  0.1832  0.0193
 6918W        W23102   9.757   5.083   0.673 -0.0178 -0.2607 -0.1424
 6919W        W23103   7.206   1.042   3.350 -0.1092  0.3540  0.0229
 6920W        W23104   8.672   3.709   1.092  0.0267 -0.1009 -0.0636
 6921W        W23105   4.769  11.022  13.794  0.1333 -0.0152  0.0592
 6922W        W23106   5.249   1.127   4.409  0.3183 -0.0209  0.0704
 6923W        W23107   2.730   7.867  13.701 -0.2905  0.3860  0.4429
 6924W        W23108  16.229   6.623  10.581 -0.2534  0.0693  0.2237
 6925W        W23109  12.536   8.754   1.131  0.0674  0.0918 -0.0967
 6926W        W23110   4.959  10.259  15.453  0.2832  0.0022  0.0276
 6927W        W23111  14.677  17.446  15.019 -0.0914  0.0716 -0.0513
 6928W        W23112   9.998   7.480  13.821 -0.2270  0.2785 -0.1322
 6929W        W23113   4.817  10.623   4.782  0.1212  0.2611  0.2981
 6930W        W23114  15.685   2.803  15.069 -0.0631 -0.1057 -0.4674
 6931W        W23115   6.883  17.333   1.433 -0.0658  0.1484  0.3834
 6932W        W23116  16.875   4.485  14.360  0.1105  0.2660 -0.1623
 6933W        W23117   0.621   8.118  14.739  0.4507  0.0027 -0.1930
 6934W        W23118  13.101  17.184  14.198 -0.2836  0.1243 -0.0215
 6935W        W23119  12.276  15.973  11.701  0.0998 -0.1582  0.0999
 6936W        W23120  11.770  17.433  15.727 -0.1634 -0.2893 -0.2152
 6937W        W23121   5.137   7.223  16.082 -0.1023 -0.0008 -0.1140
 6938W        W23122   1.355  14.397   5.172  0.0501 -0.0499  0.0237
 6939W        W23123   9.861   8.496  15.611 -0.0854 -0.3321 -0.0280
 6940W        W23124   6.994   4.034   3.465 -0.2726 -0.1799 -0.0363
 6941W        W23125   3.705   8.597  14.304  0.0709  0.3241  0.1202
 6942W        W23126   3.786   7.510  15.086  0.0751  0.0118 -0.0722
 6943W        W23127   9.121  11.123   0.202  0.0039  0.0973  0.1681
 6944W        W23128  11.850  18.516   3.521  0.1064 -0.2351  0.0439
 6945W        W23129   0.126   0.750   3.322 -0.1439 -0.1946 -0.3991
 6946W        W23130  18.306   0.525  15.520  0.0780 -0.1538 -0.1078
 6947W        W23131  16.163  13.499   3.287  0.1706 -0.1676  0.0835
 6948W        W23132  13.892   2.301   2.453  0.0928  0.0535 -0.0027
 6949W        W23133   0.288  15.607   0.087  0.1167 -0.1172  0.1651
 6950W        W23134   9.675   9.222  12.236 -0.1516 -0.0923 -0.0537
 6951W        W23135  14.492   9.935   4.253  0.3169 -0.1360 -0.0640
 6952W        W23136   1.835  15.106  11.207  0.3236 -0.1271 -0.4491
 6953W        W23137   2.953  15.410   0.499  0.0623 -0.2490  0.0725
 6954W        W23138  11.053  12.699  11.547 -0.1124  0.0258 -0.0176
 6955W        W23139   9.470  17.579  11.887 -0.1133 -0.1658 -0.3444
 6956W        W23140   3.209   8.658  13.544  0.0559  0.3470 -0.0014
 6957W        W23141   0.273   2.507   3.162 -0.1538  0.2725  0.0000
 6958W        W23142  11.713  17.002  13.105  0.1158  0.0382 -0.1003
 6959W        W23143  15.582  12.123  12.288  0.3346 -0.1613 -0.0691
 6960W        W23144   3.786   8.336   3.778  0.2974 -0.0297 -0.1393
 6961W        W23145  13.870   7.701   4.462  0.2666  0.0079  0.0959
 6962W        W23146   9.935   0.019  14.848 -0.1698  0.0692  0.0472
 6963W        W23147   2.218  13.944   3.636  0.1481  0.3879  0.2118
 6964W        W23148   6.347  15.067  14.386 -0.0790  0.2308  0.1601
 6965W        W23149   9.731   3.618   0.206  0.2011 -0.1091  0.0059
 6966W        W23150   7.992   6.585   4.279  0.2061  0.1964 -0.1801
 6967W        W23151  18.399   6.729  11.612  0.2317 -0.1680  0.2565
 6968W        W23152   6.873  10.725   5.846 -0.2092 -0.4664 -0.2989
 6969W        W23153  10.112   4.574   5.454  0.0130 -0.2779 -0.0751
 6970W        W23154  12.041   9.303   6.154 -0.0102 -0.1961 -0.2431
 6971W        W23155  17.968  13.396   2.975  0.2767  0.1326 -0.1802
 6972W        W23156  16.158   9.418  12.362  0.2907  0.1910 -0.0314
 6973W        W23157  11.733   1.287   5.057  0.1632 -0.2638  0.0562
 6974W        W23158   4.210   3.394   2.097  0.1508 -0.1828  0.0568
 6975W        W23159   5.615   7.985  12.313 -0.0309  0.1601 -0.2402
 6976W        W23160   9.573   3.546  12.946 -0.1278  0.0553  0.0516
 6977W        W23161   8.567   3.362   2.396  0.1545 -0.0938 -0.1425
 6978W        W23162   7.150  14.041  12.207  0.4925 -0.0620 -0.1815
 6979W        W23163   5.014   4.036   0.240 -0.3107 -0.4647  0.1240
 6980W        W23164  12.705   0.990  11.077  0.1112  0.0629 -0.1482
 6981W        W23165  11.650  18.389  13.990  0.1337  0.0205 -0.0936
 6982W        W23166   3.448  10.974   5.927 -0.2521 -0.0609 -0.2192
 6983W        W23167  11.397   8.331   4.682  0.1322  0.1527  0.0001
 6984W        W23168  17.006   3.138  15.640  0.0543  0.0698 -0.1891
 6985W        W23169   5.774   0.597  13.991 -0.0330  0.0217 -0.2357
 6986W        W23170  17.812  15.667  13.667 -0.0264  0.0840 -0.1120
 6987W        W23171   5.176   2.184   0.205  0.1217 -0.2702  0.2600
 6988W        W23172   3.340  17.139   1.546 -0.0794  0.1140 -0.0127
 6989W        W23173   6.371   8.692  12.655 -0.0386 -0.1162 -0.1796
 6990W        W23174   8.498   0.502  12.827  0.2060  0.0263 -0.1932
 6991W        W23175  11.847  12.658   4.558  0.0410  0.0792 -0.3195
 6992W        W23176   0.001  16.879  15.934 -0.0106 -0.2151  0.1930
 6993W        W23177   9.904   9.192   0.466 -0.2231 -0.1393  0.1245
 6994W        W23178   3.329   5.798   0.083 -0.1302 -0.2562  0.1398
 6995W        W23179  17.714   2.605  11.572  0.0518 -0.1078 -0.1083
 6996W        W23180   1.245   2.294   3.259  0.3361 -0.2324  0.1716
 6997W        W23181  14.067   0.454  11.153  0.4541 -0.0036  0.0751
 6998W        W23182   1.254   2.333   2.004 -0.1433 -0.1823  0.0913
 6999W        W23183  11.899   1.631  10.949  0.1040 -0.4910 -0.2246
 7000W        W23184   3.826  17.820   2.530  0.0594 -0.3793  0.0139
 7001W        W23185  10.789   6.526  15.620  0.3272 -0.1195  0.4180
 7002W        W23186   4.342  18.461   5.317 -0.1220  0.4033  0.1622
 7003W        W23187  10.434  16.240  13.544  0.1286  0.2196 -0.2393
 7004W        W23188  11.805  16.691   3.344 -0.3180 -0.0949 -0.0929
 7005W        W23189  14.538   9.932  13.976 -0.0910 -0.0823 -0.0446
 7006W        W23190  17.801  17.729  12.533 -0.3585  0.0086 -0.2754
 7007W        W23191   0.380  13.129  14.307 -0.2573 -0.0089  0.1871
 7008W        W23192   0.785  13.339   3.320 -0.0065  0.0366 -0.1512
 7009W        W23193   1.651  15.154  15.731 -0.0169 -0.1752 -0.1375
 7010W        W23194   5.831  16.940  13.313 -0.1087 -0.1898 -0.2193
 7011W        W23195  11.474  11.211   5.305 -0.0273 -0.0694 -0.1106
 7012W        W23196   1.019   5.809   4.764  0.1528  0.1770  0.0807
 7013W        W23197   5.153  14.608  14.428  0.0762  0.3801  0.2639
 7014W        W23198   8.660  12.915   3.343  0.1180  0.1802  0.0132
 7015W        W23199   3.655  10.741  14.719  0.2947  0.0020 -0.1740
 7016W        W23200   1.887   8.652  14.511 -0.0484 -0.1376 -0.1247
 7017W        W23201   3.181   2.273  15.304  0.0770 -0.2743 -0.0705
 7018W        W23202   4.130  15.344   5.204 -0.1815 -0.0942  0.1708
 7019W        W23203   4.765   9.274   0.002  0.1100 -0.0233  0.1742
 7020W        W23204  14.110  13.986   3.771 -0.0406 -0.0900  0.0359
 7021W        W23205   8.046   7.536  15.451  0.0140 -0.0737 -0.1750
 7022W        W23206  13.804   9.571  11.222  0.0201  0.1279  0.4332
 7023W        W23207  13.295  10.519   0.597 -0.1407  0.0823  0.2240
 7024W        W23208   9.354   8.356   3.084 -0.0615 -0.1175  0.1857
 7025W        W23209   6.696  10.530  11.095 -0.1809  0.3536 -0.1673
 7026W        W23210  16.456  18.392   5.110 -0.1597 -0.3253 -0.0353
 7027W        W23211   4.139  18.061   5.046  0.1972 -0.3218 -0.2345
 7028W        W23212   3.929  13.514   3.881 -0.3292 -0.2373  0.0705
 7029W        W23213   7.622   4.405  15.903  0.1781 -0.0501  0.2142
 7030W        W23214   3.217  11.597  11.594 -0.0032 -0.1515 -0.3548
 7031W        W23215  17.070  15.714  15.371 -0.2697  0.0537 -0.0770
 7032W        W23216  16.514  13.249  12.876  0.0848 -0.3031  0.0416
 7033W        W23217  12.889   7.335   4.737  0.1174  0.2139 -0.0557
 7034W        W23218  13.452  14.285   4.240  0.2185 -0.3064  0.1625
 7035W        W23219  13.578   0.460   4.518 -0.2582  0.2337 -0.1575
 7036W        W23220   8.982  17.152  12.846 -0.0660  0.1795  0.0207
 7037W        W23221   9.700   5.390  14.822  0.2609  0.1880  0.2132
 7038W        W23222   4.508  13.805  12.795 -0.3307  0.0552  0.2466
 7039W        W23223  14.718  17.844  11.303  0.0656 -0.3830  0.0611
 7040W        W23224  10.483   2.275   5.934  0.0628 -0.0876 -0.1518
 7041W        W23225  17.748   0.688   1.696  0.2874 -0.0744 -0.3441
 7042W        W23226   1.044   6.488   2.307  0.0738  0.2929 -0.2258
 7043W        W23227   8.870  14.967   2.575  0.3783 -0.1317  0.2765
 7044W        W23228  12.637  16.135   5.364 -0.3784 -0.0264 -0.0326
 7045W        W23229  14.302  12.389   6.027  0.0649  0.1803  0.0201
 7046W        W23230   3.403   1.221  11.368 -0.0115  0.0778  0.2914
 7047W        W23231  11.898  10.710   1.873 -0.0259  0.2894  0.3700
 7048W        W23232  18.070  11.159   2.857  0.0852  0.0645  0.1080
 7049W        W23233  14.342  15.930   1.173  0.1329  0.0102 -0.1817
 7050W        W23234  11.309  15.744  14.401  0.0087 -0.1702 -0.0132
 7051W        W23235  14.245  12.283   3.362 -0.0932  0.1466  0.1294
 7052W        W23236  11.891   3.804  15.225 -0.0577 -0.5049  0.1037
 7053W        W23237  18.507   6.094  13.476  0.1768  0.0643  0.0911
 7054W        W23238   5.833  10.063   3.668 -0.0952  0.1562 -0.0896
 7055W        W23239   8.016  14.695  12.660 -0.1746 -0.2325  0.0805
 7056W        W23240  16.341   5.959  11.243  0.1748 -0.0259  0.4254
 7057W        W23241   5.128   9.876   1.831  0.3438 -0.2250  0.0303
 7058W        W23242  15.135   3.345  14.861  0.2635 -0.2007  0.0043
 7059W        W23243   3.915  17.400   1.448  0.0021 -0.0669 -0.0438
 7060W        W23244   1.511  18.485   0.390  0.0354  0.1167  0.1743
 7061W        W23245  16.289  16.335  11.109  0.0401 -0.1382 -0.2249
 7062W        W23246   7.192   9.666   2.904  0.2466  0.2774 -0.0338
 7063W        W23247  10.293   0.749   0.802 -0.1818 -0.2047  0.0356
 7064W        W23248   8.446  10.571  14.110 -0.2742 -0.1060 -0.1853
 7065W        W23249  17.989   0.526  14.101  0.0014  0.0571 -0.1207
 7066W        W23250   8.974  14.553  15.009 -0.0752  0.2745 -0.1505
 7067W        W23251   1.711  12.754  12.413  0.0221 -0.1666  0.2769
 7068W        W23252  11.695   9.558  13.416  0.0904 -0.0452 -0.0221
 7069W        W23253  13.385  11.526  15.662  0.2706 -0.2231 -0.3285
 7070W        W23254   4.098   8.535  12.724  0.1274  0.3966 -0.1496
 7071W        W23255   9.038   7.441   5.643 -0.1855 -0.1660 -0.2856
 7072W        W23256   6.074   1.667   4.445  0.1157 -0.1710 -0.1035
 7073W        W23257  13.394   0.197  12.117 -0.3380  0.2977  0.0741
 7074W        W23258   6.939   9.229  13.838  0.0077 -0.0485  0.0072
 7075W        W23259  11.877  18.316   3.985  0.2288  0.1605 -0.0727
 7076W        W23260   5.539   3.011   1.666  0.1712 -0.0087 -0.0375
 7077W        W23261  17.868  13.707   1.308  0.0089 -0.0253  0.0637
 7078W        W23262  11.681   7.822  13.545  0.3133 -0.0859  0.1817
 7079W        W23263   0.717   7.281  15.666  0.0589  0.2061  0.0669
 7080W        W23264   8.867   2.484  12.454  0.3050 -0.0764 -0.3130
 7081W        W23265   5.869  18.210   4.194  0.2230  0.0419  0.1018
 7082W        W23266   9.456  16.630  11.287  0.0470  0.0085 -0.0355
 7083W        W23267  10.337  11.532  13.295  0.2951 -0.1305  0.0739
 7084W        W23268  11.279  13.422   4.174  0.1420 -0.1056 -0.0579
 7085W        W23269  16.867   1.074   2.529  0.0777 -0.4206  0.2027
 7086W        W23270  14.813  18.268   1.780  0.0866 -0.0490  0.1339
 7087W        W23271   5.696  16.802  12.040 -0.0879 -0.1744  0.0080
 7088W        W23272  15.580   4.566  14.208  0.1749 -0.0598 -0.0625
 7089W        W23273   0.464  10.904  13.894  0.1327  0.0115 -0.0408
 7090W        W23274   5.774   3.261   5.481  0.1500  0.0844  0.3007
 7091W        W23275   7.976   9.329   1.043 -0.1198  0.0895 -0.2225
 7092W        W23276   5.607   4.807   0.625 -0.0501  0.1973  0.0160
 7093W        W23277  15.989   0.653  12.116  0.0977 -0.2181  0.0763
 7094W        W23278   8.865   1.151   4.038  0.1868  0.2990 -0.3357
 7095W        W23279  16.526   4.526   4.475  0.1060  0.0779 -0.0810
 7096W        W23280  17.787  12.733   5.063  0.0139 -0.2564 -0.1064
 7097W        W23281  14.545  16.585  11.995  0.0232  0.2265  0.1604
 7098W        W23282  13.109  12.675   0.469 -0.1855 -0.2910 -0.2263
 7099W        W23283  10.689   7.041  15.525 -0.3574 -0.1621 -0.2426
 7100W        W23284   9.305  18.249  14.450  0.2397 -0.0586 -0.1304
 7101W        W23285   8.065   2.785  12.844  0.2260  0.2983  0.0204
 7102W        W23286  14.773  10.856  13.427 -0.0822  0.0078  0.2291
 7103W        W23287   7.293   7.758  15.148 -0.0842  0.1741  0.0300
 7104W        W23288  14.366   0.951   0.567  0.4610 -0.1988 -0.0755
 7105W        W23289   2.160   4.727  11.675  0.0054  0.1893 -0.3935
 7106W        W23290   9.730   0.152  15.906 -0.0328 -0.0835 -0.2602
 7107W        W23291  14.278  14.736  13.713  0.1763  0.3531  0.1055
 7108W        W23292   1.874  17.435   0.006  0.0163 -0.2192 -0.2626
 7109W        W23293  15.948  13.324  15.897  0.0805 -0.0524 -0.1553
 7110W        W23294  10.811  15.174  12.979 -0.2475 -0.1039 -0.2587
 7111W        W23295   4.012   0.202  15.562 -0.0776  0.0397  0.3229
 7112W        W23296   0.829  13.327  14.458 -0.1436 -0.0682 -0.0135
 7113W        W23297   7.521  11.193   5.516 -0.1410  0.0180 -0.0545
 7114W        W23298  18.295  16.927   1.238 -0.2942  0.0722  0.3360
 7115W        W23299  13.798  13.680   1.029 -0.3877 -0.0641  0.0752
 7116W        W23300   1.952  13.496   3.587  0.6249 -0.0951 -0.1458
 7117W        W23301   2.408  13.558   4.941 -0.1086  0.0571  0.2822
 7118W        W23302   8.554   0.284   2.134  0.0486  0.0073 -0.0910
 7119W        W23303   5.201   3.115  13.066  0.1852  0.1605  0.0983
 7120W        W23304  12.731  12.272   5.795 -0.0796  0.1519  0.1454
 7121W        W23305  16.187  11.976   3.837  0.2713 -0.3718  0.2508
 7122W        W23306  11.161  12.399   3.206  0.0712 -0.1898 -0.1195
 7123W        W23307   7.056  17.974  11.981 -0.0992  0.3135 -0.1593
 7124W        W23308  13.596   9.727  12.172 -0.1162 -0.1899 -0.1867
 7125W        W23309   7.622   3.301   1.408 -0.0042  0.2231 -0.0193
 7126W        W23310  17.516  15.154  12.988 -0.0064  0.1947 -0.0736
 7127W        W23311  13.591  13.515   1.462 -0.3141 -0.0604 -0.0826
 7128W        W23312  10.103  18.133  13.063  0.2566 -0.4182 -0.2858
 7129W        W23313  18.397  10.577   3.585  0.0871 -0.1981  0.1802
 7130W        W23314   5.987   2.759   5.051  0.2770 -0.4509 -0.0974
 7131W        W23315   8.673  15.053  14.502 -0.0168 -0.2150  0.2789
 7132W        W23316  17.297  11.647   0.786  0.1311 -0.2281 -0.3386
 7133W        W23317   3.979   5.373   5.160 -0.0253 -0.2008 -0.0781
 7134W        W23318  10.812   0.682   5.035 -0.0055  0.0130  0.3154
 7135W        W23319   9.830   8.410  13.444  0.0063  0.2971  0.0289
 7136W        W23320  16.621  14.920  13.915  0.2648  0.0336  0.1650
 7137W        W23321   9.076   6.613  11.430 -0.1794 -0.0801 -0.1787
 7138W        W23322  14.251  11.324   2.265 -0.2829  0.0811  0.1682
 7139W        W23323  16.021  10.294  11.816  0.0098  0.0187  0.1694
 7140W        W23324   6.656   2.575   2.868 -0.1265  0.3922  0.0586
 7141W        W23325   9.039  14.297   3.210 -0.0717  0.1028 -0.2601
 7142W        W23326   2.717   2.779   1.325 -0.2205 -0.2532  0.0153
 7143W        W23327  10.879   9.825   1.540  0.1301 -0.1993 -0.0886
 7144W        W23328  15.571  14.237   4.725 -0.0962 -0.3898  0.2179
 7145W        W23329   4.628   3.089  15.062  0.1627 -0.1012  0.0972
 7146W        W23330   9.059  17.531  13.206  0.2981  0.0039  0.4583
 7147W        W23331  11.373   6.417   5.252  0.1631  0.0562 -0.1313
 7148W        W23332  13.556  10.981  13.714 -0.1607 -0.4759 -0.0665
 7149W        W23333   3.424  17.412  12.216 -0.1205 -0.2049 -0.0644
 7150W        W23334  11.060   2.382  14.322  0.1000 -0.3463  0.0174
 7151W        W23335   1.389   7.380   2.965  0.0885 -0.0601  0.0764
 7152W        W23336   3.153   1.733  13.107  0.4645 -0.0144  0.0856
 7153W        W23337   8.587  17.702  12.331 -0.0395  0.0634  0.0702
 7154W        W23338   8.529   2.855  13.014 -0.0579 -0.0321 -0.2264
 7155W        W23339   7.724  17.904   2.374 -0.1306  0.1414  0.2044
 7156W        W23340   7.027   3.805  13.856 -0.2629 -0.2254  0.2155
 7157W        W23341  15.064  16.624   3.553 -0.2234 -0.0807 -0.3478
 7158W        W23342  18.272  11.784  14.500 -0.1385 -0.2669 -0.4533
 7159W        W23343  17.894  11.181  13.059  0.0224 -0.0399 -0.2132
 7160W        W23344  15.891  17.857   3.995 -0.0643 -0.4724  0.1854
 7161W        W23345   0.600   0.826   3.604  0.1506 -0.0727  0.0436
 7162W        W23346   9.243   6.975   5.878  0.1438  0.0265  0.2156
 7163W        W23347   8.523   0.111   5.089 -0.1717  0.2002 -0.3128
 7164W        W23348   2.447   8.552   1.964 -0.1465  0.1521 -0.3861
 7165W        W23349  13.919   7.470  14.547 -0.1871 -0.1945 -0.2323
 7166W        W23350  15.813   1.684   5.760  0.0184 -0.0333 -0.0439
 7167W        W23351  14.962  16.165   0.361 -0.0530 -0.2103  0.1224
 7168W        W23352  18.161   3.500   0.429 -0.0922 -0.2654  0.0492
 7169W        W23353   4.406   5.262   5.888 -0.0250  0.0639 -0.1777
 7170W        W23354  15.272   0.217   2.514 -0.1189  0.2435  0.0389
 7171W        W23355   5.784   2.819  11.168 -0.3605  0.0690 -0.0029
 7172W        W23356  11.177  15.509   4.226 -0.3755  0.0469 -0.0159
 7173W        W23357   5.767  18.060   1.745 -0.0024 -0.2373 -0.0769
 7174W        W23358  17.579  15.825  14.592  0.0842  0.2014 -0.1157
 7175W        W23359  17.319  10.623  13.932  0.0252  0.2773  0.0951
 7176W        W23360   3.573   1.888   5.794  0.0475 -0.1446  0.1631
 7177W        W23361  16.565   1.573  14.543  0.1505 -0.0025 -0.1871
 7178W        W23362   3.293   9.893  15.740 -0.1439  0.0155  0.2848
 7179W        W23363  16.191   1.908  12.813 -0.0952  0.3852  0.0422
 7180W        W23364  10.830  10.785   2.819 -0.0052 -0.3751  0.2095
 7181W        W23365   6.511   9.996   4.151 -0.1645  0.1148  0.3211
 7182W        W23366  10.606  14.300  14.303  0.0468  0.1183 -0.5987
 7183W        W23367   1.760   3.481   0.780 -0.2472 -0.0386  0.1727
 7184W        W23368   4.521  16.097   5.739  0.0577  0.3058 -0.2310
 7185W        W23369   8.820   8.465   0.250 -0.0897 -0.1176  0.1075
 7186W        W23370   5.884  13.107  11.880  0.2212  0.0943 -0.2710
 7187W        W23371  14.069   5.420  14.954 -0.1085  0.0855 -0.0701
 7188W        W23372   9.613  18.299   4.183  0.1753  0.0245 -0.1095
 7189W        W23373   5.803  15.195   3.215  0.1772  0.0682  0.3250
 7190W        W23374   8.203   2.742   5.261  0.2917 -0.3043  0.0399
 7191W        W23375  12.323   2.255   0.186 -0.1575 -0.0443  0.1882
 7192W        W23376  16.558   9.997   4.587 -0.1506  0.2995  0.0899
 7193W        W23377  13.395  10.537  12.926  0.2438  0.0032  0.0672
 7194W        W23378   4.294   3.835  14.536 -0.2135 -0.0899 -0.0940
 7195W        W23379  15.926  10.910  15.294 -0.1670  0.0462  0.0236
 7196W        W23380  14.511  13.766   2.449  0.0093 -0.1127 -0.1986
 7197W        W23381   4.842   3.425   2.859 -0.0868  0.0504 -0.0402
 7198W        W23382   4.233   2.998   0.560  0.1452 -0.2195 -0.2357
 7199W        W23383   8.281   3.399   0.070 -0.2894  0.0606  0.0786
 7200W        W23384  12.628  11.964  13.112  0.0019  0.0633 -0.5361
 7201W        W23385  15.864   9.129  11.950  0.1481 -0.2866 -0.1503
 7202W        W23386  11.310  17.330   5.565  0.1159 -0.1538 -0.0985
 7203W        W23387   0.953  14.912  14.309  0.1977  0.0496  0.3582
 7204W        W23388   0.752   9.457   3.087 -0.0464  0.1527  0.0180
 7205W        W23389  16.520   5.471   2.071  0.0810 -0.1055 -0.0940
 7206W        W23390  15.852  13.881   4.485 -0.1983 -0.1858  0.0884
 7207W        W23391  13.306   1.907   1.288  0.2610 -0.1983 -0.5000
 7208W        W23392   0.113  15.908  11.093  0.1179 -0.1847  0.3081
 7209W        W23393   6.111   1.285   2.255  0.0154 -0.2533  0.0232
 7210W        W23394  17.035   6.104  11.245  0.1912 -0.1343 -0.2547
 7211W        W23395  10.059   1.909   0.523 -0.1200  0.2617 -0.0655
 7212W        W23396   0.640  17.055   4.607  0.2286 -0.2807  0.1973
 7213W        W23397   5.552   9.816  11.803 -0.3091  0.2294  0.2130
 7214W        W23398  15.859  12.930   5.126  0.1290 -0.0080 -0.0311
 7215W        W23399  11.890  17.157   4.569 -0.0006  0.1377  0.2327
 7216W        W23400   2.561   7.103  11.621  0.0070 -0.3350 -0.0952
 7217W        W23401  11.875   6.419  10.525  0.2375  0.1406 -0.2038
 7218W        W23402   2.908  12.382   4.420 -0.1961 -0.0309 -0.0588
 7219W        W23403   4.965  11.962   1.046  0.1512  0.1770  0.1187
 7220W        W23404   1.170  12.939   5.065 -0.3852 -0.0074  0.0874
 7221W        W23405  17.625   0.461  12.895  0.1170  0.2991 -0.2061
 7222W        W23406   3.534  15.459   1.443 -0.1084 -0.0370  0.1218
 7223W        W23407  11.893   8.749  13.278 -0.1513  0.0834 -0.1211
 7224W        W23408  18.043  12.213  13.636  0.0511 -0.2215  0.4078
 7225W        W23409   2.262   9.155   4.250  0.0413 -0.1628  0.0730
 7226W        W23410  12.097   9.087  15.918 -0.0475 -0.0655 -0.2221
 7227W        W23411   6.495   9.509  12.334 -0.1255  0.2359 -0.1698
 7228W        W23412  16.415  18.003   0.395  0.3854 -0.2677 -0.2003
 7229W        W23413   0.172   4.732  11.327  0.0441 -0.0546  0.1680
 7230W        W23414   5.771   2.319  15.712 -0.0393 -0.1440 -0.1916
 7231W        W23415  13.182  17.565  11.645  0.0989 -0.1750  0.2108
 7232W        W23416  16.120   2.552   0.288  0.1201  0.0999  0.1632
 7233W        W23417  12.470  17.827   2.539  0.0172 -0.2884 -0.1460
 7234W        W23418   6.158   5.455   0.430  0.0960 -0.5024  0.1352
 7235W        W23419  12.836   9.647   1.429  0.0093 -0.1426 -0.0633
 7236W        W23420  17.696  17.917  14.675 -0.1753  0.0612  0.5210
 7237W        W23421   1.862   7.307  12.937  0.1081 -0.1318  0.0145
 7238W        W23422   0.321  11.449  12.891 -0.0483  0.2856  0.1106
 7239W        W23423  12.111  17.639   0.765  0.0468  0.0026  0.2308
 7240W        W23424  18.131  12.778  12.260 -0.0853  0.1550  0.3052
 7241W        W23425   6.608  16.408  14.888  0.1159  0.3254  0.1013
 7242W        W23426   6.807   9.877   0.662 -0.1202  0.1888  0.2619
 7243W        W23427   0.664  13.874  15.990  0.0545 -0.0609  0.0273
 7244W        W23428   3.180  18.121  11.620  0.3091  0.1770 -0.1257
 7245W        W23429  15.164   6.621   2.624 -0.0543  0.0551 -0.4600
 7246W        W23430   6.533   2.470   3.347 -0.0244 -0.1960  0.3276
 7247W        W23431   2.814   9.003  11.514 -0.0913  0.0627 -0.2256
 7248W        W23432   1.291   1.638  12.310 -0.0470  0.0187  0.1462
 7249W        W23433   7.248   3.101  13.781  0.0009 -0.2203 -0.0260
 7250W        W23434  11.464   6.715  11.779  0.1502 -0.3462 -0.0050
 7251W        W23435  16.698   1.739  11.613  0.0943  0.1188  0.0334
 7252W        W23436  12.570   7.340   2.652 -0.1109  0.3777  0.2009
 7253W        W23437  16.311   0.250   1.067  0.2603  0.0744 -0.0764
 7254W        W23438   7.332   5.901  15.352 -0.0330 -0.1960 -0.1719
 7255W        W23439  12.516  13.213  12.383  0.0431 -0.0701 -0.0898
 7256W        W23440   1.740   4.416   3.469  0.0105  0.0019 -0.0014
 7257W        W23441   9.260   3.194   4.614 -0.1340 -0.0087 -0.3146
 7258W        W23442   0.527   8.097   2.183 -0.0668 -0.2613 -0.0895
 7259W        W23443  10.667   5.541   3.355 -0.5771 -0.3156  0.1091
 7260W        W23444   0.942  10.583  13.927  0.2028 -0.0463  0.1880
 7261W        W23445   1.652  10.766   0.841 -0.1977 -0.1014 -0.2069
 7262W        W23446  18.043  16.421  11.965 -0.0389  0.0890  0.1954
 7263W        W23447  14.172   4.950  14.740  0.0170  0.1715 -0.0705
 7264W        W23448  16.025  14.247  12.983  0.0657  0.2077 -0.1188
 7265W        W23449   7.640  10.625  14.413  0.3570 -0.0866  0.2920
 7266W        W23450  12.571  11.755   2.636  0.0124 -0.0377 -0.0410
 7267W        W23451   4.816   6.473  15.706 -0.1103  0.3204  0.1876
 7268W        W23452   4.042  13.155  15.174 -0.1111 -0.1844 -0.1403
 7269W        W23453   3.278  10.163   2.043 -0.2401  0.1220 -0.3012
 7270W        W23454  10.429   9.692  15.476 -0.1432 -0.3043 -0.2788
 7271W        W23455  16.167   0.994  13.831  0.0405  0.4530 -0.0740
 7272W        W23456  15.782  13.176   1.347  0.1527 -0.0471  0.5100
 7273W        W23457  16.465  13.500   2.334 -0.1661  0.1213  0.2608
 7274W        W23458  18.449  12.518   3.015 -0.2449 -0.0123  0.1706
 7275W        W23459  13.433   5.298   0.105  0.0721  0.0363 -0.0771
 7276W        W23460   5.153   0.340   2.117 -0.0545  0.1635 -0.2552
 7277W        W23461   2.000  15.424   1.718 -0.1130 -0.0761  0.0598
 7278W        W23462  17.015   5.735   5.296 -0.0493  0.1343 -0.2644
 7279W        W23463   2.585  13.338  16.058  0.2514 -0.3377 -0.2619
 7280W        W23464   4.414   1.896  14.029  0.1473  0.0409  0.0275
 7281W        W23465  17.347  10.174   0.508  0.0771  0.2464  0.1905
 7282W        W23466  12.259   3.580   4.085  0.0788  0.0887 -0.0210
 7283W        W23467   0.794   0.705  10.925  0.2225 -0.0891  0.0779
 7284W        W23468   1.891   9.471  12.819 -0.2079 -0.1443  0.1453
 7285W        W23469  16.862   0.695  15.521 -0.2349 -0.1548 -0.3109
 7286W        W23470   4.714  15.552  11.329 -0.0901  0.1447 -0.2625
 7287W        W23471   4.942  11.392   4.348  0.1064 -0.1846 -0.0685
 7288W        W23472  15.665  18.191  12.218  0.2495 -0.1924  0.0962
 7289W        W23473   1.625  14.525   1.368  0.4075  0.0938  0.1513
 7290W        W23474   8.025  15.788  14.044 -0.5599 -0.4361 -0.0659
 7291W        W23475   3.419   4.897  14.120 -0.0555  0.1668  0.0465
 7292W        W23476   3.127  13.114   3.006  0.3239 -0.0840  0.1741
 7293W        W23477   2.635   8.952  13.286  0.0591  0.1379 -0.1936
 7294W        W23478   6.343  17.328   3.933 -0.0980 -0.1368 -0.0813
 7295W        W23479   3.045  13.075  13.128  0.4147 -0.0928  0.3850
 7296W        W23480   3.978  16.166  11.813 -0.1315  0.1096 -0.1524
 7297W        W23481   8.795   9.536   4.889  0.1736 -0.0763  0.1918
 7298W        W23482   4.282   8.872   1.274 -0.1214 -0.1438  0.1933
 7299W        W23483   2.469   8.801   4.558  0.0342 -0.2126 -0.0124
 7300W        W23484   5.919  13.759   5.116 -0.0665 -0.0240  0.2359
 7301W        W23485  14.266   1.552   4.243 -0.0164 -0.1210  0.0147
 7302W        W23486  17.521   5.772  12.089 -0.1548 -0.3234  0.0457
 7303W        W23487  11.358  18.138  11.391  0.1374 -0.0956  0.0988
 7304W        W23488   8.740   9.330   2.149  0.0005 -0.4029 -0.3100
 7305W        W23489   3.847  13.763   2.282 -0.0360  0.0496 -0.1750
 7306W        W23490  12.410  11.573  11.807  0.1779 -0.2250 -0.1675
 7307W        W23491  14.228   7.184  15.901  0.2687 -0.0051 -0.1476
 7308W        W23492   7.692  11.571   5.242  0.0899 -0.1757  0.1599
 7309W        W23493   2.117  10.720   3.978 -0.2519  0.2176  0.0543
 7310W        W23494   3.011   2.163   3.429 -0.2881 -0.0415  0.1819
 7311W        W23495  17.353  18.358   2.510  0.3231  0.5045 -0.1562
 7312W        W23496   7.233   5.158   5.131 -0.0569  0.0087  0.0321
 7313W        W23497  10.505   5.441   5.258  0.2107 -0.0506 -0.0689
 7314W        W23498   9.755  14.104   0.632  0.2447 -0.0041  0.3099
 7315W        W23499  17.036  15.128   3.800  0.3915  0.2011  0.0586
 7316W        W23500   2.747  16.040   1.734  0.0894 -0.0687 -0.0766
 7317W        W23501   5.020  17.228   0.649 -0.1303 -0.0698 -0.3043
 7318W        W23502   3.085   6.897   1.395  0.6709 -0.2314 -0.1102
 7319W        W23503  17.601  14.844  13.896  0.1530 -0.0986 -0.3659
 7320W        W23504   8.595   7.388  15.402 -0.1066  0.2403  0.0802
 7321W        W23505   1.597  17.196   0.433 -0.1581  0.0707  0.1461
 7322W        W23506   0.435  10.753   2.812 -0.0182  0.1007 -0.1477
 7323W        W23507  10.017  15.616   0.518  0.2332 -0.0008  0.0046
 7324W        W23508   8.320   2.683  10.752 -0.1418 -0.0754 -0.0816
 7325W        W23509  14.714   0.197   4.571 -0.0652 -0.3030  0.0600
 7326W        W23510  16.762  17.332  12.462 -0.2575  0.2199 -0.1999
 7327W        W23511  10.199   2.905   2.896  0.1028 -0.0930  0.3689
 7328W        W23512  14.801   4.804   0.666  0.1521 -0.1418  0.4169
 7329W        W23513  10.514   1.160   0.545  0.0915  0.5079  0.0146
 7330W        W23514  11.915   1.021   5.906  0.0129 -0.2635  0.2239
 7331W        W23515   7.055   0.225   3.415 -0.1513  0.1599 -0.2343
 7332W        W23516   1.670  11.900   1.870  0.0456  0.0066  0.1692
 7333W        W23517   3.272  11.564   5.587  0.2124  0.0483 -0.3410
 7334W        W23518   6.685  10.718  11.570  0.1712 -0.0200  0.1465
 7335W        W23519  13.179   5.870  14.551  0.0228  0.3328  0.1645
 7336W        W23520  11.083   0.564   0.152 -0.3571  0.1290  0.1112
 7337W        W23521  12.547   3.384  14.768 -0.1564  0.1595 -0.1628
 7338W        W23522  10.393   8.356   5.039 -0.0412  0.3219 -0.2640
 7339W        W23523  16.247   1.755   2.884  0.0780  0.3000  0.0867
 7340W        W23524   6.581  13.765  11.225  0.1845 -0.2873  0.4476
 7341W        W23525   4.692   8.696  12.116  0.1704  0.1137  0.0228
 7342W        W23526  13.620  17.398  11.887 -0.0206 -0.0030  0.0340
 7343W        W23527  13.192   0.527   4.090  0.1002  0.1165  0.2393
 7344W        W23528  13.215   5.598  15.821 -0.0517 -0.0716  0.0168
 7345W        W23529   3.463  17.550   0.089 -0.2072 -0.1977  0.1068
 7346W        W23530   6.308   9.896  11.511  0.1204  0.0013 -0.2507
 7347W        W23531   9.373  12.905   0.387 -0.0554  0.2615 -0.0574
 7348W        W23532  11.461   3.997  11.673  0.2208 -0.2603  0.0722
 7349W        W23533   3.185  15.097  12.009 -0.1682  0.1706  0.0958
 7350W        W23534   1.008   5.850   0.179 -0.1658 -0.1634 -0.0598
 7351W        W23535   0.632   4.070  11.904  0.1532 -0.0454  0.0601
 7352W        W23536   8.062  13.026   2.577  0.0580 -0.3360  0.2771
 7353W        W23537   6.180  17.445  15.115 -0.4645  0.3079  0.1453
 7354W        W23538  16.310  16.565   1.334  0.0908 -0.0177 -0.1078
 7355W        W23539  13.579  14.107   3.761 -0.2223 -0.1744  0.0738
 7356W        W23540   4.703   3.473   4.395  0.0928 -0.0282  0.1906
 7357W        W23541   2.495   8.365  12.230  0.1497  0.2657  0.0717
 7358W        W23542   4.655   2.806  11.147 -0.1691  0.0540  0.0193
 7359W        W23543   3.182   7.346  15.562 -0.0848 -0.0392 -0.1316
 7360W        W23544  18.024   9.822  15.616  0.0379  0.0361 -0.0142
 7361W        W23545   6.127   0.193   2.011  0.0251 -0.0468 -0.2092
 7362W        W23546  13.305  13.051  12.833  0.0625 -0.0248  0.2395
 7363W        W23547  14.729  15.664  13.423  0.1710 -0.2305  0.0751
 7364W        W23548   5.492   3.473  14.094  0.2449 -0.1705  0.2352
 7365W        W23549  15.147   3.225   2.671  0.0150  0.1247 -0.0254
 7366W        W23550   3.666  10.476   2.187  0.3159  0.1809 -0.1291
 7367W        W23551  12.053   9.531   6.591  0.2692 -0.0927  0.0779
 7368W        W23552  12.075   5.770   5.196 -0.0692  0.4014 -0.0054
 7369W        W23553  16.620  13.823  12.272 -0.1261 -0.0098 -0.0761
 7370W        W23554  17.375   7.063   3.993  0.0319  0.4392  0.0885
 7371W        W23555  15.775  15.194  11.262 -0.0779 -0.5434 -0.2758
 7372W        W23556   7.318  14.396   4.268 -0.1392 -0.1280 -0.0805
 7373W        W23557  18.192  17.738  14.674 -0.3719  0.2072  0.1724
 7374W        W23558  15.579  10.246  15.935 -0.1059 -0.0893  0.1241
 7375W        W23559  13.943   3.042  16.002 -0.0643 -0.2132  0.0781
 7376W        W23560   5.653   7.343   2.262  0.1584 -0.0526  0.1528
 7377W        W23561   5.528  11.991  13.995  0.0460 -0.0703 -0.2195
 7378W        W23562  17.427   5.532  12.559 -0.0376 -0.2799 -0.1456
 7379W        W23563  17.514  15.378   2.123 -0.2095  0.1395  0.0055
 7380W        W23564   2.598  17.473   1.047  0.0029  0.2420  0.0909
 7381W        W23565  16.315  18.194   4.054  0.0219 -0.0773 -0.0528
 7382W        W23566  16.876   0.572   4.689  0.0626  0.2671  0.3930
 7383W        W23567   2.636  17.158  11.624 -0.2698 -0.0998  0.2543
 7384W        W23568  12.572  18.324  12.676 -0.0568 -0.1970 -0.1257
 7385W        W23569  10.336   1.571   0.806  0.0346  0.1664 -0.2095
 7386W        W23570  18.205  10.335  13.219  0.2063  0.0480  0.1979
 7387W        W23571  15.784   6.412  16.076 -0.2169  0.1647  0.4148
 7388W        W23572  12.564   1.889   3.164 -0.0115 -0.4059 -0.1213
 7389W        W23573  13.646  14.822   0.672 -0.0422 -0.2200  0.2925
 7390W        W23574  13.457   8.943   2.469  0.3622  0.0296 -0.0885
 7391W        W23575  12.160   0.851  13.170 -0.2988 -0.3929 -0.0463
 7392W        W23576   0.082   2.554   2.505  0.1418  0.1022  0.0622
 7393W        W23577  16.967  17.981  11.170 -0.1989  0.0572  0.3949
 7394W        W23578   4.850  12.029  12.765 -0.0834  0.1875 -0.0505
 7395W        W23579  15.032  13.792  11.095 -0.0326  0.2341 -0.1920
 7396W        W23580   9.632  15.452   2.414 -0.1553 -0.1599  0.0887
 7397W        W23581  10.051   8.747  14.698 -0.1706  0.0824  0.3119
 7398W        W23582   4.398  12.359   5.318  0.1086  0.0418 -0.1498
 7399W        W23583  16.764  12.606  11.729 -0.1109 -0.2173  0.1368
 7400W        W23584   3.519   6.238   0.273 -0.2520  0.2838  0.0400
 7401W        W23585   4.077   2.639   1.542 -0.0671  0.0495  0.1624
 7402W        W23586   8.472   3.136  12.520  0.0085  0.0414  0.4085
 7403W        W23587  17.586   3.002  11.819 -0.3120 -0.0316 -0.1267
 7404W        W23588  14.023   3.252  11.655  0.0129 -0.1590 -0.2347
 7405W        W23589   3.144  16.534  14.390  0.1111  0.0380 -0.0772
 7406W        W23590  11.467   6.040   3.647 -0.0242  0.1672  0.1287
 7407W        W23591  13.274  14.744  11.747 -0.1427 -0.1208  0.0174
 7408W        W23592   9.941  16.040   4.386 -0.4081 -0.1468 -0.1200
 7409W        W23593   6.494   0.699   1.853 -0.0799 -0.0891 -0.3971
 7410W        W23594   2.304  14.949  15.230 -0.0894  0.3566  0.3110
 7411W        W23595   0.453   9.723  13.497  0.1005 -0.1488 -0.0229
 7412W        W23596   9.635  12.866   2.923  0.2114 -0.0260  0.0411
 7413W        W23597   4.112   1.035  10.870  0.0531 -0.1806  0.0233
 7414W        W23598  15.847   9.607  13.259 -0.2714 -0.2741 -0.0236
 7415W        W23599  10.006   8.641  15.187  0.2309 -0.1549 -0.3042
 7416W        W23600   4.118  15.897  15.936 -0.0060  0.0090  0.1750
 7417W        W23601  13.191   5.698   1.776  0.0877  0.0263  0.3705
 7418W        W23602  10.763   5.672  13.599  0.0231 -0.1829  0.0172
 7419W        W23603  17.604   2.832   3.305 -0.1326 -0.0342 -0.1253
 7420W        W23604   0.266  12.603   3.846  0.1894  0.2738  0.2457
 7421W        W23605  13.026   8.219  12.120  0.0034  0.1994 -0.1415
 7422W        W23606   5.260   4.625  13.239  0.0747 -0.0332  0.0926
 7423W        W23607  15.736  10.096  12.984 -0.3601  0.2462  0.0384
 7424W        W23608  15.566   1.968   3.810  0.0426 -0.0660  0.1241
 7425W        W23609  12.775   8.596   4.665  0.0763  0.1174  0.1036
 7426W        W23610   0.801   6.564   2.784 -0.0507  0.3284  0.0894
 7427W        W23611  11.176  12.606   0.062 -0.0843 -0.1980 -0.1864
 7428W        W23612  17.410  14.160  12.255 -0.0787  0.1532  0.2090
 7429W        W23613  14.697   2.774   5.068 -0.2710 -0.0372  0.0262
 7430W        W23614   7.637  17.070  13.004 -0.2094  0.0837  0.2117
 7431W        W23615  17.100  17.726  10.462  0.3794 -0.0148 -0.1037
 7432W        W23616  15.470  16.652   1.238 -0.5747  0.1813  0.0691
 7433W        W23617   7.116   6.019   0.732 -0.1722 -0.0327  0.1097
 7434W        W23618   8.588  14.745   1.129  0.0310 -0.3220  0.0316
 7435W        W23619  12.027  16.551  11.147  0.0432  0.2490  0.3400
 7436W        W23620   8.790  16.252  12.731  0.1587 -0.1249 -0.2378
 7437W        W23621   4.160  14.154  14.833  0.1299 -0.1673 -0.2317
 7438W        W23622   0.678   2.937   3.927  0.0879  0.0206  0.1373
 7439W        W23623  11.999  16.348   0.253  0.2818  0.0789  0.1737
 7440W        W23624   6.398   5.908   0.543  0.2323  0.2759  0.0735
 7441W        W23625   2.405   4.796  11.205 -0.0930 -0.0506  0.2389
 7442W        W23626   3.666   5.457  13.066  0.0041 -0.1201 -0.1065
 7443W        W23627   4.883  13.316   4.365 -0.0629 -0.0046  0.0803
 7444W        W23628  10.652   9.766  11.806 -0.0127 -0.0052  0.1788
 7445W        W23629  15.375  15.022   2.604  0.0946 -0.2290  0.2078
 7446W        W23630  10.691   9.712  12.258  0.0245  0.3721  0.0616
 7447W        W23631  10.089  16.626  11.915  0.1519 -0.0458  0.0194
 7448W        W23632   9.772   2.408   2.287 -0.0457  0.2320 -0.0547
 7449W        W23633   9.530   9.260   5.235  0.1314 -0.1506 -0.0669
 7450W        W23634   1.742  10.985  12.962  0.1048  0.5195  0.0206
 7451W        W23635   8.803  14.055   0.686 -0.2193  0.0778  0.2223
 7452W        W23636  17.897   4.957  13.940  0.1295  0.2272 -0.1356
 7453W        W23637  13.996   2.471   6.137 -0.1653 -0.1108  0.0488
 7454W        W23638   4.996   6.317  13.159  0.4106 -0.0040  0.0009
 7455W        W23639  18.153  15.197   3.129  0.3302  0.0422 -0.0333
 7456W        W23640  12.496  12.894   2.215 -0.0124  0.0167 -0.0153
 7457W        W23641   8.650   1.929   3.685  0.1922  0.2106  0.1003
 7458W        W23642   4.971  16.537   4.757 -0.0349 -0.0556  0.1315
 7459W        W23643  11.883  16.232   3.508  0.3207  0.2859  0.1993
 7460W        W23644  18.208   1.886   3.467 -0.2620 -0.1568 -0.1378
 7461W        W23645   5.340  12.648  11.373  0.1327 -0.2081  0.0321
 7462W        W23646   9.633   5.954  12.348  0.2360 -0.0940  0.0233
 7463W        W23647   4.016  15.944   4.535 -0.1302 -0.0691 -0.1161
 7464W        W23648  10.822  13.054  12.981  0.0019 -0.0249 -0.2763
 7465W        W23649  13.158  11.470  14.192  0.0585  0.0485 -0.0887
 7466W        W23650   8.971   2.170  11.894 -0.1195 -0.0563 -0.3242
 7467W        W23651   5.573  11.185  11.318  0.0475  0.0208  0.1528
 7468W        W23652   8.114  13.418   4.365  0.2043 -0.1749  0.0839
 7469W        W23653   4.694   4.984   1.570  0.0548 -0.4253 -0.3170
 7470W        W23654   0.343   7.596  16.028 -0.1916  0.2077 -0.4444
 7471W        W23655   6.955   8.484   2.496 -0.0344 -0.1506  0.0160
 7472W        W23656  17.300   1.179  14.717 -0.1715 -0.3544  0.0005
 7473W        W23657  14.917   6.793   5.189 -0.2081 -0.2339  0.1704
 7474W        W23658  10.294  16.722   0.263 -0.1102  0.2396  0.0035
 7475W        W23659  15.306   5.817  13.435 -0.0303 -0.0247  0.2055
 7476W        W23660   2.327  13.081   1.472  0.1682  0.0447  0.3135
 7477W        W23661   3.442   4.897   4.825  0.0744  0.1336  0.2698
 7478W        W23662   7.818  17.073   0.524  0.0023 -0.2295 -0.1347
 7479W        W23663   1.001   8.245   0.176 -0.4523 -0.1802 -0.2710
 7480W        W23664   9.382  11.749  13.377  0.3442 -0.1287 -0.3463
 7481W        W23665  10.039   0.520   4.137  0.0083 -0.2971 -0.0351
 7482W        W23666   5.282  10.696  15.395 -0.0178  0.0257  0.2800
 7483W        W23667   8.655  16.323  13.263 -0.0840 -0.2047 -0.0764
 7484W        W23668   6.206  10.558   1.061  0.2724 -0.1665 -0.1134
 7485W        W23669  13.430  17.533  12.434  0.3429 -0.0595 -0.2084
 7486W        W23670   8.804  14.099   1.622  0.2857 -0.0988 -0.0723
 7487W        W23671  17.725  11.955   2.369 -0.0197  0.0818 -0.1592
 7488W        W23672   0.903   7.790  14.950 -0.2608  0.1147 -0.2182
 7489W        W23673   4.025   0.296  10.912  0.1217 -0.2017 -0.1621
 7490W        W23674  16.050   3.228  13.384 -0.2191  0.5757 -0.0011
 7491W        W23675   7.976   8.946   1.860  0.1966  0.1503 -0.0544
 7492W        W23676   4.029   4.652   3.553 -0.0529 -0.4809 -0.2267
 7493W        W23677   1.442  17.433   4.262  0.2268 -0.0382 -0.2417
 7494W        W23678   2.220   1.484   1.794  0.1226  0.2497  0.0379
 7495W        W23679  16.118  13.424  15.339 -0.0857  0.2640  0.2157
 7496W        W23680   8.696   0.791  14.727 -0.0894  0.1462 -0.0161
 7497W        W23681   7.488  14.327   1.684  0.1266 -0.2072 -0.1068
 7498W        W23682  13.324   6.642   2.396 -0.0920 -0.2522  0.3214
 7499W        W23683  13.598  13.663   5.865  0.0765  0.2767  0.2561
 7500W        W23684   4.286   5.993   1.534  0.3720 -0.0312  0.0321
 7501W        W23685  18.235   4.294  12.004 -0.1640 -0.2109 -0.0930
 7502W        W23686  10.707  14.307   5.011 -0.0300 -0.1515  0.2115
 7503W        W23687   3.902   5.253  11.498 -0.1761  0.2142 -0.2167
 7504W        W23688   3.587   1.512  14.472  0.0868 -0.3253 -0.1450
 7505W        W23689  14.314  13.186  12.047 -0.3792 -0.0256  0.1216
 7506W        W23690   8.975   8.460   1.975 -0.3208 -0.1842  0.2798
 7507W        W23691   1.126   6.694  11.820  0.3804  0.0355  0.2222
 7508W        W23692   5.015  17.083  14.819  0.1793 -0.0395 -0.1489
 7509W        W23693  17.436  11.423   4.814  0.1394 -0.0355 -0.3409
 7510W        W23694  16.866  11.491   2.729 -0.2807  0.0250 -0.1293
 7511W        W23695   6.488  15.996  14.262 -0.1323  0.0616 -0.0416
 7512W        W23696   8.684   4.433  15.961  0.2222  0.2016  0.0727
 7513W        W23697  14.202   2.801   0.765  0.1438 -0.1588  0.1690
 7514W        W23698   1.618   2.090   2.296 -0.0362  0.2334  0.1256
 7515W        W23699   7.039   8.124   0.109  0.0801 -0.4135  0.3635
 7516W        W23700   9.968  13.113   3.290  0.0952  0.0715  0.1431
 7517W        W23701   0.959  18.404   0.485 -0.1430 -0.2441 -0.1739
 7518W        W23702  14.104  11.752   3.429 -0.0601  0.1087 -0.0987
 7519W        W23703   3.177   2.490   4.609 -0.1296 -0.3520  0.1600
 7520W        W23704  17.470  17.377   4.842  0.3314  0.0690  0.0100
 7521W        W23705  18.079   1.681  15.471 -0.0702  0.0123 -0.3190
 7522W        W23706  15.701   2.426  11.637  0.0607 -0.0005  0.2744
 7523W        W23707   3.558   8.025  15.013  0.2068  0.0092 -0.2613
 7524W        W23708  10.793  17.978   5.196 -0.1894 -0.1127  0.1901
 7525W        W23709  12.562  16.191  14.695 -0.1250  0.1965  0.0450
 7526W        W23710   9.913   1.653  11.182 -0.0241 -0.0175 -0.2797
 7527W        W23711  15.035   7.646  12.765 -0.0109  0.1680 -0.2060
 7528W        W23712   8.969   5.610  13.261  0.1844 -0.3729 -0.0218
 7529W        W23713  14.836  10.206   0.357 -0.0252 -0.1642 -0.0792
 7530W        W23714   1.460   4.390  14.228  0.2222  0.0338  0.1448
 7531W        W23715  16.449   3.290   9.413 -0.0665  0.0854  0.2994
 7532W        W23716  11.979   6.738  11.853  0.0706 -0.0343 -0.0869
 7533W        W23717   0.777  11.436   1.585  0.0036  0.1669  0.1518
 7534W        W23718   3.025   8.146   0.025  0.1448 -0.1363  0.1731
 7535W        W23719   4.136   6.909   4.249  0.1506 -0.0594 -0.2947
 7536W        W23720   7.865   2.220  15.316 -0.1728  0.1657  0.0189
 7537W        W23721  10.518   2.653  14.232  0.0060 -0.0239 -0.0322
 7538W        W23722   4.768  11.810   4.000 -0.0830 -0.0787 -0.1949
 7539W        W23723  14.394   0.141  15.827  0.0165  0.0352 -0.2185
 7540W        W23724  15.324  12.396   0.931 -0.1743 -0.0251 -0.1430
 7541W        W23725   7.291   0.424  15.209 -0.3240  0.0414 -0.1502
 7542W        W23726  12.315  13.539   5.469 -0.2511  0.2224 -0.0824
 7543W        W23727   2.331  15.323  11.421 -0.1367  0.1084  0.2235
 7544W        W23728   3.022   3.915  13.127 -0.0106 -0.0791  0.0936
 7545W        W23729  13.213   8.094   5.233 -0.1122  0.3753  0.3648
 7546W        W23730   1.638  12.494  13.975 -0.1018 -0.2210 -0.1989
 7547W        W23731  11.999  17.102   1.607  0.0127  0.2955 -0.1121
 7548W        W23732  11.265  16.822   1.859 -0.0863 -0.1677 -0.0627
 7549W        W23733  17.459   5.358  15.247  0.1608 -0.1374  0.1652
 7550W        W23734   5.931   9.165   3.126 -0.2113 -0.2284  0.1229
 7551W        W23735  15.932   3.927  12.675 -0.2198  0.3510 -0.0003
 7552W        W23736  11.031   9.437   4.739 -0.1692  0.3138 -0.0125
 7553W        W23737  17.971  14.474   5.706  0.0496 -0.0935 -0.1129
 7554W        W23738   4.229   6.538   0.664 -0.0095  0.1787 -0.3988
 7555W        W23739   1.288  12.605   2.385 -0.2892  0.1163  0.0876
 7556W        W23740   3.309   2.628   0.673 -0.0786  0.1774 -0.0797
 7557W        W23741  15.153  17.244   2.812  0.0479 -0.2216  0.0418
 7558W        W23742  13.798  15.749   4.046 -0.2319  0.0366 -0.1984
 7559W        W23743  13.410  16.455   0.922 -0.1206 -0.0176 -0.0304
 7560W        W23744   9.284  13.685   0.555  0.0355 -0.1169  0.1383
 7561W        W23745   3.767   2.028   2.330 -0.2845 -0.2561 -0.0361
 7562W        W23746   6.154   3.593  13.742  0.0313 -0.2062 -0.0996
 7563W        W23747  12.084   4.595  12.889  0.0874 -0.0475  0.0949
 7564W        W23748  11.988  11.692   1.666 -0.1780 -0.3163 -0.0858
 7565W        W23749  10.633   3.337  15.543 -0.0031  0.1821 -0.2491
 7566W        W23750  15.001   8.433   0.473  0.0067 -0.1279  0.0649
 7567W        W23751  15.919   1.357   0.781 -0.0180  0.0864  0.0384
 7568W        W23752   8.904   8.733   5.485  0.0093 -0.1175 -0.3397
 7569W        W23753  12.887   3.752  11.976  0.3487 -0.2655  0.0903
 7570W        W23754  12.024  15.055   3.859 -0.0281 -0.0297 -0.1795
 7571W        W23755  10.021  15.550   3.242 -0.2935  0.1881  0.1157
 7572W        W23756  15.524   3.141  12.137 -0.0925  0.0144  0.0299
 7573W        W23757   1.071  15.634   4.570  0.4182 -0.1049 -0.0817
 7574W        W23758   1.356   7.075  14.611  0.2955 -0.0285 -0.0811
 7575W        W23759  14.843   8.603  12.080  0.1248 -0.0305 -0.0383
 7576W        W23760  17.437  12.320  15.373  0.1096  0.1175  0.0929
 7577W        W23761   6.984   9.587  11.537 -0.2349 -0.3661 -0.0310
 7578W        W23762  15.989   9.423   5.443  0.0471  0.0312  0.4104
 7579W        W23763  12.019   0.887   1.220  0.2008 -0.0732  0.2230
 7580W        W23764   6.298   3.318   0.004  0.2284  0.0594 -0.1829
 7581W        W23765  14.602  15.192  12.721  0.5086  0.3223  0.0543
 7582W        W23766   4.370  15.632   4.727  0.0403  0.2409  0.0915
 7583W        W23767   7.765  16.426   4.865 -0.1931 -0.4200 -0.1007
 7584W        W23768   0.000   5.841   2.612  0.2259 -0.5240 -0.0763
 7585W        W23769  13.079   7.912  13.989 -0.0960  0.2370 -0.1715
 7586W        W23770   7.883  16.789   1.550 -0.2157  0.0095 -0.0113
 7587W        W23771   0.156   1.028  13.477  0.1845 -0.3896  0.0827
 7588W        W23772  15.349  16.473   4.566  0.0254  0.2381 -0.3500
 7589W        W23773   7.162   9.970  13.156 -0.1782  0.4505  0.0906
 7590W        W23774  16.211   3.318   4.437 -0.0435 -0.3242  0.0646
 7591W        W23775   2.459  11.636  13.879  0.2228 -0.2190 -0.2234
 7592W        W23776   8.908  11.922   0.307 -0.0980 -0.1117 -0.3716
 7593W        W23777   1.556  18.285  14.110 -0.1491  0.1141  0.0218
 7594W        W23778   6.412  10.876   5.688  0.0810 -0.1119  0.3784
 7595W        W23779   8.057  14.382  14.505 -0.3549  0.0099  0.0548
 7596W        W23780  10.908   7.679  14.744  0.1575 -0.1175 -0.0717
 7597W        W23781  10.612   6.732   0.386 -0.0067 -0.0256 -0.1094
 7598W        W23782   9.525  15.938  12.304 -0.0505 -0.0174 -0.1757
 7599W        W23783  16.683  17.346  11.933 -0.3954  0.1043 -0.0447
 7600W        W23784   1.962  16.623   2.225 -0.3521 -0.0106  0.0375
 7601W        W23785   1.083   6.419  13.854  0.3288 -0.2046 -0.1419
 7602W        W23786  13.223   5.590  13.667  0.0409 -0.1802 -0.2586
 7603W        W23787   0.603   4.049  12.532  0.1394  0.4878 -0.1278
 7604W        W23788   8.075   7.841   2.767  0.0712  0.0747 -0.1842
 7605W        W23789   8.107   1.683   2.434 -0.0021  0.0711  0.0067
 7606W        W23790   2.079   8.904   0.234 -0.3551  0.3446 -0.0611
 7607W        W23791   9.157   5.249   3.801  0.1799  0.1504  0.2475
 7608W        W23792  13.159   9.189   0.302 -0.0377  0.3316 -0.0749
 7609W        W23793  11.974  11.386   1.279 -0.0926  0.0454  0.0591
 7610W        W23794   7.396   2.144   1.557 -0.1088  0.2919 -0.1541
 7611W        W23795   1.557   9.718   3.135  0.1863  0.2491  0.0329
 7612W        W23796  16.171  13.090   0.445  0.0349  0.1960 -0.0216
 7613W        W23797   0.948  15.229   0.769 -0.0520 -0.0155 -0.1276
 7614W        W23798   9.966  11.540   0.010  0.2436  0.4796  0.0121
 7615W        W23799  13.646   5.698  12.257  0.4250 -0.0961 -0.2667
 7616W        W23800  17.848   3.109   2.112  0.2167  0.0456 -0.0965
 7617W        W23801   7.384   2.205  15.178  0.0634 -0.0739  0.0306
 7618W        W23802  13.844  17.854   2.259 -0.1241  0.2124  0.3456
 7619W        W23803  12.984   9.410  11.435  0.0568 -0.2290 -0.3243
 7620W        W23804   8.556  14.273   2.049 -0.3622  0.0341  0.0557
 7621W        W23805   4.088   4.413  13.721  0.0926  0.0809  0.0171
 7622W        W23806  11.971  17.455   4.195  0.3754  0.0522 -0.1028
 7623W        W23807   4.650  16.868  15.988 -0.1609  0.3462  0.0318
 7624W        W23808  12.550   4.929   3.309 -0.0867  0.1468  0.0726
 7625W        W23809  17.620  15.661   5.295  0.0001 -0.0994 -0.3239
 7626W        W23810  16.421  10.372   3.653 -0.4453 -0.1840  0.2349
 7627W        W23811  18.494  15.661   2.061 -0.0983  0.0481 -0.0355
 7628W        W23812  12.272  14.796   4.203 -0.3472  0.2825  0.0893
 7629W        W23813   2.019   6.125  11.062  0.0558 -0.3775  0.0624
 7630W        W23814  16.527  10.511   4.076  0.1303 -0.0630 -0.2248
 7631W        W23815  17.001  14.727  15.113  0.1234 -0.1645  0.2369
 7632W        W23816   4.467  12.224   4.840 -0.0847  0.3574  0.2886
 7633W        W23817   7.148   5.174  15.302 -0.1764 -0.0336 -0.0060
 7634W        W23818  14.286  17.412  12.570  0.2021 -0.0364  0.1049
 7635W        W23819  17.057   5.596  14.894  0.1523  0.0629  0.1410
 7636W        W23820   1.526  11.898  12.746  0.1664  0.1110  0.1823
 7637W        W23821   6.400   1.557  15.822  0.0356 -0.0226 -0.2347
 7638W        W23822  14.799  18.210   1.241  0.0581  0.0001  0.2024
 7639W        W23823   2.615   7.128  14.241  0.2022  0.1885  0.2143
 7640W        W23824  12.016   8.417   3.134  0.1926 -0.0563 -0.1097
 7641W        W23825  10.867  15.264   5.185  0.0449  0.0338  0.2553
 7642W        W23826  17.343   8.261   3.475 -0.1821 -0.2164 -0.2891
 7643W        W23827   5.469   5.946  13.373  0.1398  0.1053 -0.1796
 7644W        W23828   2.946   3.204   1.525 -0.1462 -0.0812 -0.1983
 7645W        W23829   6.476  12.944  12.399 -0.2631  0.2199 -0.0236
 7646W        W23830  15.465  14.892   5.505 -0.1229 -0.0601  0.0763
 7647W        W23831  15.491  10.582   2.120 -0.2113 -0.0825 -0.0682
 7648W        W23832  17.366  15.078  12.543 -0.0236  0.0946  0.2410
 7649W        W23833   7.772   3.762   0.700 -0.0279  0.1200 -0.1812
 7650W        W23834   0.799   2.299   4.593  0.0394 -0.1932  0.2628
 7651W        W23835   6.597   5.331   1.211  0.0561  0.3597 -0.0517
 7652W        W23836  16.013  10.200   0.368  0.1867 -0.1078  0.1356
 7653W        W23837   8.392  16.625  13.551  0.3104 -0.1936 -0.1589
 7654W        W23838   1.280   5.070   1.782 -0.0442 -0.0053  0.1688
 7655W        W23839  10.273  10.891   5.322 -0.0427 -0.1081  0.0563
 7656W        W23840  12.165   7.500   1.309  0.1478 -0.2805  0.2501
 7657W        W23841  15.161   6.231  15.597 -0.1927 -0.0079 -0.4323
 7658W        W23842   3.559   4.816   3.745  0.2717  0.2729  0.1469
 7659W        W23843   1.053  17.567   0.461  0.0331  0.1955  0.0200
 7660W        W23844   3.127   4.517  14.302 -0.0996  0.1505  0.1964
 7661W        W23845  15.066   5.433  11.867  0.0973 -0.1579 -0.2711
 7662W        W23846  12.992  14.851  13.747  0.1304 -0.2625 -0.1720
 7663W        W23847   2.487   2.295  14.221  0.2259 -0.1480  0.0358
 7664W        W23848   2.006  15.370  15.140 -0.2490 -0.0358  0.0282
 7665W        W23849   1.729  14.309  14.563  0.4068  0.2035  0.0162
 7666W        W23850  11.386  10.497  15.290  0.1687 -0.0155  0.0951
 7667W        W23851  14.975  14.108   0.950 -0.3748 -0.0642 -0.1132
 7668W        W23852  16.302  15.687  14.974 -0.0348  0.0637 -0.0857
 7669W        W23853   0.502  12.332   2.289 -0.0109  0.0129 -0.0475
 7670W        W23854  14.803   7.604  14.545 -0.0890 -0.1167 -0.3944
 7671W        W23855  15.944   0.067   2.451  0.1053  0.0225 -0.0044
 7672W        W23856  10.665   6.738   2.900  0.0546 -0.0674 -0.1042
 7673W        W23857  13.674  11.144   2.632  0.2897 -0.1082  0.1264
 7674W        W23858   3.649  18.355  10.972  0.0865 -0.0921  0.2202
 7675W        W23859  12.788  11.511  11.017 -0.4802  0.1456 -0.1210
 7676W        W23860  13.661   7.605  12.686  0.0690  0.0131 -0.0027
 7677W        W23861  14.253  17.940  14.206 -0.1164 -0.0222 -0.0307
 7678W        W23862   1.658  17.596  14.883 -0.2395  0.2843  0.0088
 7679W        W23863   6.620   9.349   0.529  0.6932  0.0278 -0.3054
 7680W        W23864   9.860  10.536  10.505 -0.0197 -0.1337 -0.1752
 7681W        W23865   0.058  14.002   3.522 -0.3431  0.2946 -0.1670
 7682W        W23866   8.753   6.279  11.935  0.1649  0.1157  0.4595
 7683W        W23867  15.941   4.434   2.735  0.1832  0.3454 -0.2181
 7684W        W23868  15.132  13.062  15.488 -0.1557  0.0635 -0.1874
 7685W        W23869  14.563  14.890  13.133  0.1519  0.1801 -0.2513
 7686W        W23870  10.201   3.363  15.343  0.2099  0.1991 -0.1348
 7687W        W23871   6.776  16.331   3.118  0.1070  0.3947 -0.6494
 7688W        W23872   8.372   4.049   1.384 -0.1427 -0.2467 -0.1408
 7689W        W23873   7.113   6.600   3.013 -0.3536  0.3246 -0.0031
 7690W        W23874  18.509  14.597   4.172  0.1089  0.0714  0.2081
 7691W        W23875  17.470   9.571   4.322  0.2266  0.3651  0.0634
 7692W        W23876  12.212  15.149   1.760 -0.1792  0.0814 -0.2809
 7693W        W23877   8.842  11.061   2.392  0.0600  0.2635  0.0702
 7694W        W23878  14.965   6.374   1.587 -0.3090 -0.1666  0.1173
 7695W        W23879   6.535   5.142  12.841  0.4555  0.0905  0.0674
 7696W        W23880  11.212   8.788  15.282 -0.1788  0.0128  0.0791
 7697W        W23881   4.264  15.030   4.246  0.1217  0.3202  0.1155
 7698W        W23882  13.944   6.015   2.412 -0.0465 -0.0410 -0.1155
 7699W        W23883  11.535   0.806  12.523 -0.0580  0.0004  0.2410
 7700W        W23884  17.154  14.546   1.632 -0.0365  0.0874 -0.1594
 7701W        W23885  15.782   5.223  15.026  0.1028 -0.1100  0.1095
 7702W        W23886  17.044  14.917  12.977  0.0252 -0.3352 -0.0357
 7703W        W23887  18.489   3.355   5.596  0.0793 -0.1119  0.3222
 7704W        W23888  11.684  17.887   0.711  0.1182 -0.1763 -0.0429
 7705W        W23889   1.466  12.389   4.279 -0.1487  0.0681 -0.2576
 7706W        W23890   7.095  13.889   4.855  0.0587  0.2097  0.1389
 7707W        W23891  17.998   9.453  11.439 -0.2487  0.2745 -0.0794
 7708W        W23892  18.177   7.223   3.449 -0.3317  0.0502 -0.0792
 7709W        W23893  10.384   8.993   2.595  0.0659 -0.2041  0.0833
 7710W        W23894  17.041   5.146  13.582  0.1729 -0.0237  0.1305
 7711W        W23895   8.991  13.073  13.117  0.0672  0.2457  0.0936
 7712W        W23896   1.744  13.376   6.167  0.0423  0.0965 -0.0547
 7713W        W23897   0.051   5.572   5.955 -0.2188 -0.4699  0.1785
 7714W        W23898  10.426  16.643   4.303  0.0751  0.2093 -0.0982
 7715W        W23899  17.153   2.042   2.800 -0.1958 -0.1200 -0.1486
 7716W        W23900  17.200  12.020   0.500 -0.2648 -0.1816 -0.0026
 7717W        W23901  10.027   7.308   1.097  0.1219  0.1394  0.1876
 7718W        W23902  18.262   8.881  14.553 -0.0709  0.0391 -0.4076
 7719W        W23903  17.725  12.188  10.376 -0.0823 -0.1074  0.4350
 7720W        W23904  14.499   2.128  13.969 -0.1513 -0.0973  0.1374
 7721W        W23905   6.688   2.971  14.558  0.0491 -0.0416  0.1095
 7722W        W23906   3.612   4.190   0.523 -0.0128  0.1571 -0.3036
 7723W        W23907   3.124   1.083  12.481  0.2834 -0.0661 -0.1524
 7724W        W23908   5.941   4.210  15.338  0.3570  0.1135 -0.0213
 7725W        W23909   0.482   2.631  14.036 -0.1521  0.1067  0.3343
 7726W        W23910   4.752  13.983  11.662  0.4537  0.1603 -0.3907
 7727W        W23911   8.567  11.212   4.844 -0.0169 -0.0908  0.0810
 7728W        W23912  11.598   2.772   3.136  0.1105  0.0935 -0.1728
 7729W        W23913   1.661   4.118   4.763  0.0759  0.0813  0.1432
 7730W        W23914  16.330  11.774  14.755 -0.0489 -0.0081  0.0204
 7731W        W23915  13.173  16.535   1.724  0.0432  0.2527  0.0917
 7732W        W23916  15.762  16.878   5.398  0.1533 -0.1603  0.0550
 7733W        W23917   7.331   7.847  11.847 -0.1170  0.0474  0.1055
 7734W        W23918  12.158  12.866   3.092 -0.2396  0.2473  0.1488
 7735W        W23919   1.220  10.013  12.337 -0.0764  0.0285 -0.1003
 7736W        W23920  13.508   5.123  13.069 -0.3789  0.0072 -0.2001
 7737W        W23921   7.833   6.691   0.727 -0.0346  0.2445  0.2246
 7738W        W23922   3.645   7.354  12.996 -0.1544 -0.1656 -0.2170
 7739W        W23923  11.747   6.669   5.419  0.0348  0.1840 -0.0536
 7740W        W23924  16.368  14.738  15.834 -0.1526  0.0880  0.0122
 7741W        W23925  17.631   7.615   2.725  0.2195 -0.0049 -0.0809
 7742W        W23926   7.979   8.421  16.032  0.0592 -0.0399  0.3544
 7743W        W23927   5.744  10.075   3.011  0.0016  0.0206  0.2855
 7744W        W23928  10.443   9.336  12.058 -0.0914  0.1632  0.2398
 7745W        W23929  13.062  18.085   1.173 -0.2181 -0.0317  0.0541
 7746W        W23930   8.464   2.994  13.546 -0.2241 -0.2123  0.1693
 7747W        W23931   4.215  17.242   0.119 -0.2154 -0.0368 -0.6952
 7748W        W23932  16.247  14.829   4.488  0.2483 -0.1491  0.3928
 7749W        W23933   5.963  16.090  13.705 -0.0507  0.0286  0.1922
 7750W        W23934   0.396   4.518  13.185  0.1283  0.2101 -0.2862
 7751W        W23935  17.182  13.683  14.871 -0.2197 -0.3264  0.2901
 7752W        W23936   7.236   3.336   2.522 -0.0187 -0.0621  0.0254
 7753W        W23937   8.770  16.358   2.186 -0.2310  0.3200 -0.1459
 7754W        W23938  17.170   0.677  14.614  0.0771  0.1907 -0.0546
 7755W        W23939  13.821  16.986  14.245 -0.0395  0.0279 -0.2312
 7756W        W23940   6.141   7.295  11.971 -0.1085  0.3081  0.0481
 7757W        W23941   3.084  13.473  13.459  0.0212 -0.2567  0.2321
 7758W        W23942  10.791   6.366   0.097  0.1215 -0.0748 -0.0553
 7759W        W23943   4.845   4.855   4.551 -0.0702  0.0342  0.0058
 7760W        W23944  15.275  16.364  12.699  0.0255  0.0963  0.0724
 7761W        W23945   7.505  15.579   5.127  0.0034 -0.2126 -0.1837
 7762W        W23946   0.375   7.927  12.451  0.0206  0.0188 -0.1074
 7763W        W23947  10.291   5.636   4.605 -0.0969  0.0429 -0.0988
 7764W        W23948   9.870  17.952  11.890  0.3940  0.1549  0.4718
 7765W        W23949   3.479  17.646   3.767 -0.2398  0.3260 -0.1669
 7766W        W23950  13.360   6.713   0.725 -0.2767 -0.2128 -0.1867
 7767W        W23951   6.902   8.370   4.869 -0.2969  0.0531  0.2785
 7768W        W23952   0.565  13.204   3.770  0.1543  0.0027 -0.2058
 7769W        W23953  16.334  10.015  14.942  0.3075  0.0633  0.2254
 7770W        W23954   6.529   6.258  15.428 -0.4698 -0.4193  0.3140
 7771W        W23955   4.347  14.768   3.273  0.0158 -0.1826  0.0598
 7772W        W23956   1.926  12.193   0.539 -0.0514  0.1173 -0.1103
 7773W        W23957   0.162   6.702  13.429  0.1150  0.0776 -0.0427
 7774W        W23958  16.530  14.621  12.179 -0.0404  0.0335 -0.0324
 7775W        W23959  16.150   1.379   4.088  0.1873 -0.2055  0.6027
 7776W        W23960  17.836   2.396  15.432  0.0556  0.2322 -0.1583
 7777W        W23961  13.805  11.182   2.114  0.2392  0.4546  0.1275
 7778W        W23962  12.408  10.985   2.840  0.2171 -0.0796  0.1907
 7779W        W23963  15.967  10.205   3.749 -0.1309  0.1668 -0.4611
 7780W        W23964   0.205   5.154   5.129  0.1325  0.2682 -0.2062
 7781W        W23965  15.380   6.546  15.904 -0.0568 -0.2565  0.1187
 7782W        W23966  17.624   0.304  10.501  0.3398  0.0309  0.3636
 7783W        W23967   7.848  14.308   0.662  0.0784 -0.0913  0.1781
 7784W        W23968   9.698   0.572  11.799 -0.2500 -0.2143 -0.0323
 7785W        W23969   8.043  14.802   5.043  0.2241  0.4307 -0.1127
 7786W        W23970   5.532   0.241  11.243 -0.0823 -0.1482 -0.3942
 7787W        W23971   3.931  14.638  11.982  0.1430 -0.3675  0.1166
 7788W        W23972   2.822  17.918   0.470  0.1228  0.0380  0.0922
 7789W        W23973   2.850   1.384   0.679 -0.1361  0.2267  0.1474
 7790W        W23974  11.308  14.929   5.176  0.1375 -0.3130 -0.0866
 7791W        W23975  16.170  16.980   1.064  0.3101 -0.1987 -0.0016
 7792W        W23976   8.003  16.397   3.947  0.4367 -0.0257 -0.0718
 7793W        W23977  14.377  16.260   5.559  0.1387  0.1430  0.0611
 7794W        W23978  15.483  13.761  12.033 -0.2288 -0.0932 -0.1447
 7795W        W23979   7.310  11.280   5.027 -0.0574  0.2737 -0.2025
 7796W        W23980  17.261   9.487   1.596  0.1736 -0.1359  0.0670
 7797W        W23981   8.553  17.063  14.452 -0.2672 -0.1923  0.0163
 7798W        W23982  12.089   4.166  14.241 -0.0377 -0.2150  0.2473
 7799W        W23983   4.421   2.258   1.336  0.0412 -0.0361  0.1569
 7800W        W23984  17.827  14.201   4.699  0.0599 -0.0523 -0.2385
 7801W        W23985  10.684   4.306   2.657 -0.2990  0.0290 -0.1252
 7802W        W23986  10.202  10.967  11.381 -0.0014 -0.2343 -0.1007
 7803W        W23987  18.056  13.155   1.051  0.0698  0.0022 -0.2059
 7804W        W23988  13.346   9.386  12.364 -0.0529 -0.1886 -0.1289
 7805W        W23989   2.766   6.238  12.014 -0.0151  0.4453 -0.0862
 7806W        W23990   9.613  15.902   0.415 -0.0770 -0.1276 -0.0241
 7807W        W23991  12.103  13.657   0.961 -0.3193  0.1404  0.5691
 7808W        W23992   0.475   7.043  14.656  0.4947 -0.2943  0.1533
 7809W        W23993   2.039  16.412   1.712  0.1347 -0.0340  0.2266
 7810W        W23994   0.942  17.036  14.275 -0.1656  0.1510 -0.2311
 7811W        W23995   4.979   1.520  11.031 -0.2400 -0.2752  0.2164
 7812W        W23996  10.730   8.308   0.576  0.0008 -0.3296  0.3907
 7813W        W23997   3.240   4.240  13.719 -0.1667  0.4083  0.0174
 7814W        W23998   5.338  14.153   3.345 -0.1205  0.1251  0.4913
 7815W        W23999  13.051  16.673  13.892  0.3618  0.2279  0.0521
 7816W        W24000   2.326   5.113   3.240  0.1143 -0.2507 -0.1421
 7817W        W24001   0.922  14.192  15.058  0.2651 -0.0098  0.2905
 7818W        W24002   4.431  13.431  13.758 -0.1752  0.0136  0.1845
 7819W        W24003   0.227  18.030   3.860  0.2502  0.2543  0.1513
 7820W        W24004   1.650   9.457  15.230  0.1046 -0.1663 -0.0012
 7821W        W24005   5.644  17.169  15.623 -0.2128 -0.0158 -0.2407
 7822W        W24006   1.281  15.434   1.714 -0.0544 -0.1643  0.0409
 7823W        W24007   2.049  16.032   2.789  0.1235  0.2050  0.3481
 7824W        W24008   7.238   3.063   1.074  0.3707 -0.1107  0.2344
 7825W        W24009   3.248  15.017   4.473 -0.4570  0.0802  0.2067
 7826W        W24010   0.223   5.612   5.438 -0.1387 -0.1461  0.0818
 7827W        W24011   9.201   1.951   2.961  0.0091 -0.1289 -0.3210
 7828W        W24012   3.682   3.076  15.506 -0.0655 -0.0702  0.3541
 7829W        W24013   4.521   5.271   4.514  0.2925 -0.0365 -0.2626
 7830W        W24014  14.465  10.157   0.842  0.0755  0.0524 -0.2763
 7831W        W24015  10.425   7.772  14.167  0.2038 -0.2269 -0.2631
 7832W        W24016   9.831  12.969   2.342  0.2616 -0.0462 -0.4209
 7833W        W24017  15.179   7.314   1.795 -0.0053 -0.0401 -0.0213
 7834W        W24018  12.998  16.406   1.169  0.0101 -0.3850  0.2420
 7835W        W24019   8.901  16.337   5.132 -0.1144  0.1403  0.0034
 7836W        W24020   2.130  18.041  12.518 -0.0026 -0.2642  0.0545
 7837W        W24021  15.208   5.703   0.290 -0.0347  0.0985  0.1916
 7838W        W24022  10.612  11.463   3.338  0.0199 -0.0629  0.2858
 7839W        W24023   0.574   9.254  13.848  0.0181 -0.0651  0.0810
 7840W        W24024  15.774   7.110   1.580  0.0901  0.0357 -0.0045
 7841W        W24025   6.458  17.702   2.363 -0.1342 -0.1760  0.0009
 7842W        W24026  12.933  14.582   5.392 -0.2359  0.3121 -0.2508
 7843W        W24027   5.976   9.085   5.121  0.0355 -0.1992 -0.0094
 7844W        W24028  12.360  16.870  15.295 -0.0121  0.2421 -0.2670
 7845W        W24029  17.586   4.574   0.267  0.0823 -0.4018 -0.0386
 7846W        W24030  14.384   3.150   4.966  0.1595  0.1200 -0.0250
 7847W        W24031  12.496   4.436  14.631  0.3175  0.1582 -0.2344
 7848W        W24032   1.608  12.756   0.317  0.1964  0.0249 -0.0270
 7849W        W24033  15.273   3.870  15.870  0.0173 -0.1924  0.0248
 7850W        W24034  10.245   5.014   4.428 -0.0052  0.2426 -0.0502
 7851W        W24035  17.701  13.062  13.727 -0.2737 -0.1022  0.1592
 7852W        W24036   9.301   2.196  12.239  0.0876 -0.2094  0.0085
 7853W        W24037  16.644   2.856   9.647  0.0315  0.1573  0.1224
 7854W        W24038  10.107  16.966   3.599 -0.1486 -0.1976 -0.0589
 7855W        W24039   1.171   2.829   1.889 -0.2702 -0.2196 -0.1702
 7856W        W24040   0.859   7.114  12.133 -0.0092 -0.1331 -0.0959
 7857W        W24041   6.787  16.106  11.537 -0.2866  0.1704  0.1959
 7858W        W24042   7.568  14.685  12.812  0.2470 -0.1704 -0.4221
 7859W        W24043   4.672  16.035   0.633 -0.0462 -0.1187  0.0669
 7860W        W24044   8.109   0.326  12.457  0.2025 -0.0285  0.0817
 7861W        W24045  11.507   4.289   5.760 -0.3881 -0.0005  0.1177
 7862W        W24046   8.468  15.641  15.705  0.2517 -0.0317  0.1675
 7863W        W24047  16.909   8.859   0.952  0.3955 -0.1526 -0.0770
 7864W        W24048  17.695   9.644   1.344 -0.0900  0.0544  0.0651
 7865W        W24049  17.187   9.480  14.258  0.4730  0.0091  0.1190
 7866W        W24050  13.029  16.815   2.560  0.2320 -0.0440  0.1168
 7867W        W24051   0.402  12.633  13.234 -0.0642  0.1818  0.2624
 7868W        W24052   3.788  12.686  11.605 -0.1501  0.3083  0.0343
 7869W        W24053   8.353  11.304   2.202  0.0662  0.1394  0.0882
 7870W        W24054   8.474  14.505  12.985  0.0762  0.0349 -0.0534
 7871W        W24055   6.369   6.406   2.389  0.0845  0.1662  0.0880
 7872W        W24056   7.969   2.323   3.168 -0.0143 -0.4847  0.1853
 7873W        W24057   6.508  15.394   2.724  0.1008 -0.4726  0.1189
 7874W        W24058  12.818  17.910   1.645  0.0504  0.0094  0.3103
 7875W        W24059  18.029   4.378   1.869  0.0268  0.0319 -0.0820
 7876W        W24060  10.073  12.072   1.838  0.0866  0.1463 -0.2282
 7877W        W24061  17.288   5.652  13.061 -0.1898  0.1177  0.0756
 7878W        W24062   1.496   3.752   1.148  0.2022  0.3269 -0.2993
 7879W        W24063  15.601  13.997   3.437  0.1824 -0.1960 -0.1931
 7880W        W24064  15.775   3.557   4.279  0.3627  0.0535 -0.0668
 7881W        W24065   5.916   1.939   3.331 -0.1078 -0.0479  0.0657
 7882W        W24066   0.886   5.282  13.012 -0.0555 -0.1736 -0.2416
 7883W        W24067   1.289  16.146  15.088 -0.0225  0.0747  0.0908
 7884W        W24068   5.478   7.848   3.836 -0.2295  0.3514  0.1223
 7885W        W24069  17.918   5.001  15.122 -0.0782  0.0323 -0.1390
 7886W        W24070  11.062  11.840   1.651 -0.2015  0.0598 -0.0801
 7887W        W24071  14.330   4.971   0.572 -0.3250 -0.1581  0.0862
 7888W        W24072  17.112   4.120   3.481  0.1379 -0.2954 -0.0477
 7889W        W24073   6.159   2.852   1.797 -0.1058  0.2999  0.2443
 7890W        W24074  14.449  10.566   3.362  0.2585  0.0897 -0.0850
 7891W        W24075   0.795   0.521  14.017  0.4627 -0.1173 -0.1968
 7892W        W24076  13.190  15.296  15.713  0.1857  0.0742  0.0249
 7893W        W24077   8.257  17.749  11.968  0.0731 -0.1027 -0.0492
 7894W        W24078  11.521  14.421  12.548 -0.1566 -0.1759  0.2251
 7895W        W24079  17.458  15.695   1.285 -0.1013 -0.0980  0.3025
 7896W        W24080  13.270   9.077  15.475 -0.1331  0.1141 -0.1679
 7897W        W24081   8.918  12.798   2.211 -0.1215  0.2912 -0.1834
 7898W        W24082  13.431  11.429  12.206 -0.1470  0.0500 -0.2563
 7899W        W24083   2.228   3.880   5.458 -0.0127 -0.0800  0.1590
 7900W        W24084   8.285   2.507  13.799  0.1501 -0.1807 -0.0431
 7901W        W24085  12.231  18.269  10.954 -0.0618  0.2480 -0.1635
 7902W        W24086  12.167   7.452   2.303  0.0999 -0.2830 -0.0232
 7903W        W24087   1.240  15.440   5.424  0.1264  0.0518  0.2575
 7904W        W24088   4.198   7.463  15.383  0.2516 -0.3883 -0.0504
 7905W        W24089  15.737  10.726   5.162 -0.2098 -0.0387 -0.0785
 7906W        W24090   1.501  14.246  11.368  0.5022 -0.0714  0.0687
 7907W        W24091   5.247  11.149   1.323 -0.1555 -0.3184  0.1637
 7908W        W24092  13.556  17.806  15.129 -0.2320  0.2629 -0.2064
 7909W        W24093   9.800  17.414  14.279  0.2176 -0.0748  0.1472
 7910W        W24094   2.586   9.126   3.828  0.0373  0.2971 -0.0243
 7911W        W24095  10.045  11.041   2.526 -0.1077  0.0466  0.1265
 7912W        W24096  12.789  17.802   4.438  0.0342  0.1840  0.2057
 7913W        W24097  12.596  17.362   0.760  0.3546 -0.1465  0.1481
 7914W        W24098  13.285  16.166  11.478 -0.0594 -0.2151 -0.1256
 7915W        W24099  10.072  10.399  15.085 -0.0376 -0.0462 -0.1013
 7916W        W24100  14.842  10.787   4.275 -0.0308  0.1849 -0.1064
 7917W        W24101   4.898   9.100  12.374  0.2716  0.0257 -0.0909
 7918W        W24102  16.683   3.717   0.689  0.1566 -0.2779 -0.0068
 7919W        W24103   9.165   8.692   3.755  0.2249  0.2470 -0.2524
 7920W        W24104   6.408  16.872   0.750  0.2138 -0.0426 -0.0347
 7921W        W24105   4.885   4.494  12.190  0.0522  0.1728 -0.0693
 7922W        W24106  18.248  10.984  11.734  0.0771  0.3311  0.1504
 7923W        W24107   7.272  14.723   5.259 -0.0850  0.1693 -0.0365
 7924W        W24108  13.600   2.874   2.178  0.1850 -0.1921  0.1222
 7925W        W24109   1.711   2.580   3.236 -0.0564 -0.1994  0.2534
 7926W        W24110   3.881   9.685   4.020 -0.0287 -0.0860  0.1627
 7927W        W24111  16.814   2.877  12.955  0.0081 -0.1063  0.1580
 7928W        W24112  15.483   8.845  11.739 -0.2666 -0.1168 -0.1722
 7929W        W24113  11.403   2.557  15.143 -0.1536 -0.1012 -0.3100
 7930W        W24114   7.740  14.171  15.761 -0.0616 -0.1031 -0.2109
 7931W        W24115  11.483   6.898   0.719 -0.3571 -0.1633 -0.1566
 7932W        W24116  17.430  10.363   0.974 -0.0122 -0.2065 -0.2075
 7933W        W24117   5.462   3.543   4.998 -0.2721 -0.1067 -0.2463
 7934W        W24118   6.009   5.171   3.573  0.0818  0.0589 -0.1046
 7935W        W24119   8.778   5.794   0.554  0.0453 -0.0160  0.1984
 7936W        W24120   9.635  10.130   2.091 -0.0141  0.1255  0.2090
 7937W        W24121  15.357  11.665  14.769  0.0290 -0.0215 -0.1066
 7938W        W24122  14.364  18.374   2.945 -0.0574 -0.1529 -0.3397
 7939W        W24123   4.254  13.724   2.838  0.4805  0.2734  0.0520
 7940W        W24124   5.504  11.136   1.798  0.1010 -0.0045 -0.0014
 7941W        W24125  16.674   8.952  15.823  0.1907  0.1788  0.1242
 7942W        W24126  12.514   9.483   1.749  0.0543  0.0854 -0.2793
 7943W        W24127   4.865  11.163  12.425  0.1410  0.0198  0.0405
 7944W        W24128   8.261   8.344   0.919 -0.2373 -0.0278  0.3803
 7945W        W24129  12.136  13.267  12.846 -0.0497  0.1575 -0.0598
 7946W        W24130  14.374  14.937  11.492 -0.0460  0.2971 -0.0337
 7947W        W24131   6.118   0.089  14.510 -0.2091 -0.1955 -0.2109
 7948W        W24132  17.437   9.093   3.469 -0.0409  0.1514  0.1264
 7949W        W24133   1.957   6.346   1.584  0.0053  0.0169  0.1474
 7950W        W24134   9.010  15.083   4.698 -0.1919 -0.1836 -0.3895
 7951W        W24135   1.826   5.420  10.676 -0.3192 -0.1426 -0.2744
 7952W        W24136   9.103  10.514  11.265 -0.0646 -0.0094 -0.1268
 7953W        W24137   9.537  15.840  10.389  0.3379 -0.2076 -0.3103
 7954W        W24138   2.136  16.900  11.569  0.1158 -0.1285  0.0772
 7955W        W24139   6.795   3.428   0.122 -0.3069 -0.1615  0.2642
 7956W        W24140   9.826   8.724   0.112  0.1761  0.1525 -0.1429
 7957W        W24141  15.872   3.166   1.843  0.1917 -0.1002  0.5168
 7958W        W24142  14.588  13.255   5.150  0.0388 -0.1986  0.2938
 7959W        W24143  16.321  12.214   3.099  0.1576  0.3843 -0.1646
 7960W        W24144  16.470  12.391  12.104 -0.0289 -0.2042 -0.0887
 7961W        W24145  11.065  11.411  12.380  0.3565 -0.1865 -0.0559
 7962W        W24146   8.862  11.120  15.031 -0.3321 -0.2191 -0.1986
 7963W        W24147   3.755   5.719   0.335 -0.1163  0.0660 -0.1140
 7964W        W24148   3.435   0.062  11.574 -0.3219 -0.0403  0.1185
 7965W        W24149   4.394  12.613  11.774  0.1302 -0.0861 -0.3294
 7966W        W24150   4.802   4.304  11.688  0.3621 -0.0364 -0.2514
 7967W        W24151  16.073   4.845  14.132  0.3439  0.0017  0.2051
 7968W        W24152   4.037   0.517   4.995 -0.1123  0.1029 -0.2684
 7969W        W24153   9.317   3.263   1.282 -0.0758 -0.1996 -0.0532
 7970W        W24154  12.899  16.483   3.514 -0.2760 -0.2465 -0.3284
 7971W        W24155  17.565  18.475   4.650 -0.1659 -0.1410 -0.3061
 7972W        W24156   3.291   8.275  15.766 -0.0130 -0.1596  0.1483
 7973W        W24157  14.946   0.523  13.097 -0.1055 -0.2916  0.0797
 7974W        W24158  15.516   3.808  13.668  0.2403 -0.1095  0.3925
 7975W        W24159   7.674  15.192  12.475  0.3047  0.4814  0.1056
 7976W        W24160   3.303   5.910   1.537  0.3098 -0.1488 -0.2217
 7977W        W24161  12.620   4.873  13.506 -0.1547  0.2059 -0.2714
 7978W        W24162  12.698   2.873   4.523 -0.0913  0.3812 -0.1654
 7979W        W24163  10.989   3.075   2.164 -0.2499  0.1081 -0.1316
 7980W        W24164   0.219   8.135   3.295  0.1535 -0.1953  0.1581
 7981W        W24165   2.460  10.815  11.201 -0.0824 -0.4991  0.0496
 7982W        W24166   5.594   8.367  14.814  0.2419 -0.0347  0.1877
 7983W        W24167   4.213   3.870  15.587 -0.0475 -0.1877  0.1229
 7984W        W24168   3.297   8.242   3.521  0.2254  0.0415 -0.0316
 7985W        W24169  18.277  15.474  15.424 -0.2080 -0.0540  0.0161
 7986W        W24170  13.346  10.365  13.366  0.0921  0.1939 -0.0489
 7987W        W24171   9.986   8.440   3.820  0.0457 -0.0840  0.0173
 7988W        W24172   0.558  13.611  14.114  0.3376 -0.2377 -0.0269
 7989W        W24173   5.799  10.619   1.902 -0.0225 -0.0209 -0.2586
 7990W        W24174  13.729   7.849  13.480 -0.0399  0.0569  0.0077
 7991W        W24175  15.051   0.112   0.224 -0.1318 -0.0439 -0.1367
 7992W        W24176  13.192  16.991   0.095 -0.0127  0.0046 -0.0271
 7993W        W24177  11.683  16.425  13.064  0.2070  0.0395 -0.1939
 7994W        W24178   9.433   5.811  14.639  0.1729 -0.0005 -0.1297
 7995W        W24179  10.206   3.106   3.704  0.0304 -0.1420 -0.2581
 7996W        W24180   5.911   4.194   4.358 -0.0986  0.1824  0.1999
 7997W        W24181   2.535  13.137  15.559  0.0622  0.2937 -0.2131
 7998W        W24182   8.139  14.454  13.539  0.2206 -0.2090 -0.1202
 7999W        W24183  14.464   0.051   3.778 -0.0440  0.1214 -0.1766
 8000W        W24184  14.483  12.991   3.034 -0.1064 -0.1361  0.2762
 8001W        W24185  15.895  14.679   2.130  0.0723 -0.0530  0.3379
 8002W        W24186  15.041  16.072  13.603 -0.2531  0.3089 -0.1089
 8003W        W24187   2.953   8.099   2.725 -0.1286 -0.1177 -0.1889
 8004W        W24188  14.444  15.742   2.139  0.1178  0.1652  0.0893
 8005W        W24189  10.095   1.209   0.989 -0.2163 -0.1141 -0.1473
 8006W        W24190   9.400   5.952   2.873  0.1485 -0.1681 -0.1483
 8007W        W24191  16.148  13.526  13.177 -0.1876  0.2544 -0.1564
 8008W        W24192  12.745   6.193   0.350  0.0276  0.0162  0.2302
 8009W        W24193  15.714   0.972  15.213 -0.1109 -0.1064 -0.0047
 8010W        W24194   5.204   3.086   3.829  0.3487 -0.0403  0.2960
 8011W        W24195  18.175  12.702   3.724 -0.1719  0.7626 -0.0466
 8012W        W24196  11.989  18.190   2.888  0.0157 -0.1349 -0.0654
 8013W        W24197   0.017   1.691   0.955  0.2098 -0.1775  0.0298
 8014W        W24198   2.401  13.403  14.501  0.2932  0.0003 -0.1367
 8015W        W24199   5.612   2.033   5.642  0.0437  0.1112 -0.0449
 8016W        W24200  16.387   9.883  15.528  0.2302 -0.1540  0.0395
 8017W        W24201   4.880   9.622  14.139 -0.1654 -0.0688 -0.2925
 8018W        W24202  17.946  14.046   1.776  0.0952  0.1895  0.0553
 8019W        W24203  10.677   2.623  11.499  0.0631 -0.1932  0.0448
 8020W        W24204   9.450   0.940  11.526  0.0565 -0.0580 -0.5630
 8021W        W24205  13.788   4.799  12.718  0.2671  0.3285  0.4208
 8022W        W24206   9.173  15.338   3.742 -0.2488 -0.0350 -0.1418
 8023W        W24207   2.836  16.258   1.087 -0.0014 -0.0561  0.3035
 8024W        W24208   3.579   9.941   2.346 -0.1894 -0.1462  0.2151
 8025W        W24209   6.698   7.156  11.851 -0.2364  0.0859 -0.0750
 8026W        W24210   4.706   9.996  14.465  0.3064  0.0355 -0.1208
 8027W        W24211   1.829   1.823   1.071 -0.3264 -0.0543 -0.1219
 8028W        W24212   6.864  13.872  15.542  0.1750  0.0524 -0.2565
 8029W        W24213   2.766  12.164   0.368 -0.2382 -0.2665  0.1229
 8030W        W24214  15.778   1.064   5.056 -0.3858  0.1483  0.0763
 8031W        W24215   0.948   2.403  14.089 -0.1020 -0.1973  0.1252
 8032W        W24216   9.447   8.718   1.614  0.1959 -0.1032 -0.1040
 8033W        W24217   8.842   7.803  12.956  0.1148 -0.0701 -0.1223
 8034W        W24218  10.288   3.093  15.906 -0.2371 -0.1439  0.0410
 8035W        W24219   3.254   1.212   2.390 -0.2528 -0.2949  0.1029
 8036W        W24220  13.736  15.566   5.352 -0.1150 -0.3770 -0.1037
 8037W        W24221  12.757  10.365  11.708  0.0123  0.1683  0.1940
 8038W        W24222  14.666   3.869  11.922  0.2436  0.2027 -0.0387
 8039W        W24223  10.710  14.300  15.858  0.2869  0.0177  0.1819
 8040W        W24224  12.539  11.228  14.982  0.4309  0.1401  0.0719
 8041W        W24225   1.058   0.749  10.440  0.1297 -0.1596 -0.2264
 8042W        W24226   6.585   7.490   2.268  0.0148 -0.0207  0.0656
 8043W        W24227  17.914   2.320  12.556 -0.0783 -0.0588  0.1300
 8044W        W24228  16.418   8.116  14.548 -0.2061  0.0411 -0.2433
 8045W        W24229  16.614  14.008   4.599 -0.1448 -0.1059 -0.3553
 8046W        W24230  16.391  14.295  10.138  0.3614 -0.0934 -0.5016
 8047W        W24231   8.630   9.227  13.462 -0.0020  0.1349  0.0999
 8048W        W24232  12.551  18.203  13.679  0.1096 -0.1151  0.0854
 8049W        W24233   4.787  14.967  12.716  0.4838  0.0301  0.2855
 8050W        W24234  10.478  12.038  13.286  0.0214  0.1057 -0.0395
 8051W        W24235  17.426   1.380  13.276  0.0333  0.3948 -0.3793
 8052W        W24236  14.425  11.163  13.738 -0.0914  0.0081 -0.1883
 8053W        W24237   3.786   1.643   4.113  0.1372  0.0465  0.0188
 8054W        W24238   9.610  17.002  12.013  0.0985 -0.0962  0.1961
 8055W        W24239   3.511   8.322   0.103  0.0828  0.2126  0.1890
 8056W        W24240   5.184   2.289   5.230  0.4112 -0.0913  0.0625
 8057W        W24241   8.024   7.018  14.727 -0.3988  0.1265 -0.0836
 8058W        W24242   5.837   9.208   3.962  0.2835 -0.2327  0.3433
 8059W        W24243  16.513   5.430  15.079  0.4003  0.1202 -0.2735
 8060W        W24244  12.760   2.737   0.953  0.1289  0.0405 -0.1579
 8061W        W24245   1.099   3.052  16.035 -0.1461 -0.1093 -0.0879
 8062W        W24246   4.416  14.335   3.631  0.2199  0.2275  0.3696
 8063W        W24247   5.041  12.173   1.705  0.4177 -0.1225 -0.1398
 8064W        W24248   6.549  13.969   1.320 -0.2856 -0.0335 -0.1708
 8065W        W24249   7.645   0.978   3.571 -0.1671 -0.0639 -0.1135
 8066W        W24250  12.066  10.883   3.845  0.0957 -0.3201  0.1027
 8067W        W24251  15.398  16.749  10.897 -0.0209  0.3648  0.1626
 8068W        W24252   1.602  14.752  12.135  0.0888 -0.0940  0.0717
 8069W        W24253  10.703   6.820  16.044  0.1866  0.4737 -0.2555
 8070W        W24254  15.347   6.446  10.983  0.1721 -0.0846  0.0244
 8071W        W24255   7.449   1.324   2.243  0.0008 -0.0840  0.0657
 8072W        W24256  16.748  17.428  13.041  0.1767  0.1906  0.0229
 8073W        W24257  13.294   3.872  13.650  0.4594  0.2513  0.0786
 8074W        W24258  16.479   9.382  15.731  0.0050  0.0790  0.2364
 8075W        W24259  15.697  10.846  14.798  0.3181 -0.0889 -0.2708
 8076W        W24260   5.415  17.492  13.243  0.0087 -0.1135  0.0003
 8077W        W24261   6.244  17.343  14.230  0.1980 -0.0496 -0.1694
 8078W        W24262   8.841  14.163   5.522 -0.1768  0.0354  0.2159
 8079W        W24263  17.070   0.185  10.502  0.2297  0.2884  0.1904
 8080W        W24264   9.284   7.939   1.071  0.1105  0.1228  0.1095
 8081W        W24265   2.778   2.005   0.000 -0.1539  0.2415 -0.2738
 8082W        W24266  10.682  15.521   2.357 -0.0686 -0.2319  0.0590
 8083W        W24267   9.422   3.205  14.567 -0.3565  0.1329 -0.3317
 8084W        W24268   3.781   4.114   5.323 -0.1398 -0.1537  0.2510
 8085W        W24269   9.305   5.791   2.223  0.0016  0.1878  0.1384
 8086W        W24270   2.768  16.526   5.533 -0.0193  0.1498  0.3454
 8087W        W24271   5.914  18.197  14.634 -0.1195  0.1241 -0.0137
 8088W        W24272   3.223   4.334   3.845 -0.1398  0.2069  0.0326
 8089W        W24273   2.111   1.966   1.572 -0.0217  0.2010  0.2368
 8090W        W24274  17.039  16.985   6.024 -0.1966 -0.0869 -0.0509
 8091W        W24275  16.463   4.171   3.926 -0.0982  0.2089 -0.0893
 8092W        W24276  11.602  13.130   0.830 -0.1199  0.0605 -0.3117
 8093W        W24277  14.861  13.597  12.822  0.1520 -0.0733  0.2378
 8094W        W24278  15.295  10.375  12.672  0.1131  0.1335 -0.1864
 8095W        W24279  17.318   3.081  12.669 -0.2178  0.0951 -0.3112
 8096W        W24280  17.315   4.971   4.821  0.0047 -0.2964  0.1663
 8097W        W24281   4.860  15.042  14.668  0.4807  0.0405  0.0206
 8098W        W24282  10.582   9.898  13.329 -0.4193 -0.3828  0.2620
 8099W        W24283  16.220  15.596   4.394  0.1576 -0.1762 -0.1756
 8100W        W24284   4.101  14.061  15.411  0.2947 -0.3310  0.1185
 8101W        W24285  14.769  10.980   2.045 -0.2132 -0.4660 -0.0207
 8102W        W24286   4.865   8.086   3.699 -0.0896 -0.1328  0.1455
 8103W        W24287  15.265   6.555   1.202  0.3561  0.0900 -0.0996
 8104W        W24288   2.862   8.456  11.404  0.0528  0.1601 -0.0097
 8105W        W24289   9.799  16.983  13.465 -0.1200  0.0533 -0.1429
 8106W        W24290   2.398   7.326   3.359  0.3612  0.0472  0.1357
 8107W        W24291   1.555  17.500  15.770 -0.0816 -0.1769  0.2175
 8108W        W24292  15.796   1.504   2.577 -0.0915  0.1931 -0.1923
 8109W        W24293  15.705   6.622   1.410  0.1465  0.2760  0.3316
 8110W        W24294   5.802  16.670   0.184 -0.2826 -0.0561 -0.2490
 8111W        W24295  14.729  15.044  12.252 -0.0642  0.0079 -0.2091
 8112W        W24296   9.161   5.682  12.214  0.1255  0.2409  0.1900
 8113W        W24297   0.231  14.614  14.598 -0.0005 -0.2432 -0.2177
 8114W        W24298  13.134  16.154  13.752 -0.1000 -0.0606  0.3518
 8115W        W24299  11.996   4.943   3.030  0.3263  0.1049  0.1213
 8116W        W24300   8.391   7.937  12.093 -0.0564  0.6496  0.2539
 8117W        W24301   8.819   1.618   0.759  0.0167 -0.0530  0.0075
 8118W        W24302   2.560   1.089  12.873 -0.0287  0.1023 -0.0727
 8119W        W24303   9.347   8.592   0.356 -0.1011  0.4028  0.3612
 8120W        W24304  15.624   8.012   1.474  0.0068 -0.0984  0.0278
 8121W        W24305   1.065   3.761   4.610 -0.3065 -0.0332 -0.3429
 8122W        W24306  16.075  12.108  15.595  0.3166 -0.0915  0.0118
 8123W        W24307   6.624  11.246  12.170  0.1623 -0.1098  0.0321
 8124W        W24308   0.275  10.128  12.726 -0.0558  0.0692  0.0286
 8125W        W24309  14.119   9.314  13.042 -0.0898 -0.1647  0.0789
 8126W        W24310  14.447  10.580  13.732 -0.3363 -0.5286  0.0395
 8127W        W24311  10.561  10.152  11.464  0.1651 -0.0811  0.2177
 8128W        W24312  11.336   6.016   5.039  0.0163  0.2333  0.1112
 8129W        W24313   4.936   3.284  11.167 -0.2106 -0.0949  0.0175
 8130W        W24314  16.383   3.991  15.213 -0.1958  0.0379 -0.0833
 8131W        W24315   2.059  14.993   0.053  0.0890  0.3307 -0.1170
 8132W        W24316   9.778   0.770  10.701 -0.0770 -0.1107  0.4940
 8133W        W24317  12.853   9.527  13.298 -0.1354 -0.0951  0.0390
 8134W        W24318   4.292  12.583  14.759 -0.0230  0.1356  0.1267
 8135W        W24319   7.553   5.446  12.759 -0.0271  0.1812 -0.1689
 8136W        W24320   7.665  12.492  13.817 -0.1631 -0.2834  0.0841
 8137W        W24321  14.528  15.219   5.427 -0.0404  0.3875  0.2069
 8138W        W24322  13.216  16.354  15.363 -0.0935  0.0871  0.1060
 8139W        W24323  13.039  18.477  12.377  0.1789  0.1334  0.0697
 8140W        W24324  17.977   4.330   0.661  0.0731 -0.0042 -0.0220
 8141W        W24325   7.521   0.052   3.193 -0.2521  0.1507  0.1932
 8142W        W24326   0.380   7.024  12.377 -0.1945 -0.1878 -0.0612
 8143W        W24327   6.659   5.274  14.008  0.0372  0.0907 -0.1743
 8144W        W24328  11.505   2.566  11.928  0.1997 -0.2537  0.2018
 8145W        W24329  11.293  12.233   2.344  0.0104  0.0632 -0.1073
 8146W        W24330  15.339  16.471  13.620 -0.2161  0.1276  0.0649
 8147W        W24331  11.587   1.135   3.286 -0.0809  0.3397  0.0538
 8148W        W24332   3.903   7.700  14.253 -0.2627  0.1767 -0.3623
 8149W        W24333   4.715   8.875  14.627  0.2116 -0.0801  0.3286
 8150W        W24334  12.694  10.306  14.581 -0.0346 -0.0875  0.0000
 8151W        W24335  12.770  17.077  15.490  0.3167 -0.0450 -0.1862
 8152W        W24336   8.460  17.831   0.024  0.0439  0.0280 -0.2061
 8153W        W24337  10.488  11.162   2.773 -0.1565 -0.2946 -0.1516
 8154W        W24338  18.305  14.746  12.597  0.3667 -0.0536  0.0280
 8155W        W24339   4.120  17.562   4.862 -0.0048  0.2296  0.1130
 8156W        W24340   4.359  15.822   1.919 -0.0460 -0.1776 -0.0618
 8157W        W24341  17.028   4.395  15.919 -0.1114 -0.0350 -0.0801
 8158W        W24342   3.145   7.989  11.288  0.3388  0.0576 -0.0182
 8159W        W24343   5.438  12.668  13.297  0.1095 -0.0043 -0.0530
 8160W        W24344  11.936  10.711   4.597 -0.2480  0.0488  0.2114
 8161W        W24345  10.898   3.459  14.067 -0.1386  0.2647  0.1649
 8162W        W24346  12.723  17.604   3.545  0.0074  0.0355 -0.0018
 8163W        W24347  16.124  12.854  15.480  0.1314 -0.6116 -0.3080
 8164W        W24348   9.805   6.203   1.517  0.0804  0.1007 -0.0466
 8165W        W24349  11.527  17.157   3.515  0.0852 -0.0435  0.1164
 8166W        W24350   8.994   9.860  11.101 -0.1380  0.0143  0.0401
 8167W        W24351  11.752  11.844  14.960 -0.3459 -0.0065 -0.3508
 8168W        W24352  16.854   7.301   1.729  0.0616 -0.1964  0.1976
 8169W        W24353   6.223  18.376   3.419 -0.2702 -0.0608  0.1608
 8170W        W24354   3.888   0.313  15.088  0.0090 -0.0573  0.0910
 8171W        W24355   0.929  17.207   2.290  0.3700  0.0864 -0.0391
 8172W        W24356   8.211   6.910  13.002  0.0490 -0.1285 -0.1580
 8173W        W24357  17.431   6.701  15.738 -0.2345 -0.5028  0.1062
 8174W        W24358  13.057  10.187   0.983  0.0499 -0.0989 -0.0338
 8175W        W24359  10.290   4.657  12.811 -0.1166  0.0004  0.0327
 8176W        W24360   9.899   6.612   4.873  0.1802  0.0932 -0.0130
 8177W        W24361  11.409  13.975  14.660 -0.1580 -0.0327  0.0350
 8178W        W24362   2.147   5.453   2.115  0.1364  0.0891  0.0831
 8179W        W24363   1.539  12.219  12.361  0.2226  0.0471 -0.0338
 8180W        W24364  11.045   2.204   0.251 -0.2063  0.0526 -0.2573
 8181W        W24365   0.685  16.854   1.717 -0.2317  0.1267  0.2166
 8182W        W24366   1.513   7.166  13.277 -0.0409  0.2198  0.1176
 8183W        W24367  15.219  13.579   3.004  0.3761  0.0699 -0.1042
 8184W        W24368   0.181   1.538  13.403 -0.4102 -0.1555  0.3251
 8185W        W24369   8.620   6.027  14.256  0.0880  0.1567  0.0753
 8186W        W24370   8.862  18.020  13.056 -0.1271  0.2821 -0.0166
 8187W        W24371   9.895  16.072  15.046 -0.2116  0.0754  0.3965
 8188W        W24372  10.485   9.488   4.466  0.2968  0.1146 -0.0118
 8189W        W24373  13.061  12.945   3.344 -0.0712 -0.2797 -0.0046
 8190W        W24374   1.010   4.826  15.097 -0.0842  0.1924  0.1880
 8191W        W24375  13.979   8.803   2.174 -0.0285  0.3154 -0.1201
 8192W        W24376   7.359   8.578   0.203 -0.1098  0.1086  0.0432
 8193W        W24377  15.542   3.426  13.366  0.0637 -0.4785  0.0320
 8194W        W24378   2.408   2.155   4.982 -0.3795 -0.0751 -0.2285
 8195W        W24379   7.104   4.545   3.151  0.1742  0.1547  0.1169
 8196W        W24380   7.135  13.325  13.405  0.1126  0.2648 -0.0563
 8197W        W24381   5.383  15.878  14.876  0.2820  0.0881 -0.1439
 8198W        W24382   1.638   7.905   0.032 -0.0236 -0.3608 -0.2081
 8199W        W24383   1.839   7.670  15.019  0.1618  0.0087  0.1896
 8200W        W24384   4.699   9.828  15.699  0.0806  0.1452  0.0901
 8201W        W24385   1.348  15.794  10.990  0.3093 -0.1875 -0.2377
 8202W        W24386   5.148  18.251  15.329  0.0261  0.0697 -0.0587
 8203W        W24387   7.895  10.004   3.190 -0.1522  0.4221  0.0398
 8204W        W24388  15.689   2.474  16.052 -0.0912  0.1776 -0.3243
 8205W        W24389   6.479   7.829   1.151 -0.0600 -0.0819 -0.1909
 8206W        W24390  15.896   1.872  15.680 -0.1165  0.2758  0.1856
 8207W        W24391  10.563   3.935   4.831 -0.1425 -0.1490 -0.1328
 8208W        W24392   7.431   3.946   4.297  0.2488  0.2632 -0.0644
 8209W        W24393  15.033   8.073   0.794 -0.2352 -0.0200  0.0236
 8210W        W24394  12.526  17.451  14.130  0.0642  0.1527  0.3298
 8211W        W24395   0.412   5.878  15.472  0.2211 -0.1587  0.0381
 8212W        W24396  14.958   6.283  11.395 -0.1423 -0.1616  0.1461
 8213W        W24397   9.367   1.245  14.298 -0.0612  0.0208 -0.0092
 8214W        W24398   4.495  12.093  12.410  0.2075  0.0197 -0.3991
 8215W        W24399   4.731   0.388   4.030  0.0412 -0.0969  0.0609
 8216W        W24400  17.280   5.871   4.881 -0.0747 -0.1174  0.0163
 8217W        W24401  10.346   1.400   4.554  0.0046 -0.2768 -0.0967
 8218W        W24402   3.561  17.324   0.575  0.2151  0.2816  0.0651
 8219W        W24403  11.881   6.373  15.387 -0.0791  0.1819 -0.0987
 8220W        W24404  18.438  16.519   3.451 -0.3486 -0.1684 -0.2193
 8221W        W24405  14.556  15.956  10.975  0.0350 -0.1830 -0.0811
 8222W        W24406  16.249   5.727  13.757  0.5845  0.1798 -0.1173
 8223W        W24407  15.434  16.972   0.147 -0.1966 -0.1985  0.0444
 8224W        W24408  16.920   7.915   5.308 -0.0045  0.3629 -0.0391
 8225W        W24409   1.554  16.333   3.451 -0.0378 -0.0705 -0.2250
 8226W        W24410   9.960   2.836   1.969 -0.2335 -0.0709  0.2538
 8227W        W24411  13.018  13.060   1.887 -0.2261  0.3271  0.0040
 8228W        W24412  12.149  16.732  10.416 -0.1619 -0.2216 -0.3289
 8229W        W24413  11.743   7.743   1.693  0.1852  0.1233  0.0238
 8230W        W24414   6.338   6.954   3.772  0.0712  0.1647 -0.2690
 8231W        W24415   8.207  17.850   1.393  0.0352  0.1031  0.0988
 8232W        W24416   3.452   9.849   0.632 -0.2366  0.0338  0.2440
 8233W        W24417  14.344  18.318   1.157  0.2388 -0.0569 -0.0612
 8234W        W24418   8.476  11.600  14.238  0.4113 -0.0770 -0.0132
 8235W        W24419   6.050  14.170  13.006 -0.0637  0.1071 -0.1868
 8236W        W24420  11.521  10.757   0.863 -0.2493  0.1268  0.3366
 8237W        W24421  18.264   6.543   5.242 -0.4374 -0.0316 -0.0562
 8238W        W24422  18.314  12.432  14.029  0.0645  0.2169 -0.0972
 8239W        W24423  13.047  10.593   5.427 -0.0127 -0.0214  0.0579
 8240W        W24424   6.212   1.173  15.641  0.2342 -0.1291  0.0160
 8241W        W24425   6.407  11.018  12.535  0.2631 -0.0659  0.1233
 8242W        W24426   2.846  14.130  14.394 -0.0740  0.1612 -0.0173
 8243W        W24427  11.635   1.357  13.023  0.1249  0.0584 -0.0685
 8244W        W24428  11.763  16.537   1.124 -0.2058  0.2547  0.1176
 8245W        W24429   3.450  14.220   1.803  0.0964  0.1627 -0.0259
 8246W        W24430   8.460   9.525   4.501  0.0095 -0.4009  0.2798
 8247W        W24431   4.483   0.095   0.305 -0.0209  0.0948 -0.4539
 8248W        W24432  14.603  16.318   4.273 -0.0893 -0.1831 -0.2412
 8249W        W24433  14.286   7.950  13.333  0.2390  0.0685  0.1875
 8250W        W24434  14.030   1.258  15.158  0.0517  0.1308  0.1981
 8251W        W24435  13.822  15.891  15.021  0.2369  0.1934  0.1297
 8252W        W24436  13.521  15.912  13.967 -0.2240  0.1106  0.1089
 8253W        W24437  17.775   2.562   0.464 -0.2652  0.1456 -0.1101
 8254W        W24438  11.350  14.486  11.215  0.1127 -0.1036  0.3594
 8255W        W24439   0.183   4.003   2.242  0.0210  0.2533  0.0484
 8256W        W24440  10.438   1.276   3.274  0.4076 -0.0126 -0.2096
 8257W        W24441   9.474  15.933   5.894  0.1505  0.0602  0.0907
 8258W        W24442   8.225   7.940   1.719  0.0074  0.4593  0.0864
 8259W        W24443  15.179   2.023  15.453  0.2134 -0.0051  0.0998
 8260W        W24444  17.115   1.920  12.002  0.0065 -0.2579 -0.0181
 8261W        W24445   7.313   5.989   1.548 -0.0321 -0.2432 -0.0237
 8262W        W24446  18.055  16.378  13.403 -0.1372 -0.2628  0.2609
 8263W        W24447  11.243   7.958   1.632 -0.2840 -0.3248  0.1154
 8264W        W24448  11.894   2.711   2.240  0.0391 -0.0211 -0.0193
 8265W        W24449   7.688   8.168   2.739 -0.1692 -0.0028  0.0579
 8266W        W24450   0.558  12.451   0.063  0.0981  0.1492  0.0344
 8267W        W24451  15.685  13.715  15.272  0.1657  0.1780  0.0877
 8268W        W24452   9.226  12.772   4.780  0.0399  0.0282  0.1137
 8269W        W24453  14.594   8.894   1.427  0.1853 -0.2491 -0.2001
 8270W        W24454   5.601  12.712  14.839  0.3360 -0.0314  0.1414
 8271W        W24455  10.910   5.993   1.851  0.0018  0.0769 -0.2167
 8272W        W24456  12.421   7.378  15.013  0.0841  0.1980  0.0594
 8273W        W24457   1.888   3.437  12.069 -0.2036 -0.2979  0.0403
 8274W        W24458   1.274   3.284  14.995  0.0276  0.0391 -0.0584
 8275W        W24459  12.621   1.375   1.404 -0.0713 -0.0786  0.2013
 8276W        W24460   7.199  14.414  12.696  0.0811 -0.0587  0.1068
 8277W        W24461   7.067   2.627   1.690 -0.3398  0.0630  0.1451
 8278W        W24462  17.139  11.520  16.048  0.1105  0.4126 -0.2967
 8279W        W24463  15.385   2.438  13.279  0.2482  0.3076  0.0482
 8280W        W24464  18.414  17.422  11.855  0.0644 -0.0395  0.0517
 8281W        W24465   9.197   7.509  12.368  0.0143  0.4889 -0.1482
 8282W        W24466   3.142   0.293  14.319  0.1122 -0.0983  0.0488
 8283W        W24467  13.422   6.634  13.528  0.0790  0.4485  0.2516
 8284W        W24468   0.211  18.483   0.108 -0.2717  0.0527  0.0444
 8285W        W24469  13.853   2.492   3.312  0.1706  0.0315  0.0985
 8286W        W24470  15.714   6.208  12.218 -0.1503 -0.0535  0.1076
 8287W        W24471  16.420   7.813  13.809 -0.1354  0.1920  0.1810
 8288W        W24472  18.135  13.327  13.387  0.2581  0.0628  0.1158
 8289W        W24473   6.194  18.331   1.577 -0.2243  0.0061 -0.2247
 8290W        W24474   9.312   3.358  16.001 -0.2868 -0.1026 -0.0197
 8291W        W24475  12.256   9.282   3.584  0.1883  0.5434 -0.1177
 8292W        W24476   2.880   1.958  15.609 -0.3495  0.2094 -0.1066
 8293W        W24477   3.864  15.464   4.437  0.1056 -0.0226  0.0702
 8294W        W24478  14.236  14.426   4.714 -0.3196  0.1593 -0.0050
 8295W        W24479   6.613  13.229   1.482 -0.2618 -0.0605  0.0496
 8296W        W24480   5.385   7.885  13.981 -0.0568 -0.2872 -0.1479
 8297W        W24481   7.453   6.952   2.957 -0.1635 -0.1038  0.1357
 8298W        W24482  11.681  14.254   4.664  0.0775 -0.0782 -0.0809
 8299W        W24483   3.833  15.876   1.948  0.1992  0.3503 -0.1171
 8300W        W24484  14.903   1.376   5.308 -0.2895  0.0568 -0.1448
 8301W        W24485   7.592  16.574  14.858 -0.0810 -0.1418  0.0310
 8302W        W24486   0.132   5.427   1.829 -0.3020  0.0875 -0.2218
 8303W        W24487   8.328   3.797  15.454  0.0148 -0.1712 -0.0635
 8304W        W24488   6.901   6.571  15.704 -0.2032 -0.1112 -0.0523
 8305W        W24489   5.072   9.301  12.741  0.0785 -0.2531 -0.3974
 8306W        W24490   5.859  10.547   3.776 -0.0618 -0.0720 -0.1230
 8307W        W24491   7.227   0.772   1.402  0.2999 -0.4641  0.1241
 8308W        W24492  12.172   8.887   3.261  0.0627  0.1893 -0.4013
 8309W        W24493   9.388   4.720  15.434  0.0575  0.1576  0.1531
 8310W        W24494   3.045  18.116   2.556  0.3352  0.1501  0.2111
 8311W        W24495   9.268  17.442   4.259 -0.1546  0.1436 -0.1132
 8312W        W24496   2.987  12.793  12.606 -0.1234 -0.1730  0.4220
 8313W        W24497  14.210   3.709  12.649  0.2046  0.2315 -0.0634
 8314W        W24498   3.149   4.115   1.469  0.1165  0.0997  0.0574
 8315W        W24499  10.294  16.653  15.610 -0.2980  0.3176  0.2103
 8316W        W24500   3.007  18.305  12.949 -0.2664  0.0260  0.0129
 8317W        W24501   2.681   4.112  13.427  0.1646  0.1064 -0.0791
 8318W        W24502  12.437  12.174   3.508 -0.0559 -0.0083 -0.4939
 8319W        W24503  14.208  15.233  15.531  0.1076  0.0544  0.1420
 8320W        W24504   3.148   5.574  13.395 -0.0863  0.1216 -0.0280
 8321W        W24505   7.550   8.430   1.664  0.0524 -0.1756 -0.0207
 8322W        W24506   8.569   5.877   3.617  0.3915 -0.0025  0.1469
 8323W        W24507  13.687   3.319   5.465  0.2560 -0.4662  0.1188
 8324W        W24508   6.296   1.530  13.749  0.1692  0.0769  0.1070
 8325W        W24509   1.998   4.270  16.144 -0.0798 -0.0091 -0.0703
 8326W        W24510   6.087  15.131   0.283 -0.1170  0.0279 -0.3247
 8327W        W24511   7.204  10.431  15.425 -0.1479 -0.1927  0.2030
 8328W        W24512   5.082  13.356   3.216 -0.2766 -0.1779 -0.1011
 8329W        W24513   3.519  15.488   0.025 -0.3565 -0.2265  0.1005
 8330W        W24514   6.240   6.208   4.963 -0.0821 -0.0845 -0.1565
 8331W        W24515  12.828   0.534   4.515 -0.0563 -0.1752 -0.1376
 8332W        W24516   6.433  18.035   5.285  0.1462 -0.2213 -0.2322
 8333W        W24517   0.135   7.715   1.356 -0.0139 -0.1619  0.0575
 8334W        W24518   7.578   3.087   3.973  0.0220 -0.3275  0.0234
 8335W        W24519   5.501  16.685  15.323 -0.0143  0.1405 -0.0421
 8336W        W24520  10.483  10.189   1.481 -0.2758 -0.0063  0.0879
 8337W        W24521   8.846  13.388  11.766 -0.2824  0.0435 -0.0999
 8338W        W24522   0.960   9.442  12.114  0.0033  0.2238 -0.1750
 8339W        W24523   6.698   5.568   2.459 -0.2945  0.1154  0.0535
 8340W        W24524   4.914  14.461  11.659 -0.0407 -0.2893  0.0946
 8341W        W24525   6.728  11.299  15.371  0.1723 -0.1500 -0.4119
 8342W        W24526   9.550  17.553   3.838  0.1286 -0.0941  0.1457
 8343W        W24527   2.389  16.927   2.364  0.3497 -0.1480 -0.0873
 8344W        W24528   4.913  18.075   4.077 -0.1363  0.0348  0.0359
 8345W        W24529   6.930  17.281  11.421  0.3069 -0.0094 -0.0473
 8346W        W24530  12.449   7.789   0.864  0.2495  0.4005 -0.1613
 8347W        W24531   9.472   8.571  13.003 -0.0733 -0.0948 -0.1640
 8348W        W24532  11.963  18.264   4.747 -0.0486 -0.0219 -0.0214
 8349W        W24533   7.027   8.771   1.112  0.2020 -0.1371  0.1193
 8350W        W24534   8.656  18.196  14.994  0.0982 -0.1345 -0.2918
 8351W        W24535  12.573   5.400  14.971 -0.3444  0.3091  0.2623
 8352W        W24536   7.703   5.297   0.699  0.2508 -0.1615  0.1003
 8353W        W24537   9.511  15.383  14.785 -0.0479 -0.0905 -0.3765
 8354W        W24538  10.943   7.491   6.209  0.0094  0.0242 -0.1264
 8355W        W24539   2.158   9.690  14.293  0.2253  0.0350 -0.1645
 8356W        W24540  13.762   8.131  15.595 -0.1021 -0.0791 -0.0132
 8357W        W24541  17.514   1.943   4.247 -0.2357 -0.1087  0.0328
 8358W        W24542   9.576   6.444   5.205  0.0287 -0.0214 -0.0297
 8359W        W24543   4.295   8.391  12.284 -0.1759 -0.2544 -0.2098
 8360W        W24544  14.966   0.999  13.174 -0.0660 -0.2120 -0.0320
 8361W        W24545   5.132  15.776  11.520 -0.4883 -0.0265  0.1071
 8362W        W24546  15.369   3.560   6.053  0.0326 -0.0613  0.1235
 8363W        W24547  18.032  10.669   5.184  0.1564 -0.0867 -0.2867
 8364W        W24548   1.305   5.170   2.297 -0.0070  0.0959 -0.3076
 8365W        W24549  13.593  16.654   4.453 -0.1317  0.0608  0.0869
 8366W        W24550  14.081  15.125  13.540  0.3510  0.1091  0.0273
 8367W        W24551   5.174   9.439   0.197  0.0721 -0.0969 -0.1405
 8368W        W24552  16.865   5.215   2.909 -0.3723 -0.2827 -0.0879
 8369W        W24553  13.711   5.786   0.303 -0.1518  0.2774  0.1714
 8370W        W24554  12.679  13.329   5.101  0.2758  0.1285 -0.1967
 8371W        W24555  17.296  15.308   4.258 -0.1577  0.3742 -0.1300
 8372W        W24556   9.831   4.065  11.556 -0.1655  0.3509  0.0214
 8373W        W24557  10.292   9.800  11.125 -0.1458 -0.0112 -0.0234
 8374W        W24558  11.846  15.927  13.880  0.0119  0.4543 -0.0495
 8375W        W24559   0.638   3.644  14.841  0.1567  0.2349 -0.1699
 8376W        W24560   6.189  13.044   0.280 -0.0451 -0.4482 -0.0336
 8377W        W24561   0.488   8.803  12.734  0.0206  0.2326  0.1218
 8378W        W24562   6.104  15.133   2.759  0.1776  0.1897 -0.3185
 8379W        W24563  11.319  17.542   2.429  0.2622 -0.0039  0.1835
 8380W        W24564  13.463  14.310  13.076 -0.0717  0.1487 -0.1732
 8381W        W24565  11.132   2.864   2.718  0.0012 -0.2571 -0.2217
 8382W        W24566   2.452  17.182  11.175  0.0591  0.0972  0.0293
 8383W        W24567  11.217  18.346   0.315  0.2361 -0.0149 -0.1992
 8384W        W24568  17.862   3.793  12.617  0.0827  0.2887 -0.0985
 8385W        W24569   8.140   4.354   2.803 -0.0483 -0.1519 -0.1977
 8386W        W24570   1.204  14.391   0.234  0.0288 -0.1657 -0.1678
 8387W        W24571   8.325  10.916  12.136 -0.3419  0.2293 -0.2225
 8388W        W24572   0.525   0.091  11.179  0.1663  0.1549  0.0350
 8389W        W24573   9.186   7.222  14.208 -0.1533 -0.2574 -0.3165
 8390W        W24574   4.693  12.558   1.865  0.4604  0.1276  0.1027
 8391W        W24575  17.899   3.322   1.652  0.0496 -0.1100  0.2883
 8392W        W24576   3.174  12.043  15.384  0.1651 -0.1663 -0.0351
 8393W        W24577   6.487   0.603   0.278 -0.2313  0.0528 -0.0608
 8394W        W24578  12.128   2.141  14.512 -0.1333  0.1618 -0.1727
 8395W        W24579  16.465  11.978  14.290 -0.2013 -0.2490  0.1055
 8396W        W24580  12.098  15.913  15.485  0.0635 -0.0603  0.2336
 8397W        W24581   5.862   0.983  14.308 -0.0634 -0.1907  0.4721
 8398W        W24582  17.239  10.351  14.720  0.0315  0.0827  0.1200
 8399W        W24583   9.099  16.037  13.090  0.0885  0.1896  0.0058
 8400W        W24584  16.626  15.012   3.481 -0.3820 -0.1504  0.1979
 8401W        W24585  13.757   5.317   5.424  0.2896 -0.0241 -0.0253
 8402W        W24586   5.347   5.701   3.551 -0.1867 -0.0088  0.2851
 8403W        W24587   9.617  17.486   0.264  0.0929 -0.2783  0.1492
 8404W        W24588   1.523   9.565   4.382 -0.0900 -0.0597  0.0935
 8405W        W24589  13.357   3.030   4.138  0.3533 -0.0296 -0.0156
 8406W        W24590  11.913  16.054  15.947 -0.0084 -0.0206  0.0153
 8407W        W24591   5.524  16.283   4.797 -0.1247  0.0452  0.3290
 8408W        W24592   9.993   4.945  14.615  0.1929 -0.1644  0.1353
 8409W        W24593  17.837  17.363   1.219  0.0570  0.3372 -0.2277
 8410W        W24594   7.710   3.975   4.715  0.3047  0.0339 -0.0296
 8411W        W24595   9.062  12.236  10.035 -0.0004 -0.0626 -0.0629
 8412W        W24596  14.769   0.820  14.050  0.0881 -0.0293  0.1173
 8413W        W24597   7.367  13.749  13.339 -0.0002 -0.0199 -0.2305
 8414W        W24598  10.685  17.373   2.351  0.2481  0.2167  0.4017
 8415W        W24599  15.794  12.209   1.349 -0.2645  0.3083 -0.0825
 8416W        W24600   9.496   1.537  11.451  0.2438 -0.0429 -0.3043
 8417W        W24601  18.107   7.663   1.430 -0.2917  0.1760  0.3047
 8418W        W24602  13.746  17.576   5.268  0.0143  0.0891 -0.2252
 8419W        W24603   5.324  16.495  12.880  0.0277 -0.4877  0.1379
 8420W        W24604   3.902  12.402  14.522 -0.1796  0.3801  0.0461
 8421W        W24605   5.215  13.759   3.661 -0.2903 -0.1346  0.2348
 8422W        W24606   2.311  18.066  11.351 -0.2194  0.2486  0.1949
 8423W        W24607  13.672  11.986   3.967  0.1591  0.0217 -0.2599
 8424W        W24608   3.578   6.847  13.041  0.2235 -0.0377 -0.0087
 8425W        W24609   9.182   1.981  11.536 -0.1389 -0.1338 -0.0068
 8426W        W24610  10.671   8.790  10.845  0.0926  0.0287 -0.1399
 8427W        W24611   5.168   2.568  14.075  0.4799 -0.1687 -0.1702
 8428W        W24612  14.180  18.303  13.182 -0.3255 -0.0188  0.2462
 8429W        W24613   0.918   1.104  11.249 -0.2524 -0.0901 -0.0781
 8430W        W24614  16.381   7.291   1.488  0.6519  0.2082 -0.3243
 8431W        W24615  12.734  11.094   3.246 -0.0109  0.2322 -0.0993
 8432W        W24616   7.259   4.680  16.119 -0.2810  0.0713  0.0836
 8433W        W24617  13.707   8.382   5.214  0.0090  0.3958 -0.1890
 8434W        W24618   3.563   5.923  11.486 -0.4223 -0.0990  0.0247
 8435W        W24619  10.898  16.370   1.821 -0.0003  0.1316  0.2692
 8436W        W24620  12.969   1.064  13.218 -0.0137  0.2780 -0.0713
 8437W        W24621   7.362  11.929   0.176 -0.0619 -0.4503  0.2063
 8438W        W24622   1.357  15.947   3.860 -0.1230  0.0360 -0.1696
 8439W        W24623   5.676   2.331  13.911  0.1406 -0.1712 -0.3494
 8440W        W24624   4.102   0.630  14.383  0.2021  0.1011  0.1197
 8441W        W24625  18.082  14.818  10.959 -0.2187 -0.4621 -0.2576
 8442W        W24626   2.266  14.438  15.073 -0.0328 -0.0382 -0.0676
 8443W        W24627  14.060   9.558  12.223 -0.0698 -0.2429 -0.2626
 8444W        W24628   8.763   8.895  11.410  0.1704 -0.1554  0.2836
 8445W        W24629   5.890   1.869  13.816  0.1108 -0.1318  0.0288
 8446W        W24630   8.445   9.317  13.941  0.2054 -0.1741  0.1073
 8447W        W24631   6.705   2.102  15.762  0.2837  0.0692 -0.0333
 8448W        W24632   0.965   8.044  11.296  0.0588 -0.0264 -0.1670
 8449W        W24633   5.410  10.320  15.083 -0.0656  0.1574  0.2963
 8450W        W24634   7.320   9.113   2.779  0.0389 -0.1278 -0.2976
 8451W        W24635   7.940  12.963  15.244  0.4155  0.0676  0.1428
 8452W        W24636   7.890   3.508   3.727  0.5851 -0.1237 -0.1786
 8453W        W24637  14.068  13.526   5.235 -0.1070  0.0947  0.2127
 8454W        W24638  12.813  18.154   5.226  0.0992 -0.0358  0.2074
 8455W        W24639  10.262   7.119  11.291  0.2360 -0.0912 -0.0219
 8456W        W24640  17.918  13.382  12.848  0.0903  0.0815 -0.1803
 8457W        W24641  14.859   1.437  14.953 -0.0943  0.1069 -0.0019
 8458W        W24642   7.409  12.298   1.041 -0.2253  0.0299 -0.1725
 8459W        W24643   4.480   7.396   3.055 -0.1146  0.0618  0.0211
 8460W        W24644   9.550   7.438   0.274  0.0186  0.3388 -0.4894
 8461W        W24645  12.597  17.823  15.063 -0.1741  0.0530  0.2211
 8462W        W24646  11.753   4.525  14.493 -0.4499 -0.2573 -0.3866
 8463W        W24647  12.833   4.376   1.847  0.0178 -0.3248 -0.0934
 8464W        W24648  15.043  17.619  12.947  0.0869  0.0643  0.2457
 8465W        W24649  14.317   3.384   0.835  0.0287 -0.1137  0.1633
 8466W        W24650   3.227  12.303   0.493 -0.1043  0.1613 -0.0788
 8467W        W24651   2.267  10.884   1.159  0.1525 -0.1811  0.0387
 8468W        W24652   5.289   5.249   2.037  0.0450  0.1751  0.1336
 8469W        W24653   3.382   8.900  14.516  0.0743  0.1750 -0.0552
 8470W        W24654   4.650   2.969  13.186 -0.1304  0.1894  0.2106
 8471W        W24655   5.147   4.510  12.693 -0.1137  0.1284 -0.1003
 8472W        W24656  13.539   4.164  13.336 -0.0969 -0.2836  0.0958
 8473W        W24657   1.402   2.784  15.145 -0.0799  0.0570  0.2272
 8474W        W24658   3.900   3.609   4.298 -0.2622  0.2346 -0.0348
 8475W        W24659   1.510  12.857  15.003  0.0127 -0.0209 -0.0734
 8476W        W24660  10.183  14.885   3.228  0.0409 -0.2799 -0.2862
 8477W        W24661  12.699  17.749  13.583 -0.2084 -0.0875 -0.1399
 8478W        W24662   6.432   8.914   3.131 -0.3066 -0.4081  0.0304
 8479W        W24663  14.582  17.355   3.161  0.1800 -0.0033 -0.0132
 8480W        W24664   4.336  12.695   3.103  0.0744 -0.1617  0.2958
 8481W        W24665   9.378   3.459  11.273 -0.0056  0.1350 -0.0347
 8482W        W24666   9.997   2.453   1.109 -0.0636  0.2585  0.5117
 8483W        W24667   5.901  16.646  14.596  0.2454 -0.0100  0.1994
 8484W        W24668  15.629  10.069  11.967 -0.1249 -0.3272 -0.3452
 8485W        W24669  12.723   1.508  10.810  0.3113  0.2731 -0.0297
 8486W        W24670  16.499  15.864   1.102  0.0850  0.1059 -0.0198
 8487W        W24671  15.283   8.634  13.645 -0.1950  0.2036 -0.1336
 8488W        W24672  14.626   3.836  14.518  0.0248  0.1958  0.1119
 8489W        W24673  15.953  13.620   1.169  0.0839 -0.0223 -0.4593
 8490W        W24674   8.598   1.315   2.533 -0.0317  0.0104  0.1545
 8491W        W24675   0.407  11.925   1.419  0.0498 -0.1042  0.1606
 8492W        W24676  11.880  18.375   1.418 -0.0119  0.0952  0.2176
 8493W        W24677   9.835   2.327  15.008 -0.2880  0.0567  0.0496
 8494W        W24678   0.259  13.326  15.414  0.2557 -0.0484 -0.3139
 8495W        W24679   9.858   5.565   4.989 -0.0745 -0.2141  0.0319
 8496W        W24680   7.454  14.659  11.678  0.4302  0.0216  0.1668
 8497W        W24681  15.407   4.360  13.674  0.4460  0.1573  0.1038
 8498W        W24682  10.670   3.400  16.031  0.0505  0.0311  0.0454
 8499W        W24683   4.772  10.194   3.043  0.3350 -0.2620  0.0028
 8500W        W24684  10.567   0.664  11.796  0.2640 -0.3364  0.2067
 8501W        W24685   3.554  11.592  11.133  0.2190 -0.0920 -0.0919
 8502W        W24686   3.436  12.034   1.925  0.2383 -0.3485 -0.0382
 8503W        W24687  16.737  15.494  14.738  0.0518 -0.1090 -0.2868
 8504W        W24688   6.206  12.588   3.179  0.0841  0.1628  0.2539
 8505W        W24689   8.790   4.047   3.586 -0.1248  0.1919  0.1123
 8506W        W24690  10.266   2.520   2.369 -0.0774 -0.0345 -0.2726
 8507W        W24691  11.015  15.616  13.925  0.2211  0.0244 -0.0082
 8508W        W24692   5.744   3.478   3.896  0.0226  0.0903 -0.0485
 8509W        W24693  17.011   6.735  13.088 -0.0240  0.0923  0.0016
 8510W        W24694  12.670  10.475  16.066 -0.3461  0.1882 -0.1415
 8511W        W24695  11.179  14.736   0.845  0.0746 -0.1846 -0.3684
 8512W        W24696  12.082   9.579   4.853  0.3656 -0.2699 -0.1719
 8513W        W24697   5.596   9.167  14.353  0.0222  0.2241  0.0617
 8514W        W24698   9.376   3.900  13.258 -0.0744  0.1337  0.2828
 8515W        W24699  17.817  15.424  14.688  0.2450  0.0039 -0.2482
 8516W        W24700   8.505  16.631   0.251  0.0406 -0.0913 -0.2007
 8517W        W24701   8.131  16.301   0.253 -0.1969  0.1301  0.0979
 8518W        W24702   0.280   3.989  14.466 -0.2286  0.0123  0.0826
 8519W        W24703   4.466  16.461   3.692  0.1039  0.0455  0.1367
 8520W        W24704  10.864  10.857   5.331 -0.0849  0.1417  0.1786
 8521W        W24705  14.438   9.588  12.701  0.2556  0.0166  0.1585
 8522W        W24706  13.396   8.213  14.838  0.0580  0.0810  0.1949
 8523W        W24707  17.815   0.622  15.767 -0.1531  0.1804 -0.1190
 8524W        W24708  10.237  13.195   1.921 -0.3418  0.1489 -0.0497
 8525W        W24709   5.765   2.222  11.844  0.0431 -0.1311  0.4514
 8526W        W24710   2.787  12.013   2.506 -0.2999  0.2086  0.0736
 8527W        W24711   1.427   7.199  13.761  0.0159 -0.1286  0.1753
 8528W        W24712  17.683  17.448  13.452  0.3860 -0.0164 -0.1136
 8529W        W24713  16.567  14.711   3.015 -0.1219  0.0104 -0.1724
 8530W        W24714   1.093  11.743   0.958  0.0317  0.0004  0.0515
 8531W        W24715   4.069  17.587  13.358  0.0080  0.1572 -0.0247
 8532W        W24716  16.860  11.623   0.392 -0.0069  0.1477  0.0662
 8533W        W24717  17.271  15.780   3.269  0.0638 -0.1178 -0.2243
 8534W        W24718  12.273   7.357   4.271 -0.0378 -0.0283 -0.0418
 8535W        W24719   6.522   9.888  15.431  0.1477  0.0907  0.0898
 8536W        W24720  11.437   0.374  13.983  0.2065 -0.1678 -0.0911
 8537W        W24721  16.471   1.871  15.781  0.3467 -0.4825 -0.0250
 8538W        W24722  10.076  17.439  13.548  0.1237 -0.0441 -0.2401
 8539W        W24723  18.266  11.575   0.732 -0.2755 -0.1200 -0.2567
 8540W        W24724   4.943   5.062   5.670  0.0396  0.1416  0.1793
 8541W        W24725  15.370   4.852   4.748 -0.4053 -0.1397 -0.3469
 8542W        W24726  15.985   6.306  12.733  0.2147 -0.2160 -0.0333
 8543W        W24727   6.193  11.194   3.222 -0.0087 -0.0287 -0.0817
 8544W        W24728   0.004   7.916   4.716 -0.2465 -0.1325 -0.1919
 8545W        W24729   9.417   7.300   4.585  0.0628  0.2560 -0.1124
 8546W        W24730  12.625   6.534  13.378 -0.0690  0.0560 -0.0625
 8547W        W24731   4.129   2.202   0.928 -0.0272  0.1630  0.3455
 8548W        W24732  12.504   4.132  10.800  0.0367  0.1884 -0.0968
 8549W        W24733   9.367  11.911   5.160  0.1427 -0.0041 -0.1878
 8550W        W24734   5.883  10.029  11.301  0.1518  0.1009  0.0413
 8551W        W24735   0.207   0.414  15.271  0.5016 -0.3231  0.1057
 8552W        W24736  18.497   7.947  16.133 -0.0481 -0.1965  0.0194
 8553W        W24737   6.592  16.533   1.605  0.0576  0.2047 -0.1050
 8554W        W24738   1.448   3.317   5.339 -0.1943 -0.2251  0.5576
 8555W        W24739   0.734  13.229   2.528 -0.0293  0.0741  0.0226
 8556W        W24740   8.934   2.107   2.582 -0.2123  0.2728 -0.2265
 8557W        W24741  17.997  10.335   3.819  0.0009  0.0388 -0.3506
 8558W        W24742   2.666  13.806  11.925  0.0109  0.4572  0.1953
 8559W        W24743   9.343   7.328   2.063  0.0906 -0.0264 -0.1615
 8560W        W24744   8.741   2.092  12.952 -0.3139 -0.1315  0.2582
 8561W        W24745   4.777  14.514   2.499  0.1036 -0.3088 -0.2517
 8562W        W24746   7.832   6.685  14.212  0.0522 -0.0217  0.1163
 8563W        W24747  11.219   8.125  10.661 -0.3197 -0.1388  0.3021
 8564W        W24748   1.855   7.706  11.711 -0.0063  0.0738 -0.0513
 8565W        W24749   8.666   4.600  14.347 -0.3946  0.1098 -0.0711
 8566W        W24750  17.358  14.696   3.840 -0.0546  0.0055  0.1759
 8567W        W24751   3.130   6.086  15.064  0.1543  0.1198 -0.2251
 8568W        W24752   3.505  10.779   3.021  0.0734 -0.0343  0.0819
 8569W        W24753  10.515   2.156   4.244 -0.1631 -0.1177  0.3345
 8570W        W24754   6.897   2.108  11.488 -0.6853 -0.1166  0.0035
 8571W        W24755   1.059   5.028   2.715 -0.0462 -0.0979 -0.1771
 8572W        W24756   7.187  17.934   1.616 -0.0717  0.1960  0.0341
 8573W        W24757   6.579  17.957  13.143 -0.1214 -0.2053 -0.1175
 8574W        W24758  15.847  17.427  11.802 -0.1469 -0.1890 -0.0181
 8575W        W24759  18.465  18.319  12.716  0.2142 -0.1156  0.0175
 8576W        W24760   6.915   3.522  14.548 -0.3550  0.1773  0.1286
 8577W        W24761  15.425   3.077   0.817 -0.0191  0.3415 -0.1164
 8578W        W24762   4.755   3.313  11.601  0.0902  0.1782  0.0010
 8579W        W24763  18.131  12.758   2.483 -0.0511  0.2337 -0.0681
 8580W        W24764   3.745   8.736  13.499  0.2693  0.1744  0.4081
 8581W        W24765   9.809  13.272   3.736  0.1843 -0.1759 -0.0131
 8582W        W24766   8.978  17.643   3.791 -0.3954  0.1930 -0.1442
 8583W        W24767  15.118  16.620  13.147 -0.1516  0.2108  0.0350
 8584W        W24768   5.064   0.396   4.387 -0.1885 -0.1602  0.5007
 8585W        W24769  10.415   8.911  11.629  0.2567 -0.0740 -0.1028
 8586W        W24770   1.221   7.506   5.067  0.1153  0.1839 -0.0081
 8587W        W24771   6.192   4.236   1.542  0.0273  0.2408  0.1850
 8588W        W24772   0.914   2.826  13.470 -0.0582  0.1228  0.1497
 8589W        W24773   7.708   9.979  11.844  0.2654  0.4409  0.1077
 8590W        W24774   7.507   9.231   0.248 -0.0537 -0.0777  0.1423
 8591W        W24775   3.744  15.662   1.027  0.1314 -0.5423 -0.2143
 8592W        W24776  13.337   7.224  15.359 -0.1651 -0.0517  0.5052
 8593W        W24777   5.649   8.618  14.368  0.0882 -0.1697  0.1744
 8594W        W24778   3.504   9.848  14.062  0.0267  0.0998 -0.0754
 8595W        W24779  18.388   8.518  15.441 -0.3071  0.0169  0.0842
 8596W        W24780  17.774   0.178   2.987 -0.1432  0.2596 -0.2467
 8597W        W24781  17.703   1.858  13.384  0.1461 -0.1730 -0.1344
 8598W        W24782  10.806   6.182   4.206  0.0867 -0.0521 -0.0831
 8599W        W24783   2.037   6.521  12.697 -0.1718 -0.0960 -0.0845
 8600W        W24784  18.407  11.925  13.435 -0.0857  0.3578  0.0732
 8601W        W24785  18.292  11.148  15.668  0.0243 -0.2515  0.1572
 8602W        W24786  15.783  12.810   0.537 -0.0184 -0.0002 -0.1550
 8603W        W24787   7.411   4.664   2.743  0.3753  0.0985  0.2309
 8604W        W24788   3.139  14.659   2.597 -0.0569  0.0054 -0.5513
 8605W        W24789  14.344   4.092   2.012 -0.0017  0.2406  0.2280
 8606W        W24790  17.392   5.055   0.104 -0.1392  0.2979  0.3410
 8607W        W24791  14.812   0.007   4.134  0.3597 -0.1975  0.1362
 8608W        W24792  17.043   6.354   0.433 -0.2670 -0.1320 -0.1560
 8609W        W24793  15.637   9.795  15.231 -0.1016 -0.3509  0.0837
 8610W        W24794  15.537  15.519   2.690 -0.1233 -0.1606  0.2755
 8611W        W24795   9.955  16.715  12.405 -0.1379  0.0276 -0.3689
 8612W        W24796   2.481  16.244  15.328 -0.2915  0.1739  0.1690
 8613W        W24797   0.288   0.100   1.375  0.2286  0.1063  0.0165
 8614W        W24798  12.194  13.432  14.306  0.0748 -0.0957 -0.2194
 8615W        W24799   0.576   0.263  10.651 -0.3306 -0.1583  0.1386
 8616W        W24800  16.886  10.943  12.255 -0.3057  0.3004  0.0717
 8617W        W24801  12.127  11.505  15.726  0.2938  0.4032 -0.1290
 8618W        W24802  16.108  13.119  13.483  0.1376  0.1542 -0.1216
 8619W        W24803  18.283  13.463  10.960  0.2679 -0.3161  0.0108
 8620W        W24804   3.562   5.266   0.045 -0.1755  0.0803 -0.1113
 8621W        W24805  15.250   7.338  14.491 -0.0711 -0.3090  0.3513
 8622W        W24806   5.171  15.810   3.993  0.1067 -0.1833  0.1628
 8623W        W24807   3.763   1.743   2.879 -0.0539 -0.1385 -0.2176
 8624W        W24808  13.577   9.849  15.956 -0.1243 -0.2161 -0.4179
 8625W        W24809   5.595  14.530   0.561 -0.0274  0.2975  0.1354
 8626W        W24810   6.087  14.097   2.632  0.0650  0.0223  0.0320
 8627W        W24811  10.455   4.383  11.130 -0.5120  0.1822 -0.1246
 8628W        W24812   2.126   4.688  13.231 -0.0208  0.0173  0.0421
 8629W        W24813   2.576  16.718  15.162  0.2583 -0.0523 -0.3268
 8630W        W24814  17.671  18.372   3.366  0.0134  0.3146  0.1589
 8631W        W24815  15.772  12.469   1.898 -0.1893  0.0652  0.0097
 8632W        W24816  10.425   0.244   1.037  0.0158  0.0478 -0.2144
 8633W        W24817   4.886  17.654  13.402  0.1968  0.2021  0.0811
 8634W        W24818  16.245   6.909   3.011  0.0629 -0.1193  0.0592
 8635W        W24819  17.296   3.643  14.152  0.0591  0.0416 -0.0007
 8636W        W24820   7.018   0.031  12.030 -0.1239  0.1376 -0.0116
 8637W        W24821  11.627   3.850   4.773 -0.0772  0.0827 -0.1735
 8638W        W24822  15.843  16.367   1.272  0.0888 -0.1311  0.2067
 8639W        W24823  13.989   7.966  15.182 -0.1110  0.2347  0.1927
 8640W        W24824  11.277  18.445  11.872 -0.2604 -0.0510  0.0758
 8641W        W24825   3.234  13.110   1.039 -0.2145  0.1052 -0.3304
 8642W        W24826  16.056   8.646  14.281  0.1924 -0.1291  0.0844
 8643W        W24827  16.654   5.688  10.911  0.0895 -0.2436 -0.1523
 8644W        W24828  14.124   5.614   1.672  0.1296  0.2942  0.2180
 8645W        W24829  17.385  18.520  12.930 -0.0618  0.0897 -0.1984
 8646W        W24830   3.581   3.825   1.326 -0.0198  0.0126 -0.0191
 8647W        W24831   8.660  15.964  12.336 -0.0686  0.3890  0.2611
 8648W        W24832  17.349   5.276  12.130 -0.1029  0.3971  0.2486
 8649W        W24833   1.263  16.575  11.427  0.3246  0.3557  0.2341
 8650W        W24834  13.123   8.727  12.015 -0.0338  0.0427 -0.2103
 8651W        W24835   2.084  18.349   3.122  0.1517 -0.2039 -0.2336
 8652W        W24836   2.652  16.940  10.572 -0.0495 -0.1612  0.1008
 8653W        W24837  16.811   3.004  16.048  0.0953  0.0949 -0.1895
 8654W        W24838   6.078  13.118   3.117  0.3379  0.1408  0.0761
 8655W        W24839   8.690  14.322  11.350 -0.1050  0.0107 -0.0176
 8656W        W24840   4.983   0.630  15.235  0.0314  0.0329 -0.1650
 8657W        W24841  17.915  10.426  15.495  0.0239 -0.1971 -0.0578
 8658W        W24842   3.615   8.368  12.476  0.0560 -0.3025 -0.0485
 8659W        W24843  17.986  17.488   4.457 -0.4054  0.2006  0.0897
 8660W        W24844   3.869   5.277  13.809  0.2218  0.0715  0.0259
 8661W        W24845  13.202   7.393   5.607  0.2206  0.0331  0.0885
 8662W        W24846   9.862  15.210  13.133 -0.1555  0.0493 -0.0769
 8663W        W24847   3.605   4.456   3.367 -0.1944 -0.0979 -0.0634
 8664W        W24848  12.654   9.125   3.799  0.2473 -0.0240  0.1275
 8665W        W24849  14.893   0.338   3.685 -0.1049 -0.1622  0.3310
 8666W        W24850  17.657  11.740  11.267 -0.1174  0.2528  0.0817
 8667W        W24851  12.491   9.836   4.942 -0.2114 -0.0368 -0.1421
 8668W        W24852   4.867  12.764  15.797 -0.3451 -0.0178 -0.0374
 8669W        W24853  12.373   2.994   2.972  0.0402  0.3261 -0.3524
 8670W        W24854  16.781  16.921   0.295 -0.2173  0.0607 -0.4520
 8671W        W24855   1.362   6.644   3.672 -0.2876 -0.0473 -0.0801
 8672W        W24856  11.726  17.680   5.665  0.0833 -0.2524  0.2923
 8673W        W24857   0.492  10.190   1.215  0.0077  0.2744  0.2247
 8674W        W24858   1.466   8.887   4.955 -0.0133 -0.1478 -0.0536
 8675W        W24859   8.337  12.516  12.454  0.1366 -0.0417  0.1077
 8676W        W24860   7.054  16.021  14.212  0.3155 -0.2064 -0.0411
 8677W        W24861  12.561   2.428   4.754 -0.1779  0.1164 -0.3197
 8678W        W24862   7.111  13.290  11.771 -0.0315 -0.2613 -0.0088
 8679W        W24863  11.749  11.123   3.348  0.2417 -0.0417 -0.0943
 8680W        W24864   8.113  13.387  15.345 -0.0352 -0.0517  0.0740
 8681W        W24865  13.393   2.573   3.729  0.0570 -0.0652 -0.1029
 8682W        W24866   4.431   7.123   1.639 -0.0501 -0.0906 -0.2241
 8683W        W24867   5.714   6.776   1.576  0.2537  0.0685  0.0182
 8684W        W24868  12.353   2.188  14.040 -0.0515  0.2186  0.0503
 8685W        W24869   5.498  15.886  11.918  0.2654  0.2166 -0.2729
 8686W        W24870   2.962   3.533  16.117 -0.0783  0.0230  0.2461
 8687W        W24871   4.600   9.299   2.827 -0.1938  0.2664 -0.0414
 8688W        W24872   2.445   5.293  11.173  0.0002 -0.4170 -0.0002
 8689W        W24873  14.424   9.072   5.559  0.1522 -0.0430 -0.1801
 8690W        W24874   5.923  17.985   5.137  0.0229 -0.2134  0.1427
 8691W        W24875   6.942  11.219  11.407 -0.0565  0.2761 -0.0167
 8692W        W24876   3.278   2.215   3.803  0.2750  0.1825  0.3348
 8693W        W24877  12.282  15.671  15.941 -0.0527 -0.0270  0.0311
 8694W        W24878  10.489   5.583  11.305  0.4108  0.1679  0.0427
 8695W        W24879   2.782  17.354  10.809  0.2366 -0.0206  0.1601
 8696W        W24880   3.287  14.149   4.680 -0.2117 -0.1082 -0.1622
 8697W        W24881   5.378  16.207  11.595 -0.1687 -0.1528 -0.0054
 8698W        W24882  16.397   3.558  11.670 -0.1339  0.0404  0.0716
 8699W        W24883   0.907  15.039   1.262  0.1067  0.0637  0.1889
 8700W        W24884   3.823  14.700   1.930 -0.0800  0.0629 -0.1001
 8701W        W24885   6.164  10.605   0.523 -0.0623 -0.2296  0.1390
 8702W        W24886   3.203   5.532  15.847 -0.3938 -0.1581 -0.0177
 8703W        W24887   6.393   9.041   2.267 -0.0438  0.0691  0.0044
 8704W        W24888  16.149   5.771   3.841 -0.1612  0.0829  0.0026
 8705W        W24889  11.044  16.936  13.298  0.1788  0.3605 -0.0371
 8706W        W24890  10.633   9.461  13.160 -0.0553  0.1378  0.0460
 8707W        W24891   9.399   9.057  13.169 -0.1332  0.1105 -0.0862
 8708W        W24892   1.976   8.856   4.669 -0.3873 -0.0140 -0.0018
 8709W        W24893   9.140  13.030  15.054 -0.0399  0.1400 -0.3908
 8710W        W24894   6.403   2.897  15.041 -0.0400 -0.0309 -0.1753
 8711W        W24895   6.591  13.281   3.824  0.0283  0.1665 -0.0537
 8712W        W24896  17.894   4.328  15.469  0.2273 -0.0938  0.0983
 8713W        W24897   5.056   0.729   0.572 -0.1186  0.0957 -0.0063
 8714W        W24898   6.671   7.582  13.254 -0.1922 -0.1108 -0.2631
 8715W        W24899   2.212  11.732   4.484 -0.2987 -0.1701 -0.4086
 8716W        W24900  10.576  14.961  15.204  0.2249 -0.0093 -0.3970
 8717W        W24901  10.388  13.849  12.756  0.1370  0.0838 -0.0457
 8718W        W24902   2.843   8.561   2.349 -0.1086 -0.2081  0.1970
 8719W        W24903  11.166  16.546   2.926  0.2421  0.3298  0.3265
 8720W        W24904   2.213   9.037   0.729  0.1657 -0.4403 -0.0594
 8721W        W24905   7.468   1.205  12.154  0.0684  0.0433 -0.0501
 8722W        W24906  10.946  14.303   2.817  0.2345  0.1394 -0.2739
 8723W        W24907   6.535   9.480   4.143  0.0900  0.1488 -0.0438
 8724W        W24908   7.580  12.992   2.858 -0.0087 -0.1730  0.4132
 8725W        W24909   3.511   0.831  10.896 -0.0820 -0.1152  0.1789
 8726W        W24910   2.073   0.924  15.575 -0.1967 -0.2245 -0.4205
 8727W        W24911  16.987  14.352   4.918 -0.0956 -0.1385 -0.0610
 8728W        W24912   2.331  13.335  14.012 -0.1701 -0.1363 -0.4989
 8729W        W24913  16.343  12.181  13.805 -0.0512  0.0415  0.0705
 8730W        W24914   7.377  17.885   5.469  0.3966  0.1429  0.1805
 8731W        W24915   3.471  13.470   3.302 -0.0935 -0.1918 -0.1932
 8732W        W24916  12.420   5.399   5.303 -0.0936 -0.1093  0.1776
 8733W        W24917  16.682   7.736   4.866  0.3122  0.1110 -0.1184
 8734W        W24918  18.357   6.858   3.091 -0.0799  0.0993 -0.1938
 8735W        W24919  15.002  10.805  12.323 -0.0156 -0.2242  0.0026
 8736W        W24920   0.179  16.421  15.277  0.0069  0.1970 -0.0334
 8737W        W24921   5.315  18.502   2.450  0.0259 -0.0464 -0.0077
 8738W        W24922   0.050  12.288  13.081 -0.1500  0.1028  0.2757
 8739W        W24923   5.711   0.263  14.848 -0.2023  0.3650 -0.2824
 8740W        W24924  10.907  13.981  11.941 -0.1439  0.1998 -0.3749
 8741W        W24925  12.818   3.936  13.357 -0.2542 -0.0127 -0.0285
 8742W        W24926  12.671  10.127   1.278  0.1650  0.1772  0.0612
 8743W        W24927  12.582  12.960  10.611  0.0889 -0.2374  0.0878
 8744W        W24928  13.132  15.870   1.327  0.1293  0.2826  0.0006
 8745W        W24929   9.783   5.817   3.438  0.0146 -0.0126 -0.0821
 8746W        W24930   5.607   9.568   2.935 -0.4024 -0.0132 -0.0088
 8747W        W24931   7.569  10.634  13.809 -0.1965 -0.0932 -0.1313
 8748W        W24932  17.563   0.816  14.260  0.0436 -0.3089 -0.0570
 8749W        W24933  13.696  10.758  13.231 -0.2378  0.0046  0.0003
 8750W        W24934  12.456  15.251   0.116  0.0749  0.1424 -0.0306
 8751W        W24935  17.870   7.229   4.213  0.0900 -0.1892 -0.0538
 8752W        W24936   5.497  16.545   1.276  0.3001 -0.1838  0.1911
 8753W        W24937   7.881   0.444   4.772  0.0407 -0.1108 -0.0471
 8754W        W24938   0.597   1.476  14.334  0.1299 -0.0979  0.0381
 8755W        W24939   9.383   9.945   1.595 -0.1156 -0.0841 -0.3306
 8756W        W24940   5.740   7.997  12.769 -0.2479  0.0522 -0.2977
 8757W        W24941   8.196   5.434   4.998  0.1585 -0.1954  0.1815
 8758W        W24942   4.422   0.845   5.115 -0.0003 -0.0257 -0.1153
 8759W        W24943   2.258   6.424  13.266  0.3461 -0.0619  0.2132
 8760W        W24944   8.142   2.719  11.758 -0.0618 -0.1339 -0.0962
 8761W        W24945   0.716   2.176   3.385 -0.1623 -0.1703  0.0717
 8762W        W24946   1.553  10.238   0.963 -0.1570 -0.1184  0.0161
 8763W        W24947   5.979  10.568   4.772 -0.0164 -0.0080  0.0745
 8764W        W24948  17.180  10.558   2.704 -0.1420 -0.2258  0.1202
 8765W        W24949  17.712   7.066   0.916 -0.0009 -0.2599 -0.3693
 8766W        W24950  10.589   1.128   5.262 -0.0723  0.3204  0.1219
 8767W        W24951   7.002   5.242   3.496  0.2970  0.3590 -0.1908
 8768W        W24952   5.814   5.420  13.508  0.1036 -0.0716  0.2606
 8769W        W24953  16.689   6.606   0.131  0.1784 -0.1302 -0.2695
 8770W        W24954   6.648   2.382   0.189  0.0732  0.2745 -0.0073
 8771W        W24955  11.058  17.050   2.223  0.0919  0.1786  0.2422
 8772W        W24956   9.375   8.040  15.624 -0.2086 -0.0058 -0.0563
 8773W        W24957  14.818  14.958  15.048  0.0395 -0.0367  0.3015
 8774W        W24958   3.644   9.945  11.566 -0.0338 -0.2590 -0.2259
 8775W        W24959  17.892  14.586   4.438 -0.2737 -0.1808 -0.0274
 8776W        W24960   2.915  15.895  11.811  0.0300 -0.3147 -0.0533
 8777W        W24961   9.041   6.341  15.985 -0.3179  0.0471 -0.0123
 8778W        W24962   4.163   5.743  11.382  0.2791  0.1001  0.2357
 8779W        W24963   7.627  12.419   0.283 -0.1727 -0.3435 -0.0706
 8780W        W24964  15.734   6.132   1.240 -0.1008 -0.2658 -0.1859
 8781W        W24965  15.580   2.577  12.804  0.0044 -0.0394  0.1981
 8782W        W24966  15.366   4.539  12.081  0.0262 -0.1078  0.4683
 8783W        W24967  15.081  15.716   5.087  0.1881  0.4466 -0.0728
 8784W        W24968   6.642   2.587  15.768  0.0519 -0.1678  0.0344
 8785W        W24969   5.613   7.786   0.137  0.1009  0.2245  0.0749
 8786W        W24970  14.743   4.352   1.873 -0.3826 -0.2929  0.1102
 8787W        W24971   4.763   7.360  12.173 -0.1762 -0.0471  0.0504
 8788W        W24972  17.269  10.424   5.238 -0.4066 -0.0116  0.1973
 8789W        W24973   7.165   5.215  13.645 -0.3045 -0.1516  0.2362
 8790W        W24974   9.095  13.565  15.249 -0.0516  0.0250 -0.3724
 8791W        W24975   4.882   7.849  15.306 -0.2968 -0.1300 -0.1005
 8792W        W24976  15.968  14.276  14.360  0.1540 -0.2714 -0.0489
 8793W        W24977  15.577  14.600  13.240  0.1039  0.1088 -0.0257
 8794W        W24978  14.513   8.169   0.975  0.2031  0.1867 -0.0228
 8795W        W24979   5.478  10.032   5.547 -0.1798  0.2069  0.0248
 8796W        W24980  17.152   4.433   0.964  0.3139 -0.0652 -0.2001
 8797W        W24981   8.463   9.112   4.801  0.1122 -0.0941 -0.2171
 8798W        W24982  13.843   5.095  11.718 -0.0232 -0.1048  0.1561
 8799W        W24983   0.236  18.469  10.435  0.1566  0.2417 -0.2826
 8800W        W24984   0.061   1.871   4.532 -0.2029  0.3276 -0.3120
 8801W        W24985   2.930   1.790   1.059  0.0003 -0.3219  0.2806
 8802W        W24986  14.259   0.206  13.438 -0.0032  0.0494 -0.5063
 8803W        W24987   2.403  14.286   1.001 -0.0702  0.0448  0.0842
 8804W        W24988  11.671  16.204  14.348 -0.2138 -0.2385  0.0224
 8805W        W24989   2.957   8.931  14.723  0.1035  0.1193  0.0250
 8806W        W24990  16.001   1.577   1.246  0.3881 -0.1506 -0.0811
 8807W        W24991  15.285   3.733   4.363 -0.0856  0.1094 -0.1225
 8808W        W24992   4.180   2.874   1.989 -0.0454  0.0884 -0.0923
 8809W        W24993  12.895   7.532   3.990  0.0950 -0.2606  0.1283
 8810W        W24994  17.689   3.994   2.119  0.1640  0.0229  0.1432
 8811W        W24995  16.673   4.693   2.297 -0.2184  0.0105  0.0076
 8812W        W24996   7.693   8.736  15.319  0.2562 -0.2510 -0.1864
 8813W        W24997   1.564   6.774   5.457 -0.1122 -0.0336  0.3126
 8814W        W24998  12.889   4.339  15.978 -0.0065  0.0171  0.1176
 8815W        W24999   3.679   9.027  15.398  0.0624 -0.0773  0.1017
 8816W        W25000   9.459   3.139   2.728  0.0934 -0.5560 -0.1780
 8817W        W25001   4.572  13.599   1.549  0.0880 -0.0886 -0.2080
 8818W        W25002   7.934   8.051  14.672 -0.0240  0.2004  0.1678
 8819W        W25003   1.907   7.115  13.707 -0.2754  0.1438  0.0418
 8820W        W25004  12.787  10.054  15.448  0.0162 -0.1829 -0.0505
 8821W        W25005  12.870  16.633  11.360  0.0603  0.0210  0.1860
 8822W        W25006  12.576   5.317  11.365 -0.1288  0.0656 -0.1893
 8823W        W25007   1.792  13.378   0.300  0.2188  0.0058  0.1266
 8824W        W25008   6.696   0.797  14.314  0.1104 -0.0445 -0.1658
 8825W        W25009  12.170   2.808  11.318 -0.3393 -0.2504  0.0812
 8826W        W25010   6.813   6.175   0.370  0.2737 -0.3630 -0.1481
 8827W        W25011   9.676   7.292  12.478  0.1563 -0.0802  0.1708
 8828W        W25012   7.961   1.967   2.795  0.0605 -0.1853 -0.0561
 8829W        W25013   4.764   6.832  14.958  0.3528 -0.1661  0.1939
 8830W        W25014   0.089  16.268   2.975 -0.1184  0.0501  0.0105
 8831W        W25015   9.252   0.198  14.330  0.3635  0.1972  0.1518
 8832W        W25016  11.278  16.211  15.315 -0.4160 -0.0038  0.1668
 8833W        W25017   2.383   6.753  13.618  0.0465 -0.2186  0.0308
 8834W        W25018   6.071  13.159   0.764  0.1359  0.1310  0.0880
 8835W        W25019   0.574  12.973   4.593  0.0519  0.0390 -0.1665
 8836W        W25020  11.817  14.973  13.284 -0.0540  0.0804 -0.3302
 8837W        W25021   7.580  13.691   5.055  0.1302  0.0031 -0.2502
 8838W        W25022   3.431   2.398  10.621  0.2313 -0.1818  0.0113
 8839W        W25023   3.659   5.547   3.333  0.1974  0.1771  0.1370
 8840W        W25024   7.728  17.452  15.676  0.0241  0.1571 -0.0675
 8841W        W25025   7.514   1.273  15.734 -0.1778 -0.2969  0.1434
 8842W        W25026   7.171  16.259   5.449 -0.1446 -0.0254  0.3571
 8843W        W25027   7.180  15.089   2.030  0.1834  0.0378  0.3389
 8844W        W25028  10.277   6.879  14.777  0.1249 -0.5145 -0.0438
 8845W        W25029   7.171   0.315   2.903  0.1084 -0.1268  0.1018
 8846W        W25030  13.699  18.407   4.389 -0.3577 -0.1413  0.2465
 8847W        W25031   7.613   7.597  12.321  0.0991  0.2380  0.1172
 8848W        W25032   4.518   5.497  13.476 -0.0189  0.1778 -0.0311
 8849W        W25033   5.139  16.807  15.688  0.2996 -0.3951 -0.2789
 8850W        W25034   2.675   6.928  12.693  0.2701 -0.1512 -0.3301
 8851W        W25035   3.193   1.335   1.492  0.2559 -0.1072  0.1923
 8852W        W25036   6.075   7.762   1.608 -0.3715  0.1565  0.1974
 8853W        W25037   7.890  10.402  11.955  0.0019  0.2976 -0.1385
 8854W        W25038  11.129   0.586  14.852 -0.0138 -0.3722 -0.0956
 8855W        W25039   7.526  14.341   3.579  0.0279 -0.3958 -0.0027
 8856W        W25040  12.985   9.760   2.458 -0.1412 -0.1651 -0.1388
 8857W        W25041  17.721  11.920  15.178  0.1271  0.2729 -0.1048
 8858W        W25042  16.141  15.215   3.575  0.1011  0.4166  0.2126
 8859W        W25043  15.206   9.310  14.608  0.1287  0.1785 -0.0030
 8860W        W25044   5.996   8.627   3.115  0.1873  0.1033 -0.1721
 8861W        W25045  11.506  14.575   3.098 -0.0483 -0.0792 -0.1984
 8862W        W25046  10.676   1.087   1.041  0.1876  0.1874 -0.2579
 8863W        W25047   3.985   6.844   3.189  0.0618  0.1280 -0.1878
 8864W        W25048  17.267   2.628  16.120 -0.2253  0.2196 -0.0603
 8865W        W25049  12.666   8.511   3.790 -0.1876 -0.0135 -0.2295
 8866W        W25050  18.430   1.386  12.211 -0.0662 -0.1750 -0.5058
 8867W        W25051  14.961   5.096  11.524  0.0313  0.0661  0.0503
 8868W        W25052  13.324  12.567  14.066 -0.3474  0.2523  0.0012
 8869W        W25053   1.297  10.701   2.788 -0.0645 -0.0523  0.1041
 8870W        W25054  18.480   9.789  12.636 -0.1536  0.1279 -0.0701
 8871W        W25055  16.087   7.087   1.181  0.4150  0.1510 -0.0274
 8872W        W25056   1.754   4.034   0.693  0.2915  0.0038 -0.0689
 8873W        W25057  15.626   8.334  11.573 -0.1416 -0.0627 -0.0041
 8874W        W25058  13.250   3.242  15.100  0.1539  0.1099  0.0707
 8875W        W25059  17.484   0.557  13.815 -0.0143 -0.3932 -0.0350
 8876W        W25060   8.822   8.024  14.241  0.0298  0.0571 -0.1555
 8877W        W25061  10.675  17.364   2.933 -0.2324 -0.3653 -0.2105
 8878W        W25062   4.869   7.943  14.171 -0.0292 -0.2613 -0.1324
 8879W        W25063  14.866  10.064   1.436 -0.0121  0.0994 -0.1545
 8880W        W25064   6.360   0.346  16.085  0.0904 -0.1343 -0.1210
 8881W        W25065   9.513  17.256  12.919  0.2413  0.0232  0.1211
 8882W        W25066   5.085   2.246   3.302  0.0708 -0.1013  0.0551
 8883W        W25067  14.052  18.134   1.563  0.0864  0.0723 -0.0484
 8884W        W25068   4.860  15.130  15.767  0.0078 -0.2117  0.0610
 8885W        W25069  15.155   7.603  14.858 -0.1030 -0.3731 -0.1398
 8886W        W25070  14.963   7.656  15.397 -0.1425 -0.0964 -0.1002
 8887W        W25071   1.330  18.357  13.155 -0.2401  0.2138 -0.1042
 8888W        W25072   3.124   5.636  11.386  0.0132  0.0966 -0.1086
 8889W        W25073   7.007  16.920  13.904 -0.0691  0.2019 -0.2797
 8890W        W25074   1.027   3.484  14.089  0.1559  0.1412  0.2238
 8891W        W25075  16.009   8.868   2.499  0.0964  0.0906  0.1554
 8892W        W25076  11.316   6.854   4.974 -0.1190  0.0821  0.0673
 8893W        W25077   8.609   7.462   5.098  0.0101  0.6047 -0.4129
 8894W        W25078   9.846   4.149   0.171  0.0804 -0.2388 -0.1067
 8895W        W25079  17.989   6.360  12.969  0.1118  0.1235 -0.2714
 8896W        W25080  17.713   4.447   4.986  0.1470  0.1615 -0.2557
 8897W        W25081   3.926  18.515  10.505 -0.0423  0.1605  0.2685
 8898W        W25082  10.745  16.700   5.281 -0.0461  0.1528 -0.0778
 8899W        W25083   3.548   0.307  11.145 -0.1186 -0.1848 -0.3265
 8900W        W25084   2.819  18.253  13.673  0.2001  0.1307 -0.3534
 8901W        W25085   9.065  10.737   6.039  0.1649 -0.1821  0.0910
 8902W        W25086  16.475   2.778  12.534 -0.0247 -0.0887  0.1051
 8903W        W25087  16.641  13.188   1.035 -0.1643 -0.2965  0.0382
 8904W        W25088   2.814  18.118   4.317 -0.2122 -0.0707 -0.1616
 8905W        W25089   3.911  18.024   1.210 -0.2173 -0.1719  0.0326
 8906W        W25090   0.230  16.333  14.005  0.1123 -0.2637  0.1621
 8907W        W25091   8.595  14.563  14.522 -0.0402 -0.0614  0.1500
 8908W        W25092  14.734   5.889   4.102  0.0987 -0.4503  0.1333
 8909W        W25093   3.589  15.433  11.987  0.1999 -0.0216 -0.1753
 8910W        W25094  14.438   1.145  14.255 -0.1837 -0.1965  0.1184
 8911W        W25095   9.577  15.085  11.917 -0.0671 -0.0358  0.0827
 8912W        W25096   6.506   1.566   2.401  0.0720 -0.1101 -0.1011
 8913W        W25097   7.546   8.567  14.890 -0.0511  0.1022  0.1632
 8914W        W25098  10.289   1.863   1.594  0.2470 -0.2119  0.1398
 8915W        W25099  16.155  10.113   4.288  0.0614  0.0819  0.1217
 8916W        W25100  13.099  14.535   3.021 -0.1778 -0.1748  0.0010
 8917W        W25101  16.609   5.633  12.468 -0.1194  0.0330 -0.0227
 8918W        W25102   5.346   3.416   2.981  0.3698  0.0257 -0.3120
 8919W        W25103   7.999  12.479   4.004 -0.1932 -0.2280  0.1019
 8920W        W25104  15.086  11.217  12.559  0.0743  0.2788 -0.1009
 8921W        W25105   3.774   0.482  12.482  0.3238  0.0473  0.0176
 8922W        W25106   0.823  10.213   3.669 -0.0713  0.2066  0.0703
 8923W        W25107   3.974   7.899  15.365  0.0201 -0.2031  0.1302
 8924W        W25108  17.911   8.495  12.550  0.2789 -0.0796 -0.1783
 8925W        W25109   6.962   6.667   0.405 -0.0456  0.1535  0.0566
 8926W        W25110  17.560  12.068   1.044  0.0372  0.1578  0.3352
 8927W        W25111   9.127   1.235  11.273  0.0269  0.0195 -0.1626
 8928W        W25112  12.036   0.990  14.843 -0.1224  0.1636 -0.0421
 8929W        W25113   4.034   5.176  10.461 -0.2291  0.2179 -0.0542
 8930W        W25114  10.004   0.859  15.950  0.1497  0.0147  0.0569
 8931W        W25115   6.669  16.080   1.236 -0.1079  0.1861  0.2840
 8932W        W25116   8.230   0.969   0.354  0.3199 -0.0981 -0.1054
 8933W        W25117  17.246  13.063   6.137  0.0839 -0.1625 -0.0892
 8934W        W25118   5.560   7.198   4.528  0.3842 -0.0038  0.2333
 8935W        W25119   7.649   0.424  14.282  0.2671 -0.1705  0.0431
 8936W        W25120  16.675  12.562  13.824  0.0341 -0.2465  0.3362
 8937W        W25121   4.877  10.717   3.373 -0.0162 -0.0241 -0.1170
 8938W        W25122   3.473   3.672   2.237 -0.0426 -0.0913 -0.3293
 8939W        W25123  16.269   2.997  12.135 -0.1262 -0.2705  0.2658
 8940W        W25124  15.423  11.987   3.044  0.2406 -0.3222  0.0599
 8941W        W25125  15.196   2.435   3.866 -0.0867  0.1498 -0.1786
 8942W        W25126  15.036   8.045   5.253 -0.3984  0.2803  0.0581
 8943W        W25127   3.001  15.262  14.697 -0.5460  0.4137  0.0739
 8944W        W25128   5.988   3.805   3.508 -0.1233  0.2687 -0.2786
 8945W        W25129  16.305  11.691  15.283  0.0419 -0.0975  0.1351
 8946W        W25130  13.898   9.436   1.451  0.1879 -0.2210  0.0700
 8947W        W25131   1.720   4.352  15.576  0.0371  0.0218 -0.0973
 8948W        W25132  16.481  13.972  14.288  0.1201  0.1168 -0.2404
 8949W        W25133  14.725  15.078   0.227  0.1271  0.1052  0.3594
 8950W        W25134  14.742  11.507   4.937  0.1563  0.0030 -0.1015
 8951W        W25135   5.508  16.305   0.034  0.0658 -0.0102  0.2198
 8952W        W25136  11.585   3.490  15.886  0.2664 -0.3167 -0.1541
 8953W        W25137   1.109   9.474  13.805 -0.0464 -0.3074  0.1199
 8954W        W25138  13.584  12.775  15.053 -0.3372  0.3728  0.0294
 8955W        W25139   9.505   2.554   0.963  0.1749  0.0911 -0.2668
 8956W        W25140   7.987   3.869   5.130 -0.2599  0.2331 -0.1768
 8957W        W25141   5.631  10.180   4.458  0.0596 -0.0164 -0.2411
 8958W        W25142  11.872  16.665  11.730 -0.1192 -0.1848  0.0476
 8959W        W25143   2.548  17.986   2.263  0.3338 -0.1480  0.2881
 8960W        W25144   9.884   8.396   1.360 -0.5978  0.0149 -0.0926
 8961W        W25145   6.536   7.767   1.837 -0.2720  0.3117  0.0614
 8962W        W25146   7.187  15.681  14.614  0.0023 -0.1886  0.0102
 8963W        W25147  16.297   6.697   5.979  0.3298  0.1579  0.1182
 8964W        W25148   6.662   3.887   1.791  0.1669 -0.0258  0.0380
 8965W        W25149   8.900  15.236   1.239 -0.0971  0.0943 -0.3109
 8966W        W25150   5.514   9.305  14.958  0.0851 -0.1525  0.2493
 8967W        W25151  11.995   8.615   2.663 -0.5106  0.1152  0.0615
 8968W        W25152   2.461  13.040   2.361  0.0824  0.2130  0.1224
 8969W        W25153  11.179   7.870   6.082  0.0197 -0.0929 -0.1298
 8970W        W25154  15.280   1.533  11.488 -0.0074  0.2116  0.1248
 8971W        W25155   7.814   2.782  10.727 -0.0623  0.2044 -0.1139
 8972W        W25156  16.338   8.019  13.154 -0.2021 -0.1671  0.1476
 8973W        W25157   5.255   0.207  15.140  0.0008 -0.0781  0.1579
 8974W        W25158   7.429   6.088   3.285  0.3769  0.0448 -0.0385
 8975W        W25159  17.773  16.332  14.905 -0.0228  0.1942  0.2500
 8976W        W25160  18.034   3.552  14.782  0.1381 -0.1816 -0.0658
 8977W        W25161  13.867   8.073  14.728 -0.1029  0.2733 -0.3052
 8978W        W25162  14.516   9.028   0.114 -0.2198  0.0788 -0.2032
 8979W        W25163  10.355  14.770  11.012 -0.0115 -0.1930 -0.1166
 8980W        W25164  14.635   1.516  14.530 -0.3635  0.1765 -0.3393
 8981W        W25165  10.301  13.409   3.659  0.2916  0.1202 -0.2431
 8982W        W25166  16.938  10.254  11.575  0.1384 -0.1773 -0.1495
 8983W        W25167  16.491   5.334  14.217  0.0726  0.1089  0.1932
 8984W        W25168   8.748  10.784  11.791 -0.0439 -0.3066  0.0142
 8985W        W25169   8.821   7.407  14.885  0.2396  0.5078 -0.0103
 8986W        W25170  15.245  18.463   3.345  0.1886  0.1145 -0.0781
 8987W        W25171   3.071  11.124   4.234  0.0556  0.2200  0.0529
 8988W        W25172  13.633  18.340  13.024  0.3186 -0.3693  0.1364
 8989W        W25173  11.319  16.686   3.386 -0.0125 -0.0218  0.1905
 8990W        W25174  10.127  18.214  14.080  0.1207 -0.0556  0.0135
 8991W        W25175   8.621   8.538   3.869 -0.1179  0.1543 -0.0097
 8992W        W25176  16.266   3.798   0.992 -0.1530 -0.0839 -0.1034
 8993W        W25177  18.063  13.476  13.832 -0.2509 -0.1032 -0.0484
 8994W        W25178   5.230  11.817   0.589 -0.0655 -0.0601  0.0786
 8995W        W25179  12.649   1.686  11.634  0.1993  0.0861 -0.4181
 8996W        W25180   2.624  12.830  13.223 -0.0408 -0.1860 -0.1580
 8997W        W25181   0.733  14.683  14.680 -0.2300  0.1607 -0.3057
 8998W        W25182  10.850   5.867   5.165  0.0968  0.0162 -0.1426
 8999W        W25183  11.086   5.642   3.102  0.0723 -0.0633  0.2406
 9000W        W25184  12.977  18.098   4.773 -0.3197 -0.0237  0.1514
 9001W        W25185   1.060  17.979   0.196 -0.0103  0.1738  0.0380
 9002W        W25186   7.157  15.121  16.046  0.2082 -0.0385 -0.3012
 9003W        W25187   0.578   6.885  11.689 -0.0542 -0.1306 -0.0639
 9004W        W25188   4.534   1.362   4.958 -0.3267 -0.2840  0.1272
 9005W        W25189  13.981  15.056   4.117 -0.3809 -0.0468  0.2272
 9006W        W25190   2.776  10.254  13.304  0.0248 -0.3013  0.2033
 9007W        W25191  17.472   2.064  14.342 -0.0644  0.3680  0.0109
 9008W        W25192   2.587   0.565  15.535  0.0012 -0.1783  0.1446
 9009W        W25193   3.862   4.774   1.179  0.1236 -0.0378 -0.0801
 9010W        W25194  18.088  18.267  14.675  0.1101 -0.0002  0.0948
 9011W        W25195   5.135  10.987   4.504 -0.2660  0.3023  0.1631
 9012W        W25196  12.177   0.220   3.839 -0.1332  0.0286 -0.3928
 9013W        W25197   8.400  16.137   2.409 -0.3048 -0.0173  0.1723
 9014W        W25198  10.175  14.344  12.095  0.1885 -0.4673  0.0203
 9015W        W25199  17.887   1.277   0.616  0.0583 -0.3395  0.0011
 9016W        W25200   2.312   7.391   0.626  0.2249  0.0551 -0.1071
 9017W        W25201   0.688   0.642  11.470  0.0132 -0.0503 -0.2842
 9018W        W25202  12.489   4.762   4.178 -0.1085 -0.1303 -0.0253
 9019W        W25203  17.210   1.013  12.515 -0.0473 -0.3712  0.2893
 9020W        W25204   3.803  10.231  14.785 -0.1125 -0.0389 -0.2520
 9021W        W25205  16.808   2.275  10.590 -0.1244 -0.0621 -0.2833
 9022W        W25206   6.956  14.056   0.973  0.0848 -0.0444  0.0429
 9023W        W25207   9.567  17.206   3.141  0.0394 -0.0283  0.0390
 9024W        W25208   0.216  10.669   2.063  0.0403 -0.0653 -0.1892
 9025W        W25209  15.257  17.342  13.655 -0.4453  0.1497  0.3218
 9026W        W25210  10.416   3.505  13.241  0.0037 -0.0382  0.1749
 9027W        W25211   3.104  13.137   3.589  0.3069  0.0957  0.1775
 9028W        W25212  16.194   2.050   0.538 -0.0952  0.0922  0.2896
 9029W        W25213   7.112   6.596  13.130  0.0095  0.1985 -0.1790
 9030W        W25214  15.536  16.417  14.668 -0.1167  0.0315 -0.3737
 9031W        W25215   8.965   5.594  13.767  0.3347 -0.0480 -0.0022
 9032W        W25216  16.206   5.686   5.570  0.1779  0.1203 -0.0650
 9033W        W25217  15.796   4.942   2.084  0.1154 -0.5151 -0.2842
 9034W        W25218  15.963  14.712   0.105  0.2566  0.1561 -0.2129
 9035W        W25219  10.382   0.262   4.909  0.2736  0.1319 -0.0652
 9036W        W25220  11.728   5.692   6.781 -0.0406 -0.1429  0.0100
 9037W        W25221   0.539   2.096  14.016  0.3538  0.0072  0.2690
 9038W        W25222   6.560  12.191   2.552 -0.3919  0.1534 -0.1792
 9039W        W25223  18.072   3.693   3.171 -0.2205  0.0831 -0.1422
 9040W        W25224  15.873  13.135   3.082  0.2435 -0.0068 -0.0197
 9041W        W25225  14.162   5.670  12.658 -0.2576 -0.1814  0.0305
 9042W        W25226  12.038  17.179  16.101  0.1446  0.1281  0.4224
 9043W        W25227   8.046  17.376   1.245 -0.0877  0.1222 -0.0935
 9044W        W25228  13.095  18.229  14.484 -0.2087  0.0182  0.0772
 9045W        W25229  11.063  15.646   3.296 -0.0222 -0.2335  0.0528
 9046W        W25230   6.427  13.982  13.787 -0.2112 -0.3893 -0.0688
 9047W        W25231  13.846   1.081  14.747 -0.2669  0.0928 -0.2315
 9048W        W25232   5.923  17.089   1.776 -0.0252 -0.1272  0.1188
 9049W        W25233  11.230   8.827   3.010 -0.1552 -0.4042 -0.1200
 9050W        W25234  17.569   1.338   1.805  0.2726  0.4095 -0.2136
 9051W        W25235   3.411  14.555  13.193 -0.2255 -0.1570 -0.1677
 9052W        W25236   0.611   4.905   3.726  0.0406 -0.0644 -0.1461
 9053W        W25237   6.849   9.590   4.826 -0.3211  0.1099 -0.0900
 9054W        W25238  16.916  17.364   2.478 -0.3279 -0.0502  0.1269
 9055W        W25239  14.297   8.977  11.788 -0.2475  0.1017  0.2191
 9056W        W25240   8.756  14.795  15.411 -0.2090  0.1657  0.1273
 9057W        W25241   8.576  10.513   2.354 -0.2461 -0.1477 -0.0302
 9058W        W25242  11.206   1.890  11.183  0.1340  0.1097 -0.2451
 9059W        W25243  14.719  13.275  12.418  0.2471 -0.0826  0.0113
 9060W        W25244  17.429  11.596  14.725 -0.0428 -0.0434  0.2686
 9061W        W25245   6.057   3.663  12.894  0.1782 -0.0512 -0.0585
 9062W        W25246  13.288  10.159  14.791 -0.1696 -0.0873  0.2938
 9063W        W25247  14.876   4.447  11.140  0.1669  0.3059 -0.2181
 9064W        W25248   2.207   5.893  14.553 -0.1753  0.3523 -0.0200
 9065W        W25249   4.458   6.979  13.578 -0.2244  0.0293 -0.1092
 9066W        W25250   7.613  11.558  14.774  0.3793 -0.1344  0.1748
 9067W        W25251  15.112   5.063  12.771 -0.0917 -0.4336 -0.3069
 9068W        W25252   5.276  15.976   3.392  0.0350 -0.0501  0.2282
 9069W        W25253   9.753  10.087  14.792  0.0181 -0.2183  0.0046
 9070W        W25254   0.255   6.000  12.543  0.0769  0.2067 -0.0321
 9071W        W25255  10.806  16.484   5.890  0.0056 -0.2638 -0.1866
 9072W        W25256   3.533  12.212  12.132  0.1165 -0.2758 -0.0555
 9073W        W25257  11.476  15.112   0.643 -0.0963 -0.2350 -0.1202
 9074W        W25258   7.692  17.319   4.844 -0.1240 -0.0165 -0.4134
 9075W        W25259  17.122  10.178   3.074  0.0947 -0.1382 -0.2993
 9076W        W25260  16.975   1.911  15.734  0.0621 -0.0832 -0.1728
 9077W        W25261  13.632   2.693   4.481 -0.0191 -0.2099 -0.1141
 9078W        W25262   0.632  10.059   4.206  0.0373 -0.1745  0.0499
 9079W        W25263  11.909   6.455   0.299  0.3251  0.2298 -0.1691
 9080W        W25264  10.527  17.244  12.989  0.2281  0.0495  0.3076
 9081W        W25265   8.773  11.037   0.585 -0.3340  0.0296 -0.1235
 9082W        W25266   3.418  18.482  13.840  0.0231 -0.1297 -0.0312
 9083W        W25267  14.475   3.319  14.262 -0.0688 -0.1593  0.0336
 9084W        W25268   3.190  15.798   0.296  0.4404  0.0103  0.0703
 9085W        W25269  11.017  17.112  16.058 -0.1999 -0.3395  0.3504
 9086W        W25270   8.738  10.871  15.969  0.0146  0.1415 -0.2613
 9087W        W25271   9.562   6.706  11.345  0.2009 -0.0402 -0.0989
 9088W        W25272  13.303   6.466   5.587 -0.0936  0.1722 -0.0640
 9089W        W25273  18.354   0.072  13.996 -0.3216  0.2012  0.0555
 9090W        W25274   4.357  12.338  14.282 -0.1727 -0.0034  0.0720
 9091W        W25275  12.107  11.233   0.134  0.1939 -0.0759  0.1223
 9092W        W25276   2.343   8.639  13.589 -0.0302  0.0444  0.2319
 9093W        W25277  15.902   7.822   2.578 -0.1602  0.0050  0.0111
 9094W        W25278   2.796   9.027   2.517  0.1799  0.3474  0.1530
 9095W        W25279   4.223   0.498   0.195  0.0603  0.1207  0.2005
 9096W        W25280   7.754  11.347   1.583 -0.1497 -0.0699  0.0214
 9097W        W25281   1.978   3.458  11.517  0.0655  0.1682 -0.1530
 9098W        W25282   5.049   8.813   5.308 -0.1726 -0.2409  0.1049
 9099W        W25283   7.866  13.034   1.455  0.1014  0.3863 -0.0109
 9100W        W25284  10.176   1.460  11.960 -0.0898  0.1080  0.4413
 9101W        W25285   7.710   6.868   3.858 -0.1179 -0.0983 -0.2813
 9102W        W25286   1.260  11.610   3.255  0.1662 -0.1193 -0.3530
 9103W        W25287   7.519  10.168   0.085  0.0104 -0.1421  0.0029
 9104W        W25288  10.576  15.202   0.421 -0.1677  0.2596 -0.0965
 9105W        W25289   7.584  14.632   0.344 -0.1170  0.0754 -0.2296
 9106W        W25290   8.363   6.859  14.359 -0.0068  0.0863  0.3373
 9107W        W25291  16.669  16.094   4.402 -0.0006  0.4328 -0.0791
 9108W        W25292   1.604  11.667   2.317  0.0183  0.0072 -0.0949
 9109W        W25293  13.457   1.487   3.670  0.0795 -0.0539  0.1798
 9110W        W25294   8.814  12.793   0.715 -0.0026  0.1477  0.4339
 9111W        W25295  10.443   2.076  15.826 -0.0905 -0.0069 -0.2119
 9112W        W25296  14.773  12.915   3.849 -0.0688  0.2728  0.0807
 9113W        W25297   1.717   0.741   0.590 -0.0482 -0.2232 -0.0497
 9114W        W25298  15.329  13.628   3.541  0.1159 -0.0265  0.2195
 9115W        W25299  16.937  15.818   0.442 -0.1091 -0.0284  0.0145
 9116W        W25300   3.174  13.791   0.440 -0.1523 -0.0722 -0.0891
 9117W        W25301   2.724  15.023   0.736  0.1962  0.0419  0.1241
 9118W        W25302   7.130   0.684  13.576  0.3293 -0.5679 -0.0187
 9119W        W25303   3.519   1.966   1.126  0.1440  0.0625  0.0820
 9120W        W25304  12.671   5.206   5.683  0.0510 -0.0225 -0.1817
 9121W        W25305   1.085  16.392   3.085  0.0348 -0.4397 -0.3017
 9122W        W25306   3.203  14.974  14.167  0.1322 -0.1245 -0.0644
 9123W        W25307   1.445   4.645  10.855 -0.1304 -0.1340 -0.1854
 9124W        W25308  13.020   2.340   4.584  0.1066  0.3391  0.2053
 9125W        W25309   9.848   4.268  12.310 -0.2226 -0.1205 -0.2878
 9126W        W25310  14.304   2.989   2.580  0.2837 -0.0966 -0.5288
 9127W        W25311  17.116   9.667   4.007 -0.0909  0.2127 -0.2475
 9128W        W25312   0.112  15.002  11.069 -0.0077 -0.1914  0.0400
 9129W        W25313  18.212  10.656   5.700  0.0928  0.3449  0.1023
 9130W        W25314   0.275  14.739   5.145  0.1721  0.2309  0.2434
 9131W        W25315  15.070  17.139  13.103 -0.2375 -0.0175  0.0701
 9132W        W25316   7.284  12.680   0.682  0.1514  0.2841  0.0939
 9133W        W25317   0.168  10.940   3.777 -0.3585 -0.0071 -0.0203
 9134W        W25318   6.366  10.344   4.464 -0.2713 -0.2440  0.3232
 9135W        W25319  12.924  13.577  11.198 -0.0313  0.2894  0.2865
 9136W        W25320   8.990  10.590   0.251  0.0584 -0.0708  0.4319
 9137W        W25321  12.332  18.489   1.171 -0.1408  0.1245  0.2711
 9138W        W25322   8.264  13.918  15.070  0.1336  0.0917 -0.1432
 9139W        W25323   9.655  15.933   1.426 -0.2821 -0.1633 -0.2430
 9140W        W25324  18.269   0.010  16.078 -0.0587  0.3657  0.1266
 9141W        W25325   1.995   7.069  14.580  0.2170 -0.1986  0.1868
 9142W        W25326  12.659   4.336   3.325 -0.2043 -0.1603  0.0749
 9143W        W25327   4.109   1.835   3.259  0.3412  0.0025 -0.2004
 9144W        W25328  14.366  17.015  11.318 -0.0628 -0.1494  0.1591
 9145W        W25329   5.248   8.451   2.309 -0.0558 -0.0991  0.1486
 9146W        W25330   2.651   8.833   0.858  0.2560  0.0679 -0.0048
 9147W        W25331   9.165   8.567   5.052 -0.2189  0.0916 -0.1138
 9148W        W25332  12.565  13.125   4.091 -0.5758  0.3797  0.3505
 9149W        W25333   5.459   5.690   0.555  0.1690 -0.0074  0.0285
 9150W        W25334   3.822  18.506   2.076  0.1404 -0.1088  0.1129
 9151W        W25335  11.300   4.919   4.304 -0.1044  0.2518 -0.1030
 9152W        W25336   7.280   3.542  14.145  0.2737 -0.3801 -0.0074
 9153W        W25337  11.898  14.218   1.753 -0.0732  0.3394 -0.1713
 9154W        W25338   1.416  13.534   5.682 -0.2304 -0.0780 -0.2358
 9155W        W25339  11.392   7.802   0.050 -0.4184  0.2593 -0.0275
 9156W        W25340  17.946  17.557   3.382  0.0043 -0.0290 -0.0477
 9157W        W25341  16.462   3.426  11.144 -0.0451  0.0758 -0.4270
 9158W        W25342   9.092   4.423  14.061 -0.1583  0.1861 -0.0272
 9159W        W25343   2.134   4.327   0.852 -0.3412 -0.4374 -0.1267
 9160W        W25344  13.570  10.613   4.512 -0.3020 -0.0041  0.0576
 9161W        W25345   4.175   9.671   5.433 -0.1914 -0.1316 -0.0564
 9162W        W25346  12.825  11.041   5.368 -0.0122 -0.2570 -0.0671
 9163W        W25347  16.487  18.168  15.466  0.1774 -0.1370  0.1985
 9164W        W25348  11.591   7.495   4.185 -0.0458 -0.0331 -0.1628
 9165W        W25349  16.193  14.789   5.629 -0.1578  0.0682 -0.1028
 9166W        W25350  11.167  15.215   1.730 -0.0266 -0.0322  0.3168
 9167W        W25351  10.618  14.583  14.792  0.0423 -0.0983 -0.0066
 9168W        W25352   5.718  12.466  12.487  0.0103  0.0946  0.3512
 9169W        W25353   4.148  17.874   1.639  0.1414 -0.1764 -0.0192
 9170W        W25354   7.758  13.294   0.729 -0.0880 -0.3311 -0.3673
 9171W        W25355  15.949  14.792   0.632 -0.3243  0.0690  0.1900
 9172W        W25356  12.779  18.364   4.397 -0.3572 -0.1584 -0.1050
 9173W        W25357  12.056   1.770   3.199  0.1376  0.0910 -0.0305
 9174W        W25358  18.011   1.117   0.128 -0.2592 -0.1973 -0.0623
 9175W        W25359  16.689   6.205  16.001 -0.2903  0.0242 -0.2038
 9176W        W25360   6.009  17.519  11.002 -0.0638 -0.1075 -0.1899
 9177W        W25361  13.779  12.537  13.123 -0.0512  0.2944 -0.0257
 9178W        W25362  14.624  13.538  10.353 -0.2315 -0.6841  0.2782
 9179W        W25363  10.305   3.350  11.966  0.1994 -0.1832  0.2885
 9180W        W25364  10.094   9.127   6.200 -0.0744  0.2433 -0.2561
 9181W        W25365  12.487   6.463  12.672  0.4099 -0.3291 -0.3271
 9182W        W25366  12.968  12.304  13.837 -0.2246 -0.0322 -0.0671
 9183W        W25367  13.201  14.031   1.917 -0.2778 -0.0455 -0.5040
 9184W        W25368  17.425  11.082   0.013  0.2044 -0.2402  0.1945
 9185W        W25369  11.250   2.181  14.749  0.1406 -0.1001  0.0385
 9186W        W25370   5.536   9.591   5.818  0.0259  0.0921  0.1615
 9187W        W25371  18.272  17.710  11.041  0.3417 -0.2635 -0.0951
 9188W        W25372   4.314  13.841   2.365 -0.1934  0.0566 -0.0863
 9189W        W25373  12.326   1.774  14.824  0.1469  0.1110 -0.0882
 9190W        W25374  12.647  17.110  16.072  0.0185 -0.1683  0.0772
 9191W        W25375   3.324   4.113   4.504 -0.0594  0.3322 -0.0858
 9192W        W25376   8.527  17.960  14.163  0.0747 -0.0439  0.5869
 9193W        W25377   2.145   7.352  14.210  0.1966  0.0561 -0.4429
 9194W        W25378  10.352  16.388   1.897 -0.0819  0.1320 -0.3747
 9195W        W25379  18.196  17.877   4.219  0.1574 -0.1151 -0.3512
 9196W        W25380   8.874   9.972  15.256 -0.0062  0.1028 -0.1278
 9197W        W25381   6.460   5.409  11.954  0.2065  0.1881  0.1616
 9198W        W25382  15.150  12.498  15.331 -0.4512 -0.3394 -0.1344
 9199W        W25383   5.927   4.912   4.972 -0.0423  0.3109 -0.0364
 9200W        W25384   3.170   2.702  15.620 -0.2116 -0.2702 -0.0199
 9201W        W25385  10.596  13.114  15.698  0.0532 -0.2383 -0.3133
 9202W        W25386   5.105   7.056  11.847  0.0239 -0.0199  0.0542
 9203W        W25387   2.512  10.058  11.209  0.0404  0.2229  0.1781
 9204W        W25388  15.718   7.550  14.320 -0.0866  0.0314 -0.1470
 9205W        W25389  18.388  16.325  15.745 -0.1704  0.0351 -0.0081
 9206W        W25390   8.834   8.958  13.882 -0.0342 -0.0145  0.0663
 9207W        W25391  15.071   1.367   4.519  0.3355 -0.0211  0.2308
 9208W        W25392   5.484   1.522  10.908  0.1002 -0.3387  0.0785
 9209W        W25393  16.110   7.967   1.704  0.3712  0.0527 -0.2040
 9210W        W25394   2.182   6.638   4.723  0.0334  0.0680  0.0403
 9211W        W25395   5.807   4.780  16.021  0.2000 -0.2076 -0.1988
 9212W        W25396  14.329  18.471   4.262 -0.1044 -0.1396  0.0937
 9213W        W25397   6.344  11.159   5.184  0.2091 -0.2553  0.0105
 9214W        W25398  18.232  11.192   5.434 -0.1521 -0.0872  0.4304
 9215W        W25399   9.058   6.807  13.937  0.0622  0.0958 -0.2417
 9216W        W25400  14.133  12.708  10.173 -0.2621 -0.1225 -0.0044
 9217W        W25401   5.896  17.084  12.429  0.2635 -0.0359 -0.0321
 9218W        W25402  17.073   3.469  14.765 -0.0953 -0.2012  0.1629
 9219W        W25403   9.629   4.131   4.097  0.0122  0.0024 -0.2842
 9220W        W25404   9.403   7.797   4.778  0.2760  0.0438  0.2639
 9221W        W25405  16.633   9.671  12.889 -0.4210 -0.0227 -0.0105
 9222W        W25406   2.148  14.528   1.420 -0.0751 -0.3541  0.0567
 9223W        W25407  16.340   7.635   5.250  0.0025 -0.0066 -0.1355
 9224W        W25408  16.405   7.616  11.791  0.0971  0.2121  0.0104
 9225W        W25409   0.640  17.711   4.510  0.0641 -0.0104 -0.1024
 9226W        W25410   6.103   7.063  13.427 -0.3712  0.1188  0.0142
 9227W        W25411  12.980   5.624   1.174 -0.0029  0.1697  0.2713
 9228W        W25412  10.642  12.949   5.446 -0.1203 -0.0946  0.2938
 9229W        W25413   0.187   3.444   2.882  0.0024  0.0403 -0.1024
 9230W        W25414  13.793  16.613  13.818  0.0646 -0.2374 -0.0820
 9231W        W25415   7.744  10.140  14.872 -0.2812  0.1126  0.1131
 9232W        W25416   1.448   8.591   2.858 -0.0981 -0.0837  0.3040
 9233W        W25417  13.268   4.874  14.803  0.2733  0.0047 -0.3841
 9234W        W25418  14.770   3.993  11.381  0.1395  0.1067 -0.4487
 9235W        W25419   5.216  15.026   3.215  0.1099  0.0816  0.1300
 9236W        W25420   8.520  12.563   4.965 -0.1741 -0.0809 -0.0547
 9237W        W25421   2.800   0.708  16.112 -0.2035  0.1331  0.3369
 9238W        W25422   0.793   2.358   0.393 -0.0298  0.4842  0.1052
 9239W        W25423   4.181  16.948   0.569 -0.2418  0.1012 -0.0824
 9240W        W25424   8.228   7.285  13.419 -0.0140  0.0141  0.2439
 9241W        W25425   8.797   2.137   0.429 -0.0936 -0.0980  0.1135
 9242W        W25426  10.583   0.392   2.129 -0.1091  0.1313  0.0244
 9243W        W25427   3.911   6.578   0.283 -0.1830 -0.0827 -0.0033
 9244W        W25428  16.219   9.277   4.648 -0.5043 -0.2001  0.1925
 9245W        W25429  11.275   7.804   3.361  0.2640 -0.4854  0.3914
 9246W        W25430  12.273  16.796   0.167  0.1800  0.1447 -0.1221
 9247W        W25431  14.912   9.653  14.228 -0.1290 -0.1452  0.0947
 9248W        W25432   9.548  11.892   3.725 -0.2049 -0.0115  0.1324
 9249W        W25433   4.818   6.378  14.620  0.0908  0.0498 -0.0214
 9250W        W25434  11.614  10.723  14.185 -0.2294  0.0311 -0.0704
 9251W        W25435   0.936  11.647  13.967 -0.0901  0.1966 -0.1267
 9252W        W25436   2.590   3.926   2.689  0.0496 -0.1701 -0.0349
 9253W        W25437  10.407   4.033  14.111  0.3563  0.2976  0.0434
 9254W        W25438   1.097  15.994  12.630  0.3897  0.0322  0.2345
 9255W        W25439  10.418  12.456   4.528 -0.2271 -0.2021  0.1428
 9256W        W25440  12.505   7.557  13.378 -0.0810 -0.1717 -0.2191
 9257W        W25441  18.215   7.550  12.240 -0.1082 -0.2143  0.1075
 9258W        W25442   1.957  14.717   3.224  0.3562  0.1166 -0.0238
 9259W        W25443  16.215   9.597   1.040  0.0860 -0.1413  0.1705
 9260W        W25444   3.582  14.905  12.323  0.0158  0.0958  0.3622
 9261W        W25445  10.397   6.001   2.536 -0.0742 -0.0929 -0.1585
 9262W        W25446   9.101   4.946  12.337  0.2161 -0.0541  0.0737
 9263W        W25447   8.585   4.812   0.062 -0.0210 -0.0328 -0.1926
 9264W        W25448  11.332   8.921   1.798  0.0094 -0.2312  0.2480
 9265W        W25449  17.331   1.425  12.775  0.0125  0.1967 -0.3733
 9266W        W25450  10.630  17.103  15.756  0.0856  0.0148 -0.0681
 9267W        W25451   2.095  10.379   0.904 -0.0839 -0.0555 -0.1175
 9268W        W25452   1.450  17.467  11.549 -0.0786 -0.2698 -0.0022
 9269W        W25453  15.964   8.994   2.024  0.2741 -0.6064  0.2085
 9270W        W25454  16.821   3.808   3.887  0.2021  0.0526 -0.2670
 9271W        W25455   7.436  16.217  13.479  0.1385 -0.0397 -0.2416
 9272W        W25456   7.400   7.419   4.367  0.5815  0.0905  0.1574
 9273W        W25457   0.666   6.606  12.122  0.1496  0.0665 -0.0322
 9274W        W25458  13.344   0.378   4.949  0.3274 -0.0318  0.1622
 9275W        W25459   5.525   7.516   1.382  0.0908  0.0047  0.3644
 9276W        W25460   9.388   9.811   3.693  0.4541 -0.2883 -0.0568
 9277W        W25461   2.781   1.905  14.066 -0.0984 -0.0723 -0.0509
 9278W        W25462   7.282   6.479  11.633 -0.0989 -0.0923 -0.1027
 9279W        W25463  17.125   3.588   2.111 -0.2314  0.0105  0.1883
 9280W        W25464   3.895   9.304  13.346  0.1222  0.2669 -0.3114
 9281W        W25465  12.007  15.210   1.131  0.2220 -0.0533  0.0787
 9282W        W25466   9.698   6.837   2.030  0.0437  0.0080  0.1860
 9283W        W25467   8.787   7.041   5.404  0.2410 -0.0052  0.0439
 9284W        W25468  11.590   5.072   1.167  0.0042  0.0103 -0.1782
 9285W        W25469  17.084  18.120   1.129 -0.1879 -0.2618  0.1040
 9286W        W25470  10.193   2.805  12.461  0.1414 -0.1399  0.0907
 9287W        W25471  10.278  10.878  14.799  0.1091  0.1093 -0.0956
 9288W        W25472   9.263  16.527  14.867 -0.2139 -0.0198  0.2474
 9289W        W25473  16.629  12.904   2.662  0.1930 -0.0797 -0.1794
 9290W        W25474   9.045  12.566  14.715 -0.3155 -0.3191 -0.0022
 9291W        W25475   5.322   9.289   3.973 -0.2303  0.1489  0.0822
 9292W        W25476  13.030   2.337   2.032  0.3103  0.2920  0.0111
 9293W        W25477   9.262   1.781  11.976 -0.0330 -0.1426  0.3660
 9294W        W25478  13.531   3.659   4.976 -0.1644 -0.1322 -0.0433
 9295W        W25479   2.263  10.123   2.322  0.0553 -0.2301 -0.2194
 9296W        W25480   9.297  16.263   2.966  0.0797  0.0440  0.1278
 9297W        W25481  11.683   8.717   1.420 -0.1369 -0.0767  0.1108
 9298W        W25482   7.229  18.189   3.375  0.0306  0.1434 -0.0697
 9299W        W25483  15.914   7.691  15.405 -0.2609 -0.0516  0.1673
 9300W        W25484  18.239   7.044  13.097 -0.0005  0.1070  0.0493
 9301W        W25485  12.287   9.804   3.558 -0.0427 -0.0963 -0.1479
 9302W        W25486   5.604   0.986   0.461 -0.0489 -0.0350  0.0506
 9303W        W25487   4.372  13.383  11.610  0.1383 -0.2897  0.1561
 9304W        W25488   3.113  13.618   4.869  0.2272 -0.4272 -0.3866
 9305W        W25489   1.285  13.477  14.275  0.0437  0.1152  0.0818
 9306W        W25490  11.321  15.429  14.921  0.0168 -0.5012 -0.0347
 9307W        W25491   1.983  11.913  12.533  0.0207 -0.0497 -0.1227
 9308W        W25492   2.616   1.427   3.620 -0.0956 -0.1192  0.1904
 9309W        W25493   0.277  10.630  15.609 -0.0532 -0.0278 -0.2307
 9310W        W25494   2.036   2.296   3.912  0.3870 -0.2022  0.2618
 9311W        W25495   4.789   8.877  15.246 -0.1845  0.0357 -0.0686
 9312W        W25496  13.598  15.604  15.376  0.2391 -0.0239 -0.1901
 9313W        W25497  15.316   7.873  11.575 -0.3641  0.2707  0.0353
 9314W        W25498  16.211   3.490  15.196  0.0398 -0.2563 -0.2553
 9315W        W25499  10.063  16.601   1.234 -0.2516  0.0856  0.1427
 9316W        W25500  14.099  10.881  10.441  0.5033 -0.1026  0.2501
 9317W        W25501   5.681  13.931   3.850 -0.0620  0.1670 -0.3230
 9318W        W25502  17.984  16.679   3.449  0.0552  0.1841 -0.3436
 9319W        W25503  15.607  15.607   4.363  0.1445  0.0180  0.0075
 9320W        W25504   2.497   9.080   5.421  0.0565  0.1571 -0.1347
 9321W        W25505  15.541  11.711  15.792 -0.1984  0.1688 -0.3210
 9322W        W25506   5.437  13.702   3.102 -0.1593 -0.1621 -0.0007
 9323W        W25507  14.792   8.353  14.641 -0.0417 -0.3046 -0.1207
 9324W        W25508   2.119   2.261  14.974  0.0409  0.0588 -0.0191
 9325W        W25509   6.365  15.457   1.545  0.3657 -0.2060 -0.1025
 9326W        W25510  12.725   2.758  11.859 -0.2358  0.0277 -0.2423
 9327W        W25511  11.417   7.137   1.208 -0.0218 -0.0111 -0.1372
 9328W        W25512  17.099   6.605   5.435  0.1545 -0.0070  0.3089
 9329W        W25513  10.241  17.517  14.454  0.0673 -0.0480 -0.2812
 9330W        W25514  14.261   9.021   4.633  0.1908 -0.1252 -0.1728
 9331W        W25515   1.979   3.500  15.630  0.1153 -0.0171 -0.1896
 9332W        W25516  18.033   8.158   3.562 -0.1223  0.1202  0.0731
 9333W        W25517   0.529   5.729   2.590  0.2585 -0.1817 -0.0973
 9334W        W25518  15.899   2.420   5.044  0.1114 -0.0103 -0.0344
 9335W        W25519   7.492   7.841  13.733 -0.3731  0.1783 -0.0703
 9336W        W25520   5.390  10.469  13.339 -0.0253 -0.0482 -0.1327
 9337W        W25521  17.180  18.404  13.903 -0.0426 -0.1830 -0.1139
 9338W        W25522  12.258  14.837  11.639  0.3310 -0.0902 -0.0816
 9339W        W25523   7.590   2.000  13.395 -0.2911 -0.0282 -0.0453
 9340W        W25524  10.979   0.003  14.334  0.4249  0.0068 -0.2467
 9341W        W25525  11.866   9.886   3.324 -0.0277 -0.0084 -0.2009
 9342W        W25526  14.248  16.618  11.545 -0.1278  0.1150 -0.1754
 9343W        W25527   4.889   0.109  15.401  0.0044  0.0486 -0.0617
 9344W        W25528   3.345  18.146   1.377 -0.1990  0.1307 -0.2261
 9345W        W25529  12.663   2.211   0.988 -0.3626  0.2666 -0.0962
 9346W        W25530   7.815  17.412   2.339  0.1190 -0.1334  0.2353
 9347W        W25531  14.415  16.350   2.900 -0.1194 -0.1246  0.2384
 9348W        W25532  15.602   5.861   0.811 -0.1644  0.1053 -0.0164
 9349W        W25533   8.205  11.174   0.671  0.1169 -0.0992  0.4024
 9350W        W25534   2.428  16.786  11.953 -0.2227 -0.1894  0.4516
 9351W        W25535   2.596   2.100  11.665 -0.1577  0.0102 -0.0813
 9352W        W25536  14.896  17.286  12.636  0.2799  0.0612 -0.0154
 9353W        W25537   7.005   7.885  13.544  0.0259  0.2330  0.0064
 9354W        W25538   8.620  11.696  15.876  0.0962  0.0002 -0.0050
 9355W        W25539  15.040  10.701  11.473 -0.3292  0.0722  0.0093
 9356W        W25540   6.093  13.948  14.913 -0.2115 -0.4021  0.1238
 9357W        W25541   2.434   9.405   6.228 -0.0100 -0.0654  0.2132
 9358W        W25542  16.252  10.180   2.582 -0.5329 -0.1163 -0.0843
 9359W        W25543   5.912  13.740  12.676 -0.3323 -0.0003  0.1022
 9360W        W25544   6.566   6.927  14.749 -0.2625  0.1097 -0.2499
 9361W        W25545   2.062   7.324   3.749 -0.0651 -0.3127  0.3241
 9362W        W25546  18.165  14.465  10.651  0.2564 -0.1791  0.1113
 9363W        W25547   1.639   1.381   9.916  0.0073 -0.1769  0.0381
 9364W        W25548  12.466   9.176  11.662  0.2982 -0.2497  0.0711
 9365W        W25549   2.181   2.128  11.987 -0.0452  0.0175 -0.2452
 9366W        W25550   6.481   3.078   2.684 -0.1835 -0.2554  0.1005
 9367W        W25551   6.600  10.581  15.996  0.0071  0.1364  0.2003
 9368W        W25552   8.481   3.351  13.181  0.0406 -0.1997  0.1063
 9369W        W25553  11.285  13.866   2.222  0.2334  0.0831  0.0266
 9370W        W25554   7.896   7.887   3.961 -0.1148 -0.3666 -0.0080
 9371W        W25555   3.701   2.720   3.025 -0.0383  0.2523  0.0635
 9372W        W25556  12.169   2.758   4.343 -0.0784  0.0725  0.1993
 9373W        W25557  15.079   3.850  14.801 -0.0536  0.0034  0.2171
 9374W        W25558  15.023   3.933   0.925  0.1710 -0.0056 -0.0542
 9375W        W25559   9.982   5.173   4.046  0.3645  0.1768 -0.0606
 9376W        W25560  11.483   1.856   4.334  0.3119  0.1030 -0.0338
 9377W        W25561   8.448  10.855   2.026 -0.3675  0.0491  0.0986
 9378W        W25562   1.649  10.141  11.674 -0.2903 -0.0131  0.0233
 9379W        W25563  16.343   9.415  11.795  0.0619 -0.4624  0.0756
 9380W        W25564   1.996   1.916   3.154 -0.0891 -0.0090 -0.0388
 9381W        W25565   7.015  11.799   3.331  0.0888  0.1717  0.0257
 9382W        W25566   7.284   0.567   0.942  0.2280 -0.0510  0.2712
 9383W        W25567  13.752   7.122  16.030 -0.1621 -0.4671 -0.0797
 9384W        W25568   7.459   3.213  10.892 -0.1189 -0.1877 -0.0720
 9385W        W25569   2.675  18.178  14.656  0.1710 -0.0685  0.2621
 9386W        W25570   9.481   4.871  13.207  0.0346  0.2657  0.1768
 9387W        W25571   6.615   0.488   2.833  0.2768 -0.0818  0.0760
 9388W        W25572  18.011   3.958   4.661 -0.1811  0.2349  0.1940
 9389W        W25573   3.271   6.382  13.645  0.1743  0.0641 -0.2318
 9390W        W25574  17.481   6.511   5.782 -0.1604 -0.1244  0.0879
 9391W        W25575   8.364   7.883  12.775 -0.2897 -0.0730  0.1795
 9392W        W25576  13.390  14.310   5.148 -0.0311  0.2381 -0.1484
 9393W        W25577   2.365  16.230   0.866  0.2236 -0.1475 -0.1326
 9394W        W25578   1.545  18.038  15.602 -0.2084  0.2360  0.1281
 9395W        W25579   4.097  17.325   4.365  0.1238 -0.1041 -0.2567
 9396W        W25580  14.035   2.446  15.904 -0.1848  0.1244 -0.0211
 9397W        W25581  11.180   6.895  15.384  0.1719  0.4096  0.1366
 9398W        W25582  15.412   9.113  13.544  0.0768 -0.1497  0.2379
 9399W        W25583   9.089   4.873   1.167  0.0152 -0.2753 -0.0525
 9400W        W25584  13.550   2.789  15.211 -0.1675 -0.0712  0.2071
 9401W        W25585   0.982   9.729  15.991 -0.1717 -0.0337  0.3759
 9402W        W25586  14.958  11.887  14.989  0.1965 -0.0012 -0.0948
 9403W        W25587   9.133   3.133   3.849 -0.1611 -0.2167  0.4549
 9404W        W25588   2.669  13.536   2.966  0.0277 -0.0346 -0.1981
 9405W        W25589   2.693   2.593  13.383 -0.2214  0.0200  0.0803
 9406W        W25590   4.650   6.329  12.762 -0.2868 -0.2200  0.2201
 9407W        W25591  10.911  13.969   3.653 -0.0307  0.1765  0.2588
 9408W        W25592   9.429  10.429   3.156 -0.1867 -0.1654 -0.1437
 9409W        W25593  16.400   6.970   4.251 -0.0566  0.4731  0.1549
 9410W        W25594  13.336  14.358   2.310  0.0286 -0.1414  0.1429
 9411W        W25595   9.076   6.508   0.748  0.2001 -0.0401  0.0806
 9412W        W25596  10.554  10.361  11.923 -0.0365  0.2491 -0.0741
 9413W        W25597  16.490   3.371   1.801 -0.0292 -0.1262  0.2715
 9414W        W25598  17.655   6.209   1.395 -0.0287  0.1230 -0.3293
 9415W        W25599   9.995   1.808  13.939  0.2329 -0.0263 -0.0578
 9416W        W25600  16.960   9.603   5.379  0.2877 -0.2195 -0.0619
 9417W        W25601   9.475   1.351  14.745 -0.1035 -0.0083  0.2095
 9418W        W25602  17.371  10.061   4.377 -0.0195  0.3424 -0.2448
 9419W        W25603   1.964   5.105  12.973  0.0224 -0.4123  0.2339
 9420W        W25604  15.238   4.566  12.546  0.1743 -0.0654 -0.0223
 9421W        W25605   1.624   6.158  15.109  0.0260  0.0447 -0.1952
 9422W        W25606  10.847  10.043  13.683  0.1581 -0.0884  0.1799
 9423W        W25607   9.127   0.815  14.380 -0.2010 -0.3473 -0.0082
 9424W        W25608   7.822   1.028   0.623 -0.4199 -0.2617  0.0179
 9425W        W25609  10.585   5.721   5.631 -0.0260 -0.0811  0.0630
 9426W        W25610  10.658   4.311   0.701  0.1668 -0.3508 -0.0197
 9427W        W25611  11.726   5.667   4.860  0.1221 -0.0988  0.3703
 9428W        W25612   7.233  14.430   1.185 -0.1278  0.0124  0.0472
 9429W        W25613  10.547   3.751  15.178  0.1015 -0.0909  0.2001
 9430W        W25614   4.840   2.333  10.999  0.0245  0.0899  0.1636
 9431W        W25615  11.114   9.679  15.627 -0.1545 -0.0036 -0.2675
 9432W        W25616  10.556  16.176  11.968  0.1659 -0.1664 -0.1031
 9433W        W25617  12.385   1.018   2.633  0.0484 -0.2531 -0.0249
 9434W        W25618  12.907   1.767  12.474 -0.2420 -0.1112 -0.0008
 9435W        W25619   5.941   9.903   0.118  0.0001 -0.1105 -0.2255
 9436W        W25620   7.355  16.896   1.306 -0.1570 -0.0783  0.2156
 9437W        W25621   7.894   7.662  12.892  0.2021 -0.1213 -0.0281
 9438W        W25622   0.536  11.918   3.031  0.2652  0.1433 -0.1788
 9439W        W25623   7.552   2.108   3.613  0.1033 -0.0962 -0.1298
 9440W        W25624   8.921  10.111   1.312  0.1458 -0.1368  0.1507
 9441W        W25625  12.088  10.369   5.354  0.0202  0.1153  0.1998
 9442W        W25626  16.781  13.260  11.870 -0.1193 -0.1119 -0.0792
 9443W        W25627   7.383  13.666   3.400  0.2400 -0.1476 -0.0917
 9444W        W25628  10.410  10.275   0.554  0.0094  0.1756 -0.0905
 9445W        W25629   5.200  15.756   0.754  0.3737  0.0968  0.0009
 9446W        W25630  15.304   3.068   1.786  0.3320 -0.1024 -0.3813
 9447W        W25631   7.418   2.424  14.659 -0.1692  0.1438  0.0075
 9448W        W25632   8.940   9.566  15.984 -0.0008 -0.0077  0.2490
 9449W        W25633   0.771   2.949   2.137 -0.4645  0.1045 -0.0884
 9450W        W25634   4.086  10.691  15.521  0.0583  0.0468  0.0232
 9451W        W25635   7.596   7.700   4.817  0.1663  0.0332 -0.3632
 9452W        W25636   6.373  17.140  11.163  0.3736  0.0013  0.2669
 9453W        W25637   8.905   3.902   5.190  0.0632 -0.0526  0.1271
 9454W        W25638   9.843   6.631  13.458 -0.0083  0.0338 -0.1057
 9455W        W25639   6.907  17.617   5.220  0.3630 -0.2023 -0.3237
 9456W        W25640  13.246  10.129   5.158  0.1359 -0.0438  0.3208
 9457W        W25641  14.175   6.893   5.588  0.2200 -0.3252  0.1202
 9458W        W25642  10.554   8.963  14.611  0.0751 -0.1643 -0.0977
 9459W        W25643   2.352   0.381  13.986 -0.3795  0.0218  0.0602
 9460W        W25644  12.303   0.039   1.666 -0.0258  0.2934  0.0707
 9461W        W25645   8.205   5.112  12.273  0.2201 -0.0242 -0.3126
 9462W        W25646   4.210  11.638   2.709  0.2065  0.0532 -0.0314
 9463W        W25647  14.501   0.523   4.917 -0.0561  0.0471 -0.0640
 9464W        W25648   9.324   0.478   1.683 -0.0285 -0.2028 -0.0154
 9465W        W25649   3.293  14.060  12.768 -0.0745  0.1081  0.0013
 9466W        W25650   5.984  10.051   2.301  0.0807 -0.2315 -0.1933
 9467W        W25651   6.732  18.114   2.596 -0.0536 -0.0881  0.0045
 9468W        W25652   0.541   3.610  14.304  0.0561 -0.1401  0.0706
 9469W        W25653   6.776   4.629  14.803 -0.0285 -0.0514  0.0401
 9470W        W25654   5.864  10.935  14.165  0.0931  0.2051  0.0664
 9471W        W25655   0.854   7.137   5.942 -0.3173  0.2153  0.1415
 9472W        W25656  17.857  17.893   1.851 -0.0094 -0.0877  0.1634
 9473W        W25657   0.445  12.666  10.957  0.1142 -0.4580 -0.2292
 9474W        W25658  13.188  17.657  13.976 -0.1913 -0.0659  0.1299
 9475W        W25659  14.397  13.257   1.660 -0.2443  0.1588 -0.0013
 9476W        W25660  11.115   1.135   0.430  0.1326 -0.0094 -0.2399
 9477W        W25661   5.797   5.164  11.298 -0.0009 -0.1374  0.0217
 9478W        W25662   3.250  10.848   3.657  0.3414  0.2155  0.0166
 9479W        W25663   5.707  15.942   3.782  0.3575 -0.1826  0.4841
 9480W        W25664  11.215  11.373   1.145 -0.0326 -0.1551  0.1671
 9481W        W25665  14.833  14.431   3.211  0.0602  0.4394  0.2957
 9482W        W25666   8.344   0.971   3.600  0.1002 -0.1995  0.0384
 9483W        W25667   0.130  14.436   1.201  0.0213  0.1008 -0.3735
 9484W        W25668   6.798   9.246   1.489 -0.3082 -0.3117  0.1784
 9485W        W25669   6.716  11.204   2.121 -0.0425  0.0219 -0.0305
 9486W        W25670   7.357  10.901  11.495  0.2574  0.3614 -0.0377
 9487W        W25671   2.399  13.786   0.760 -0.1228  0.1508 -0.0216
 9488W        W25672   5.206  14.853  15.458 -0.3218  0.2308  0.3441
 9489W        W25673   9.321   4.795  11.834  0.1870 -0.0218 -0.0246
 9490W        W25674   6.796   6.412  14.671  0.0420  0.3948 -0.0283
 9491W        W25675  16.827   4.810   4.710 -0.0109  0.1489 -0.1818
 9492W        W25676  11.867   3.313   4.781  0.0093  0.0040 -0.3139
 9493W        W25677   9.532  17.869  15.143  0.0975 -0.1025  0.2458
 9494W        W25678   7.111   3.779   5.976 -0.0440  0.2518  0.0650
 9495W        W25679   5.063   8.953   0.367 -0.1079  0.2008 -0.0540
 9496W        W25680   4.551   0.276  15.975  0.1351  0.1378 -0.3581
 9497W        W25681  10.405  12.698  14.723  0.2696 -0.0223  0.0705
 9498W        W25682   5.131  16.728   4.112 -0.1247  0.1169 -0.0755
 9499W        W25683   4.557  14.157  13.099 -0.0766  0.2309 -0.1735
 9500W        W25684  18.149  12.977  12.962 -0.0247 -0.0529 -0.3196
 9501W        W25685   6.198   1.546  11.564  0.1516 -0.3193 -0.0243
 9502W        W25686  18.148   8.988  11.331  0.1957  0.0303  0.1687
 9503W        W25687   4.640   1.666  13.616 -0.0099  0.2722  0.1031
 9504W        W25688  13.367  17.531   0.886 -0.0517 -0.1367 -0.1099
 9505W        W25689   9.791   7.599  12.953 -0.0894 -0.4694  0.2782
 9506W        W25690   7.678   4.034  12.854 -0.1889  0.0174  0.0162
 9507W        W25691  16.145   5.501  12.730  0.1596  0.2330 -0.3245
 9508W        W25692   1.955  12.899  14.168 -0.4624 -0.2897 -0.1885
 9509W        W25693   0.435   2.430   1.349 -0.0871  0.0589 -0.0241
 9510W        W25694  11.098  12.130   3.631 -0.1133  0.0537  0.0606
 9511W        W25695   0.878  15.304  12.882 -0.1079 -0.3416 -0.1491
 9512W        W25696   0.545   6.298   6.273  0.3650 -0.0267  0.0483
 9513W        W25697  12.613   2.547   2.937  0.3062 -0.1276  0.1784
 9514W        W25698   2.049  12.326   1.003  0.0693  0.0333 -0.1357
 9515W        W25699   1.777   1.639  12.263 -0.0396  0.1319 -0.0560
 9516W        W25700   5.339   9.301   4.460  0.0510 -0.2826 -0.1864
 9517W        W25701  11.285  10.404  12.694  0.1702  0.0944  0.2717
 9518W        W25702   7.660   0.311  13.251 -0.0325  0.0662  0.1202
 9519W        W25703   7.468   4.144   0.884  0.0989 -0.1560  0.1441
 9520W        W25704   5.416  18.049   5.968  0.0795  0.3591 -0.2312
 9521W        W25705   0.013  12.930  15.746  0.0596 -0.0346  0.1307
 9522W        W25706   5.549   1.535   0.942 -0.0684  0.2099 -0.3115
 9523W        W25707   9.670   2.794   3.057  0.1794  0.2492 -0.0528
 9524W        W25708   1.440   2.643   0.203 -0.0025  0.1057  0.1482
 9525W        W25709   5.709   7.482  10.437  0.0556  0.0707  0.4076
 9526W        W25710   8.103  11.833   3.396 -0.1167  0.0586  0.0321
 9527W        W25711   5.904   9.147   4.626  0.1896 -0.1800  0.2983
 9528W        W25712   8.172   3.540  14.017  0.1311 -0.1375  0.0573
 9529W        W25713  16.378  15.332   5.453 -0.0292  0.1705  0.1292
 9530W        W25714   1.003   1.120  10.699 -0.3002  0.1027 -0.1362
 9531W        W25715   6.346   3.336   3.155 -0.2160 -0.0332  0.3096
 9532W        W25716  11.807   1.658   1.851  0.1616  0.2103 -0.1356
 9533W        W25717   3.735  10.936   4.953  0.3781  0.0325  0.0772
 9534W        W25718   6.838   8.983  14.320  0.0753  0.0945  0.3768
 9535W        W25719  15.401   8.745   1.906 -0.0125  0.0258  0.1888
 9536W        W25720  18.296   6.918   4.875 -0.0855 -0.1121  0.2012
 9537W        W25721   0.221   1.041   2.835 -0.0186 -0.0187  0.2324
 9538W        W25722   4.873  11.848  15.376 -0.2239  0.1191 -0.1470
 9539W        W25723   8.015   0.006   3.133 -0.2096 -0.0902 -0.1468
 9540W        W25724   7.740   6.428   3.711  0.0324  0.0849 -0.2664
 9541W        W25725   4.258  15.403   1.036 -0.0074 -0.0892 -0.0974
 9542W        W25726  11.297  16.002   4.137  0.1983 -0.1505  0.2740
 9543W        W25727   1.184  15.327   0.233 -0.0457 -0.2261 -0.0086
 9544W        W25728   6.522   7.628  12.012  0.1542 -0.2148  0.4277
 9545W        W25729   4.284   0.298   3.145  0.3362  0.0132 -0.3966
 9546W        W25730   5.749   3.610  16.022 -0.1073 -0.0726 -0.0102
 9547W        W25731  10.054   2.350   4.312  0.1266  0.2445 -0.1037
 9548W        W25732  17.387   9.428  14.830  0.1799 -0.0030 -0.0898
 9549W        W25733   2.408  11.805   5.953  0.5614 -0.0174  0.2538
 9550W        W25734   3.157   2.126  12.768  0.1722  0.1057 -0.1307
 9551W        W25735  17.037   8.773   4.882 -0.1821  0.0074 -0.2454
 9552W        W25736   9.864   3.204   0.522  0.2550 -0.0459 -0.1784
 9553W        W25737   8.943   9.067   0.117  0.0508  0.0616 -0.1861
 9554W        W25738   0.831   9.333   2.187  0.1187 -0.1861  0.4804
 9555W        W25739   5.630  18.387  10.813 -0.2762  0.3558  0.1370
 9556W        W25740  18.502   2.862  12.991 -0.0264  0.0297  0.1699
 9557W        W25741   3.130  17.458   1.933 -0.0018  0.1809 -0.0003
 9558W        W25742  12.853  13.450   3.397  0.0831  0.1691 -0.1768
 9559W        W25743   3.734  16.928  14.746  0.1775  0.1553 -0.1084
 9560W        W25744   6.386   5.416   3.386  0.1570  0.2625  0.4513
 9561W        W25745  10.071  18.427   3.900  0.2103 -0.3027 -0.1160
 9562W        W25746   4.706  17.688   2.003 -0.1033 -0.2057 -0.0938
 9563W        W25747   8.550   9.665  12.739  0.0782 -0.2044  0.1582
 9564W        W25748  17.786   8.924  13.403 -0.0177 -0.2224  0.1577
 9565W        W25749  13.535  11.486  12.825  0.2384 -0.0952  0.1248
 9566W        W25750   9.961   4.739  13.194 -0.2955  0.0864  0.0432
 9567W        W25751   5.140  14.062  15.989 -0.0017  0.3440 -0.0955
 9568W        W25752   2.617   6.313   6.148  0.0722  0.1312 -0.0049
 9569W        W25753   9.336  12.197   2.016 -0.1966 -0.0342 -0.2028
 9570W        W25754   7.425  18.432  13.416  0.0527  0.1800 -0.5328
 9571W        W25755  11.864   5.825  14.612 -0.1841  0.2424 -0.0750
 9572W        W25756   2.242   1.490  10.677 -0.2283 -0.0610  0.3224
 9573W        W25757   4.600   8.549   1.705  0.3726  0.0358 -0.1177
 9574W        W25758   6.204  13.101  15.533 -0.1141  0.2223  0.3789
 9575W        W25759  14.485   7.484  13.111 -0.2771  0.0656  0.0966
 9576W        W25760  18.319  14.292  12.366 -0.0803  0.0761  0.0385
 9577W        W25761   0.558   8.315   0.627 -0.1405  0.1730  0.3697
 9578W        W25762  10.722  13.431  11.226  0.1637 -0.3633 -0.0167
 9579W        W25763   2.753  14.785   2.948 -0.0114  0.1004 -0.1459
 9580W        W25764  17.198  14.228   3.779 -0.2736 -0.0401 -0.1011
 9581W        W25765   8.632  13.161   0.990  0.2279  0.1863  0.2386
 9582W        W25766   0.741  11.962   1.936  0.2270  0.1572  0.5134
 9583W        W25767   2.375  10.607  13.667  0.0330 -0.2033  0.2943
 9584W        W25768  15.658  16.292   0.827 -0.5505 -0.3779 -0.0346
 9585W        W25769   8.406   9.020   2.587  0.0130  0.1765  0.3901
 9586W        W25770   1.872   9.305   0.056 -0.1749  0.0382 -0.0672
 9587W        W25771   0.366   5.673   0.188  0.1196 -0.0613  0.2084
 9588W        W25772  13.031   9.384  13.738  0.0777  0.5408 -0.0620
 9589W        W25773   4.888   0.007   5.271 -0.0926  0.0768  0.2142
 9590W        W25774  18.141  11.454  14.116  0.2798 -0.0687 -0.0776
 9591W        W25775  18.071   9.111   2.594  0.0051 -0.0924  0.2875
 9592W        W25776   6.202   7.533   3.136 -0.1555  0.1695  0.1299
 9593W        W25777  15.311  17.706   2.566 -0.0835 -0.1444 -0.3380
 9594W        W25778  13.609   1.829  16.005  0.2301  0.0124  0.0488
 9595W        W25779  14.743   4.322   3.686  0.2649 -0.1763  0.3074
 9596W        W25780   5.790  14.244  11.631  0.2928  0.1092 -0.1745
 9597W        W25781  17.077  11.015   2.887  0.1608  0.0666  0.0627
 9598W        W25782   1.295  18.285   2.570 -0.0173  0.0276  0.1890
 9599W        W25783  17.840   0.090  15.712  0.0375  0.0140 -0.5035
 9600W        W25784  14.681  18.163   5.757  0.0882  0.1298 -0.0323
 9601W        W25785   6.109  16.510   3.273 -0.1913 -0.3837  0.2859
 9602W        W25786  14.992   9.777  11.413 -0.2143 -0.0818  0.1883
 9603W        W25787   5.190   5.540  11.745 -0.0237  0.0184 -0.0886
 9604W        W25788   8.055  16.932   2.043 -0.0648  0.1911 -0.0996
 9605W        W25789  10.826   4.294   3.655  0.4678  0.2669 -0.1986
 9606W        W25790   8.838   4.098   0.206 -0.1920  0.0958 -0.2260
 9607W        W25791  18.149   5.989  12.580 -0.1521  0.1925 -0.1236
 9608W        W25792  17.357   9.500   2.193  0.0403  0.0001  0.3919
 9609W        W25793   9.352  16.748  16.106  0.0263 -0.4092 -0.1464
 9610W        W25794  11.563  13.167   2.122 -0.1042 -0.1972  0.1510
 9611W        W25795  15.384  17.749  14.239  0.1595 -0.1457 -0.0353
 9612W        W25796   0.072   8.794  13.043 -0.0531 -0.3067 -0.3051
 9613W        W25797   4.171   2.872  14.627  0.2571 -0.1682 -0.0380
 9614W        W25798  10.412  12.467  12.296 -0.1094  0.0667 -0.1335
 9615W        W25799   3.372  17.895   3.351 -0.2714 -0.0716  0.0834
 9616W        W25800   6.430  12.237   1.927  0.0406  0.1040 -0.0356
 9617W        W25801   7.247   0.288   2.297  0.1843  0.2017  0.0001
 9618W        W25802   2.163   0.058   0.386  0.0739  0.2698  0.1363
 9619W        W25803  16.888  14.402  15.977 -0.0624  0.1735  0.0723
 9620W        W25804   8.788  10.101  13.878  0.0379  0.1079 -0.0742
 9621W        W25805  11.436   4.505   1.009  0.0489  0.3329 -0.2796
 9622W        W25806  11.800   2.988   2.737  0.1527 -0.1937  0.2564
 9623W        W25807  16.442  14.608  11.133  0.1568  0.1506  0.1125
 9624W        W25808   7.533   6.914  11.718 -0.2745 -0.1463 -0.1336
 9625W        W25809  17.227   8.376  12.037  0.0940  0.1096  0.1088
 9626W        W25810  10.345   2.481   3.843  0.1852 -0.2209 -0.2058
 9627W        W25811  10.833   2.496  16.012 -0.1400 -0.2493 -0.0943
 9628W        W25812  12.223   1.320   1.053 -0.4598  0.2457  0.3674
 9629W        W25813   8.027   4.280   2.254  0.1759 -0.4166  0.1021
 9630W        W25814   6.423   9.164  14.062 -0.2216 -0.1322 -0.1290
 9631W        W25815   3.358  14.784  13.667  0.0078  0.0900  0.0100
 9632W        W25816  14.651   4.705   2.749 -0.1154 -0.1771  0.0271
 9633W        W25817   4.451  17.822   0.725 -0.0191 -0.3074  0.1573
 9634W        W25818   7.658   7.230  13.763 -0.1004  0.0425  0.1145
 9635W        W25819  14.134  11.697  11.991 -0.2088 -0.0675  0.0209
 9636W        W25820   5.183   3.660  13.087 -0.0907  0.1805  0.0834
 9637W        W25821   5.033   5.488   0.265  0.0578 -0.3496  0.0310
 9638W        W25822   7.188   7.441  13.617  0.0996  0.0780  0.2547
 9639W        W25823  15.592   5.224   2.488  0.1102  0.1566  0.1286
 9640W        W25824  12.680  17.365  13.266 -0.0125 -0.3591  0.0511
 9641W        W25825  12.706   5.701  14.583 -0.2318  0.0677  0.2073
 9642W        W25826   0.513  18.319  11.996 -0.0202 -0.1015 -0.0489
 9643W        W25827   1.612  14.546   3.771  0.1548 -0.1632 -0.3165
 9644W        W25828  11.598   9.861  13.834 -0.0105 -0.1666 -0.1160
 9645W        W25829   3.505   9.367  14.671  0.1327 -0.1185 -0.0693
 9646W        W25830   6.670   9.793  11.923  0.0305 -0.1233  0.1627
 9647W        W25831   0.364   2.055  11.089 -0.0489  0.1440 -0.0666
 9648W        W25832   0.934  13.376  11.909  0.1328  0.2321  0.2086
 9649W        W25833  13.795  16.614   3.740  0.2944 -0.2158  0.1735
 9650W        W25834   3.488   6.980  13.779  0.1008  0.2968  0.1396
 9651W        W25835   0.265  15.739   3.018  0.0881 -0.2500 -0.1487
 9652W        W25836   5.448   8.688   3.221  0.1936  0.0688 -0.1611
 9653W        W25837   1.785  13.777   0.555 -0.4079 -0.0481  0.1092
 9654W        W25838   8.260   9.925  13.218  0.2136 -0.0788 -0.0701
 9655W        W25839   2.403   7.002   1.037  0.1343  0.1079 -0.0742
 9656W        W25840  16.402   9.145   1.734  0.0040 -0.3378 -0.1480
 9657W        W25841   1.333   9.972  13.709  0.0138 -0.0200 -0.0957
 9658W        W25842   8.936  10.729  15.492 -0.1247  0.1071 -0.3960
 9659W        W25843  13.422  18.023  13.568  0.0366  0.1944  0.1250
 9660W        W25844  16.375  13.355  14.282 -0.1457  0.2069 -0.0676
 9661W        W25845   7.600   6.516  12.359 -0.0286 -0.0867 -0.3071
 9662W        W25846   5.510   7.079  14.029  0.0133 -0.2732  0.1148
 9663W        W25847  17.999  14.904   4.778 -0.1647  0.0134  0.1213
 9664W        W25848  13.625   6.410  13.903  0.4367 -0.0523 -0.1788
 9665W        W25849  16.534   6.366   3.929 -0.1629  0.0245 -0.2219
 9666W        W25850   1.750   9.057  13.734 -0.0330  0.1965 -0.2976
 9667W        W25851  13.076   1.243  14.804 -0.0567 -0.2711 -0.0132
 9668W        W25852  16.989   4.188   1.432 -0.1493 -0.1790 -0.3762
 9669W        W25853   1.398   2.845  12.836  0.2070 -0.2577 -0.1951
 9670W        W25854   0.902   6.556  10.292  0.3223  0.3419  0.0350
 9671W        W25855  10.553   1.658   3.941 -0.0533 -0.3608 -0.3164
 9672W        W25856   7.406  10.390   4.917  0.1633  0.0813  0.0893
 9673W        W25857   4.381   3.770   1.673 -0.0398 -0.0423 -0.2538
 9674W        W25858   9.300   0.360  16.005 -0.1734 -0.0885 -0.2111
 9675W        W25859  10.353   4.169   2.319 -0.3116 -0.0761 -0.2337
 9676W        W25860  13.606   5.107   4.412 -0.2623 -0.2168  0.4208
 9677W        W25861   6.240  16.047   1.545  0.1128 -0.3018 -0.2673
 9678W        W25862   3.059  10.373   4.821 -0.0030 -0.0184  0.2490
 9679W        W25863  10.574  15.465  15.049 -0.3071 -0.0402 -0.0150
 9680W        W25864   5.443   4.150   5.714 -0.0160  0.0875  0.4141
 9681W        W25865   4.008  13.549  12.663  0.1212 -0.0811 -0.2199
 9682W        W25866   7.574   7.535  15.483 -0.1972 -0.0556 -0.3897
 9683W        W25867  15.797   1.782  11.920 -0.1278 -0.1234  0.1714
 9684W        W25868   6.659   1.600   3.802 -0.1677 -0.0627 -0.0148
 9685W        W25869  13.523   2.711  13.775 -0.2848 -0.0351  0.1522
 9686W        W25870   3.582   2.994  11.207 -0.0438  0.0164 -0.0776
 9687W        W25871   8.175   9.115   3.536  0.1636 -0.1289 -0.1563
 9688W        W25872   4.726  14.032   2.658  0.6402 -0.3046  0.2557
 9689W        W25873   1.596   8.085  15.182  0.1858 -0.2866  0.0703
 9690W        W25874  14.780   1.153   0.028  0.0299 -0.1645  0.1338
 9691W        W25875  14.280   8.563   0.803 -0.1189  0.1068  0.1702
 9692W        W25876  10.107   5.085   2.878 -0.2409 -0.0109  0.0788
 9693W        W25877   0.733   9.425   1.680 -0.2184  0.0470  0.1953
 9694W        W25878  13.834   1.558   4.496  0.0191  0.1417  0.1921
 9695W        W25879   1.366   1.563  10.716  0.1357  0.1934 -0.4218
 9696W        W25880   8.432  11.770  12.729 -0.0534 -0.0415  0.1352
 9697W        W25881   9.408  12.079   0.626 -0.0000 -0.0968  0.0923
 9698W        W25882   7.788   2.163   4.168 -0.2256  0.1198  0.0101
 9699W        W25883  17.138  12.978   3.530  0.2562 -0.0432  0.1494
 9700W        W25884  12.039   6.965   4.571  0.0969  0.0774 -0.2130
 9701W        W25885   3.427  14.729  15.495  0.2609 -0.2634 -0.0658
 9702W        W25886   3.924   3.578   1.634 -0.2107 -0.0658  0.0167
 9703W        W25887   4.751  10.835  12.030  0.1084  0.1082 -0.0638
 9704W        W25888   5.071  11.684   2.959  0.3107 -0.0812 -0.0219
 9705W        W25889   8.005   9.906  12.208  0.0588  0.1357 -0.2547
 9706W        W25890  14.921  10.790   3.337 -0.0403  0.4486 -0.0289
 9707W        W25891  15.398   6.063  11.311  0.1134 -0.1673  0.2303
 9708W        W25892  11.200  18.459   4.526  0.0585 -0.2926  0.0436
 9709W        W25893  16.279  14.544   3.456  0.1503 -0.1605 -0.2904
 9710W        W25894   2.813  15.650  10.768  0.1443 -0.1141 -0.1521
 9711W        W25895   8.045  15.081  15.774 -0.1927 -0.2173 -0.0053
 9712W        W25896   3.139   8.194  15.295 -0.2722 -0.0983  0.1468
 9713W        W25897  13.638   1.127   4.754 -0.1359 -0.0747  0.6794
 9714W        W25898   4.876   7.179   0.991 -0.4120 -0.2929  0.0697
 9715W        W25899   7.417  12.351   3.156 -0.0035  0.0753  0.1331
 9716W        W25900   4.199   0.590  11.583  0.1512  0.0634  0.2118
 9717W        W25901  12.203   9.152   1.914 -0.0154 -0.0519  0.0833
 9718W        W25902   9.199  16.510   1.879 -0.3078  0.3731 -0.0677
 9719W        W25903  15.789   2.336  13.591 -0.0555  0.2292 -0.1550
 9720W        W25904   3.807  11.088  15.719  0.1080  0.1552  0.0382
 9721W        W25905  17.607   6.730  11.730 -0.1821 -0.4145 -0.0334
 9722W        W25906  12.308   2.710   2.480  0.2051 -0.0284 -0.0317
 9723W        W25907   9.262   2.790   2.481  0.0851  0.0262 -0.1213
 9724W        W25908   5.681   5.223  14.820 -0.4056  0.1224 -0.1422
 9725W        W25909  14.188  14.479   5.451 -0.3391 -0.0746  0.0484
 9726W        W25910  16.556   5.924   3.608  0.1895  0.0296  0.1419
 9727W        W25911  14.837  16.565   1.251  0.0630  0.0768  0.0206
 9728W        W25912  15.776   3.897  15.340 -0.2630  0.2563 -0.1352
 9729W        W25913  14.247   5.310   2.569  0.1962  0.0040  0.0797
 9730W        W25914  17.437   7.003   5.406  0.3873  0.2980 -0.1336
 9731W        W25915   0.063  16.634   4.314 -0.2025 -0.1327  0.1035
 9732W        W25916   9.334   0.564  12.576 -0.0285  0.1061 -0.0815
 9733W        W25917   6.972  12.077   1.162 -0.0940 -0.0981  0.1592
 9734W        W25918   6.323   3.770   5.101  0.0659 -0.1400  0.2176
 9735W        W25919   6.209  18.345   0.801 -0.1674  0.2419  0.0876
 9736W        W25920  16.978  15.047   6.308 -0.2366 -0.0907 -0.1951
 9737W        W25921   9.337   0.674  15.610 -0.0354  0.1753  0.2546
 9738W        W25922   9.838  15.361  15.742  0.1465  0.0939  0.2048
 9739W        W25923   0.187  16.839   1.496 -0.0175  0.0054  0.0195
 9740W        W25924   2.348   8.546  11.369 -0.1738 -0.1539 -0.0137
 9741W        W25925   2.462  16.051   3.497  0.0103  0.3061 -0.0638
 9742W        W25926   1.720  14.506  12.590  0.0045  0.2377 -0.1537
 9743W        W25927   6.527  11.784  13.137  0.0185  0.0392  0.0336
 9744W        W25928   3.961   6.091   4.216 -0.1902  0.0800  0.2244
 9745W        W25929   7.763  14.262  12.678 -0.2439  0.0429 -0.0319
 9746W        W25930   1.355   1.304   5.682  0.2347  0.2482 -0.0872
 9747W        W25931   0.777   3.261  15.124  0.1286  0.0290 -0.2968
 9748W        W25932  17.529  13.252   3.335  0.1626  0.0316 -0.1741
 9749W        W25933   1.620  15.685  15.009 -0.3091  0.1157  0.1844
 9750W        W25934  12.224   8.480  14.593 -0.0537  0.2978 -0.1374
 9751W        W25935   6.662   7.364   4.595  0.0223 -0.1476 -0.0283
 9752W        W25936   6.390   6.478   0.486  0.0063 -0.0086  0.1738
 9753W        W25937   2.449  18.343  12.778  0.0670 -0.1274  0.5381
 9754W        W25938   8.634  11.424   0.121 -0.0812  0.1527  0.0288
 9755W        W25939  17.216  11.614   4.143 -0.1195 -0.1397  0.2273
 9756W        W25940   4.589   3.544  13.846  0.2695 -0.3844 -0.0570
 9757W        W25941   2.917  16.622   3.810 -0.0970  0.0181 -0.0049
 9758W        W25942  14.347   5.098   1.574  0.0304 -0.0736  0.2059
 9759W        W25943   0.982   0.984  11.731  0.0462 -0.0439 -0.1565
 9760W        W25944   5.180   3.180   5.897 -0.0723  0.0172  0.0495
 9761W        W25945   3.593  10.123   4.836 -0.0438 -0.0740  0.1571
 9762W        W25946  10.185  11.212  13.672  0.2564 -0.3632  0.0105
 9763W        W25947   3.013   2.324  14.300 -0.0232 -0.2105  0.4957
 9764W        W25948   0.581   8.077  14.122 -0.1203  0.0716 -0.2392
 9765W        W25949  17.310   2.262  13.480 -0.0264  0.3160  0.1271
 9766W        W25950   6.114   4.531   0.603  0.0609  0.0146  0.2744
 9767W        W25951   1.521   1.274  13.081  0.1544  0.0919 -0.0231
 9768W        W25952   8.896   5.476   2.287  0.1959 -0.2289 -0.0388
 9769W        W25953  11.729   3.051  11.336  0.2433 -0.1121 -0.2034
 9770W        W25954  15.891   5.206   3.657 -0.1355  0.1835 -0.2009
 9771W        W25955  14.941  12.032  13.549  0.2968  0.1445  0.2613
 9772W        W25956  10.557   2.088   2.474 -0.4251 -0.3968  0.1765
 9773W        W25957  12.880   4.434   4.342 -0.1143  0.1484  0.5168
 9774W        W25958   0.061   7.577   4.335 -0.0623 -0.0748 -0.0483
 9775W        W25959   4.912   6.813  10.895 -0.0593 -0.3371  0.1554
 9776W        W25960   0.184   5.205  11.182  0.4197  0.0977 -0.2274
 9777W        W25961   9.547  15.816  12.819 -0.0031 -0.3464 -0.2177
 9778W        W25962   1.856   7.117   2.920  0.1799 -0.2596  0.2070
 9779W        W25963  16.779  14.162   3.075 -0.0310 -0.3252  0.0010
 9780W        W25964  12.041   1.019   4.796  0.1810  0.1705  0.1728
 9781W        W25965   6.115  11.612   5.115  0.2746 -0.1460 -0.0587
 9782W        W25966   5.576   7.516  12.662 -0.0151  0.0803 -0.0872
 9783W        W25967   8.416  11.397  11.777  0.1990  0.0202 -0.1500
 9784W        W25968   8.308   9.995   6.341 -0.0420 -0.1362 -0.1187
 9785W        W25969  10.920   6.763  12.284 -0.2792  0.1139 -0.2687
 9786W        W25970  16.087   5.698   1.628  0.3177  0.1005  0.0859
 9787W        W25971  10.487   7.861  13.599  0.0969  0.3712  0.2028
 9788W        W25972  10.965  16.275  15.695 -0.0589  0.1566 -0.2273
 9789W        W25973   7.665   2.651  15.028 -0.3022 -0.0804  0.0588
 9790W        W25974   0.677   3.893   0.005  0.0569 -0.1030 -0.0130
 9791W        W25975  15.183  11.749  13.244  0.2056  0.6313  0.2189
 9792W        W25976  13.598   5.399  14.033 -0.0504  0.1246  0.3280
 9793W        W25977   2.328   0.820  12.544 -0.1345 -0.0043 -0.2861
 9794W        W25978  16.774   1.571  10.172  0.5978  0.2065  0.0442
 9795W        W25979  14.747   6.128   0.523  0.0901  0.1170 -0.0783
 9796W        W25980   6.681  10.525  12.646  0.0652 -0.2547  0.0096
 9797W        W25981  13.375   7.459   3.036  0.0779 -0.0317  0.1315
 9798W        W25982  11.842   0.593   4.762  0.2881  0.0668 -0.0371
 9799W        W25983  14.703   3.080   0.646  0.0537 -0.2885  0.0081
 9800W        W25984   1.731   3.580   3.532 -0.1104 -0.2954 -0.1433
 9801W        W25985  16.396  16.598  16.072  0.0692 -0.1084 -0.2071
 9802W        W25986   2.315  16.703   5.685 -0.3867  0.0322  0.3380
 9803W        W25987  12.988  13.248   3.811  0.1554  0.1875  0.0169
 9804W        W25988  16.628   5.729   4.040  0.1072 -0.0693 -0.0816
 9805W        W25989  10.285   4.332   4.432  0.0354  0.0389 -0.0365
 9806W        W25990  14.662   2.388   2.193 -0.0774  0.1111  0.0093
 9807W        W25991  10.809   1.766  15.710  0.0374  0.1756  0.1013
 9808W        W25992   2.833  14.135   4.883 -0.1212 -0.2877 -0.2678
 9809W        W25993  17.012   0.150  14.308 -0.2393 -0.1737 -0.3154
 9810W        W25994   3.627  12.164  15.803  0.3802 -0.0791 -0.0771
 9811W        W25995   7.942  18.435  13.380  0.1382 -0.2020 -0.0845
 9812W        W25996   2.738   1.629   5.630  0.2919 -0.1466 -0.1907
 9813W        W25997   8.301  15.960  11.892  0.1307  0.0236  0.2695
 9814W        W25998   0.418   4.139  15.474 -0.0116  0.0438  0.0772
 9815W        W25999  18.318  10.762  15.330 -0.1943  0.1076 -0.0102
 9816W        W26000   0.616   3.697   0.463 -0.0151 -0.4432 -0.3146
 9817W        W26001  10.655  17.609  13.854  0.1080  0.1405  0.1611
 9818W        W26002   6.500   1.903   3.385 -0.1404  0.1461  0.1781
 9819W        W26003   4.318   7.564   2.089  0.0102  0.1875 -0.2578
 9820W        W26004  14.324   1.976  12.907 -0.0555  0.1640 -0.1501
 9821W        W26005   0.157   0.222  15.762 -0.0496  0.1539 -0.1658
 9822W        W26006   5.291   7.447   5.338  0.2525 -0.2185  0.5147
 9823W        W26007  12.974  13.223  13.800  0.0109 -0.1390 -0.0720
 9824W        W26008  16.595  15.004  15.186 -0.3449  0.1981  0.2568
 9825W        W26009   0.819   0.460   0.755 -0.2012 -0.3135  0.0245
 9826W        W26010   5.552   7.003  12.770  0.4553 -0.0028  0.0605
 9827W        W26011  13.357  18.349  15.092 -0.0270  0.0037 -0.1212
 9828W        W26012  11.782   2.843   4.619  0.0926  0.1470 -0.2317
 9829W        W26013  13.774  10.647  15.643 -0.2368 -0.0911 -0.0719
 9830W        W26014  16.801   6.028   2.353 -0.1475  0.2840  0.3776
 9831W        W26015   7.627  13.352   2.486 -0.1113  0.2978  0.1052
 9832W        W26016  16.344   3.556  14.490  0.2914 -0.3376  0.0094
 9833W        W26017  15.958   2.171  14.927 -0.0686 -0.1422 -0.0938
 9834W        W26018  11.482  11.844  10.431  0.1851 -0.2449 -0.1049
 9835W        W26019  18.164  14.013  13.952  0.0761 -0.1352  0.1985
 9836W        W26020   2.844  11.377  13.789 -0.2015  0.2914 -0.0509
 9837W        W26021  15.015  16.546  15.584 -0.1816 -0.0991 -0.1165
 9838W        W26022  17.520   1.512   3.929  0.2351  0.3295  0.1478
 9839W        W26023  16.868  18.247   2.710 -0.2813  0.2153 -0.0681
 9840W        W26024   6.710   9.100  12.851  0.2521  0.2330 -0.3570
 9841W        W26025   0.703   2.478   0.870 -0.1543 -0.0746 -0.2172
 9842W        W26026   3.335   0.086   5.473  0.1159  0.0832 -0.0808
 9843W        W26027  12.931   4.652  11.694  0.0077 -0.0591  0.2031
 9844W        W26028   1.923  10.750  15.731  0.4209  0.0649  0.0464
 9845W        W26029   6.189   1.360   3.379  0.0009 -0.2044  0.0536
 9846W        W26030   2.470   1.960   3.420  0.3155  0.0371 -0.0951
 9847W        W26031  13.572  13.575  12.339 -0.0993 -0.0036 -0.2509
 9848W        W26032   4.172   3.019   3.359  0.1150  0.0421 -0.0201
 9849W        W26033  10.742  11.538   1.351 -0.0070 -0.1477  0.4475
 9850W        W26034  17.933  17.765  15.165 -0.0575 -0.0636  0.0384
 9851W        W26035  18.211  13.821   4.922 -0.0550  0.1175  0.1281
 9852W        W26036   3.120  12.386   2.353  0.2263 -0.1006 -0.3505
 9853W        W26037  15.833  11.655   4.351  0.0446  0.3769 -0.1431
 9854W        W26038  17.189   3.956  13.280  0.0933 -0.1994  0.1400
 9855W        W26039   2.500  14.953   5.406 -0.0621 -0.1539  0.3105
 9856W        W26040   0.876  11.915  12.138  0.0685  0.2091 -0.0981
 9857W        W26041   2.846   7.688  11.531 -0.0044  0.0454  0.2875
 9858W        W26042  11.119  11.841   1.102  0.1666  0.2639 -0.0776
 9859W        W26043   2.745   6.505  14.890 -0.3194  0.2743 -0.0154
 9860W        W26044   2.915  15.750  13.577 -0.0479  0.1035 -0.3931
 9861W        W26045   7.031   1.119   2.472 -0.2231  0.1651  0.2139
 9862W        W26046  13.674  17.470   1.980 -0.2377  0.0134 -0.1668
 9863W        W26047   5.734  16.050  14.569 -0.2840  0.1261 -0.2735
 9864W        W26048  12.556   7.038  14.703 -0.0451  0.0342  0.2101
 9865W        W26049  16.075  10.760  11.625 -0.0647 -0.3119 -0.0338
 9866W        W26050   7.069  13.730   0.600  0.1404  0.1992  0.0192
 9867W        W26051   6.013   9.463   6.071 -0.0514  0.3677 -0.1451
 9868W        W26052  12.237   8.309  12.414 -0.1417 -0.2152 -0.1215
 9869W        W26053   9.801   9.099  15.361  0.1383 -0.1158  0.1988
 9870W        W26054   5.240  10.425   2.963 -0.0632 -0.4974  0.1565
 9871W        W26055  16.140  13.396   3.815 -0.2553  0.2508 -0.2685
 9872W        W26056  16.027   4.191   3.447  0.3919 -0.2054  0.2400
 9873W        W26057   2.069   1.301   2.266 -0.0331 -0.0041  0.1259
 9874W        W26058   5.843   2.852   1.305  0.2494  0.2819 -0.0416
 9875W        W26059  10.295  10.765   1.619 -0.1688  0.2160  0.0335
 9876W        W26060   5.647   8.904  13.445  0.2355  0.2656  0.0259
 9877W        W26061   7.357  10.273  14.517  0.2942  0.0317 -0.1828
 9878W        W26062  18.005   1.265   4.738  0.0381  0.0679  0.0041
 9879W        W26063   8.783   5.084   3.098 -0.2808  0.0562  0.1754
 9880W        W26064   7.427  13.355  15.154  0.1258  0.1859  0.0298
 9881W        W26065   8.008   4.143   1.036  0.3896  0.3671  0.4045
 9882W        W26066   9.595  14.660   1.283  0.3294  0.0655 -0.0142
 9883W        W26067   6.138  12.531   2.668 -0.1732 -0.0509 -0.0643
 9884W        W26068   8.481   1.561  10.901 -0.1558  0.1514  0.0777
 9885W        W26069   5.936   5.973  13.653 -0.0185  0.2418 -0.1565
 9886W        W26070   9.020   1.842   1.225  0.2539 -0.1077  0.0526
 9887W        W26071   4.518   5.068   3.479  0.3811  0.1948 -0.1878
 9888W        W26072  14.090   1.447   0.868 -0.3835 -0.3706  0.1560
 9889W        W26073  11.845  16.025   1.921  0.0970  0.1237  0.1212
 9890W        W26074   3.905  14.546  15.636 -0.1693 -0.0349  0.2516
 9891W        W26075  11.776  14.482  15.331  0.0292 -0.0022 -0.0883
 9892W        W26076  10.370   8.255  13.277 -0.1072 -0.1523 -0.1018
 9893W        W26077   1.327  11.993  15.312  0.1168  0.0021  0.0659
 9894W        W26078   0.084   3.385  11.226  0.2713  0.0562  0.2184
 9895W        W26079   0.437   5.377   1.250  0.0511  0.0458  0.2396
 9896W        W26080  14.365   5.065  13.997  0.2386  0.2541 -0.0915
 9897W        W26081   3.697   5.365   2.786  0.1192  0.1999  0.3229
 9898W        W26082  17.775  16.040   1.478 -0.5122  0.2584  0.2317
 9899W        W26083   9.934  16.132   5.003 -0.0732  0.1774  0.1417
 9900W        W26084   6.232   2.748  13.095 -0.1216  0.0523  0.1446
 9901W        W26085   4.972   1.611  14.102  0.1719 -0.2891 -0.0302
 9902W        W26086  14.486  13.291  13.948  0.0290  0.1330  0.3109
 9903W        W26087  11.072   6.103   4.593 -0.0037 -0.2186 -0.0437
 9904W        W26088  13.207  13.289  15.624  0.0497  0.0541  0.2279
 9905W        W26089  12.659  14.198  15.037 -0.8240 -0.3244  0.1088
 9906W        W26090  18.024   6.018   2.597  0.2495 -0.3813  0.5049
 9907W        W26091   5.952  14.855   3.962  0.3856 -0.0042 -0.1743
 9908W        W26092  17.804  11.168   2.255  0.1181 -0.0806  0.0261
 9909W        W26093   6.781  11.078   4.947  0.4250 -0.0717  0.3476
 9910W        W26094  12.812   1.605   3.686  0.2367  0.0457 -0.0415
 9911W        W26095  16.275   4.043  13.049 -0.1049 -0.1649  0.2396
 9912W        W26096   4.014  11.911   0.701 -0.1126  0.1060 -0.1741
 9913W        W26097  16.238  13.105   1.421 -0.1031 -0.0511  0.1886
 9914W        W26098   8.367  14.178   1.468 -0.1956  0.3380 -0.1765
 9915W        W26099  13.163   7.729   4.556 -0.2026  0.1129 -0.0187
 9916W        W26100   1.529  16.334   1.480 -0.0970  0.0115  0.0926
 9917W        W26101  16.559  15.299  11.962 -0.2288  0.1226 -0.0131
 9918W        W26102  18.273   1.633   1.381  0.3315  0.0780  0.2425
 9919W        W26103  10.044  11.188  12.834 -0.3132 -0.3797 -0.0000
 9920W        W26104   9.590  14.587   0.820 -0.3166 -0.0931 -0.0600
 9921W        W26105   2.773  14.593   2.158 -0.0013 -0.3573 -0.1118
 9922W        W26106  12.424  11.223   3.981  0.0473 -0.2700 -0.1982
 9923W        W26107  16.707   2.294   5.698  0.2328  0.3296  0.1073
 9924W        W26108   8.869   9.195   4.475 -0.0073  0.2230 -0.0715
 9925W        W26109  16.122  11.320   2.595 -0.2943  0.2424 -0.0509
 9926W        W26110  11.042   5.724  14.081  0.0426 -0.1739 -0.3224
 9927W        W26111   5.999  17.385   0.783 -0.1550 -0.2289  0.2801
 9928W        W26112  12.178  16.150   1.419  0.0912  0.0523 -0.0419
 9929W        W26113  13.032  13.686  15.291  0.0026 -0.0258 -0.0060
 9930W        W26114   7.948   6.005   4.326 -0.0664 -0.2370  0.0840
 9931W        W26115  10.764   9.366   4.048  0.1353  0.2881  0.1257
 9932W        W26116   9.070   7.562  15.325 -0.0516  0.1024 -0.1131
 9933W        W26117   5.069  10.958  15.777  0.0547  0.3456  0.1584
 9934W        W26118   5.758   6.326  14.117  0.2222 -0.1719  0.2039
 9935W        W26119  16.451  17.673   0.917 -0.3439 -0.1621  0.0273
 9936W        W26120  11.941   6.727   2.342 -0.0689  0.3032 -0.1922
 9937W        W26121   6.352   6.942   4.550  0.1966  0.1771  0.0906
 9938W        W26122   2.023  12.817   4.486 -0.0780  0.2005 -0.4093
 9939W        W26123  14.558  14.041   1.347 -0.1005  0.0595 -0.0833
 9940W        W26124  12.710  10.998  11.928 -0.2394  0.0161 -0.1131
 9941W        W26125   0.585  14.524  14.240 -0.3563 -0.0084  0.0035
 9942W        W26126  14.823  15.030  11.737  0.0582  0.0089  0.0600
 9943W        W26127   1.461   7.008  11.585  0.1487  0.0717  0.0541
 9944W        W26128   4.566  15.455  14.914 -0.2540  0.1283  0.0835
 9945W        W26129  14.913   7.172  15.835 -0.0383  0.1195 -0.2287
 9946W        W26130  10.384   0.361  15.021 -0.2472  0.0628 -0.0167
 9947W        W26131   3.825  16.964   0.218 -0.0673  0.0160  0.1367
 9948W        W26132  14.905  11.240  15.122 -0.1808  0.1471  0.2477
 9949W        W26133  14.385   1.184  13.391  0.0644  0.1618  0.0877
 9950W        W26134  13.156   2.588  15.943 -0.0164 -0.1736  0.2059
 9951W        W26135  11.888   8.022  12.589  0.0939 -0.2203 -0.1058
 9952W        W26136   4.164   8.859  11.333  0.2796 -0.0620 -0.0497
 9953W        W26137  14.464   6.890  14.297 -0.0269  0.1777  0.0547
 9954W        W26138   3.351  12.392   3.304 -0.0823  0.0469  0.0643
 9955W        W26139   2.309   4.181  15.202  0.1205 -0.1707 -0.1205
 9956W        W26140   9.934  14.318   1.231 -0.1392  0.0201 -0.3495
 9957W        W26141  16.676   3.609  15.523  0.1356 -0.0891 -0.0924
 9958W        W26142  12.532  14.919   0.559  0.0361  0.0769 -0.3769
 9959W        W26143  17.928   5.582  13.380  0.0691 -0.0378 -0.2514
 9960W        W26144   1.325  14.621  15.734 -0.1042 -0.1126  0.1400
 9961W        W26145   4.904  15.489   4.412 -0.2246 -0.0318  0.0052
 9962W        W26146   5.438   4.966   5.520  0.1476  0.2511 -0.2797
 9963W        W26147  16.023   5.501  11.707  0.2067  0.2154  0.1460
 9964W        W26148  18.160   3.176   5.233 -0.0423  0.0634 -0.4345
 9965W        W26149   6.438   8.587  14.230  0.2719  0.1139  0.0218
 9966W        W26150  16.873  12.409  15.020 -0.0673  0.0421 -0.0339
 9967W        W26151  12.048  14.521   3.358  0.2010  0.1342 -0.0997
 9968W        W26152  12.821   2.174  13.213 -0.1448 -0.2733  0.0858
 9969W        W26153   2.974   6.172   0.994  0.2695 -0.1067 -0.2011
 9970W        W26154   5.810   2.225  12.397 -0.0025  0.0529  0.0323
 9971W        W26155  17.242  14.732   4.299 -0.4472  0.3181 -0.0775
 9972W        W26156  11.176   6.794   1.560 -0.1064 -0.1824 -0.0765
 9973W        W26157  10.588  10.492  13.368 -0.0532  0.0328  0.1429
 9974W        W26158   8.881   4.614   2.190  0.0173 -0.0318 -0.2285
 9975W        W26159   8.057   1.902   5.421  0.3487 -0.1538  0.2448
 9976W        W26160  15.928   8.502  11.922 -0.1059 -0.3139 -0.1572
 9977W        W26161   1.202   6.528   5.204 -0.0505  0.2342 -0.1444
 9978W        W26162   2.545   4.626  13.495 -0.0907  0.2528  0.2291
 9979W        W26163  10.024   6.529  13.953 -0.1033 -0.1472 -0.1885
 9980W        W26164   5.065   8.248   1.243  0.3824  0.0047  0.0158
 9981W        W26165  17.954   4.747   4.083  0.0879 -0.2055  0.1645
 9982W        W26166   1.356   5.689   0.463 -0.0157 -0.1581  0.3317
 9983W        W26167  17.007   6.651  15.260  0.1419 -0.0103  0.0700
 9984W        W26168  14.176   9.526   1.921  0.1281 -0.0881 -0.3492
 9985W        W26169  12.511  13.470  11.355  0.1159 -0.0810  0.2305
 9986W        W26170  16.950  13.041  12.853 -0.1565  0.0580  0.0223
 9987W        W26171   6.204  14.731  14.730  0.1279  0.0470  0.1977
 9988W        W26172  16.972  15.115  12.200  0.1152 -0.0643 -0.1412
 9989W        W26173  11.982   0.380   1.480 -0.1645  0.1010 -0.1212
 9990W        W26174  16.852  18.002  13.652 -0.2769  0.0141 -0.1249
 9991W        W26175  15.671   4.719  12.422  0.1736  0.0440 -0.2227
 9992W        W26176  17.551   5.043  12.642  0.0597 -0.0008 -0.1332
 9993W        W26177   9.311  17.437  12.440 -0.0210  0.1658  0.0669
 9994W        W26178  18.028   7.200  15.668  0.0567 -0.0978 -0.2047
 9995W        W26179  16.318   3.998   1.548 -0.0880 -0.1014 -0.0952
 9996W        W26180   5.537  14.486  11.301 -0.0859 -0.1893 -0.2242
 9997W        W26181  15.110  11.762  12.295  0.1584  0.0568 -0.2895
 9998W        W26182   1.966   1.885   3.669 -0.0209 -0.2185  0.1339
 9999W        W26183   1.938  16.351  13.796 -0.0840 -0.2308 -0.6231
10000W        W26184   4.355  11.769   0.041 -0.1846 -0.2533  0.3986
10001W        W26185   8.012  14.997   4.574 -0.0773  0.0607  0.0357
10002W        W26186  16.364   3.005   3.822  0.0076  0.0037  0.0123
10003W        W26187   6.295  10.399   2.165 -0.0892  0.0047 -0.0254
10004W        W26188   2.696  13.466   0.348 -0.2585 -0.1140 -0.2117
10005W        W26189   0.869   3.801  12.888  0.0551  0.0512  0.0952
10006W        W26190   4.906   7.002  15.720 -0.0562 -0.1630 -0.0097
10007W        W26191  10.779  10.501  13.953  0.1434  0.1093 -0.1307
10008W        W26192  11.504   5.154  15.591 -0.1328  0.0619 -0.4047
10009W        W26193   0.155  11.467  14.314 -0.0186 -0.0189  0.1113
10010W        W26194   4.567  10.188  11.334 -0.0545 -0.1229 -0.2497
10011W        W26195   5.491   6.832   5.487  0.1167 -0.0320  0.0688
10012W        W26196  17.585  16.598  11.719  0.0407  0.1273  0.0405
10013W        W26197  13.257  11.398   3.582  0.3009 -0.0171 -0.2141
10014W        W26198  13.410   5.615  13.224 -0.0347  0.1338  0.1143
10015W        W26199  16.793  10.253   2.676 -0.0530  0.2614 -0.0991
10016W        W26200  17.576   5.301   0.450 -0.0720 -0.0621 -0.0490
10017W        W26201  17.333  14.554  15.716  0.1015  0.2484  0.1769
10018W        W26202  18.430  11.219   1.038 -0.0554 -0.0883 -0.0657
10019W        W26203   9.059  13.660  15.737 -0.1335 -0.1365 -0.1919
10020W        W26204   7.751  14.886   2.924 -0.1821 -0.1363 -0.1071
10021W        W26205  13.398  18.387   4.880 -0.1793 -0.1037 -0.0002
10022W        W26206  12.095   3.744  13.084  0.0324  0.4224 -0.3493
10023W        W26207  13.796   4.827  13.957  0.2149  0.0695  0.0639
10024W        W26208  12.679   9.247   3.196 -0.0075 -0.2031  0.2838
10025W        W26209  15.080   8.849  15.384 -0.2756 -0.2055 -0.2292
10026W        W26210   6.744  12.292  12.381 -0.1855  0.0252 -0.1674
10027W        W26211   3.578  13.034  15.430 -0.0559  0.2753 -0.0289
10028W        W26212   3.951  11.995   2.438  0.1627  0.2356 -0.1428
10029W        W26213   7.151   9.690   1.008 -0.0535  0.0445 -0.0536
10030W        W26214  14.913  17.303  15.546  0.0134 -0.3494 -0.1506
10031W        W26215   1.677  12.280   1.503 -0.0394 -0.0197  0.0136
10032W        W26216   8.307   6.969   0.778  0.1183 -0.4133  0.0755
10033W        W26217   7.834  13.419  12.685  0.1881 -0.1937 -0.2525
10034W        W26218  12.709  15.609  15.464 -0.0098 -0.1934 -0.4036
10035W        W26219   5.731  16.457  12.371  0.2202  0.0251 -0.1003
10036W        W26220  10.561  16.898  12.496 -0.0429  0.3031 -0.0074
10037W        W26221   2.870  12.511  13.504  0.0608 -0.1919 -0.1059
10038W        W26222  17.160  11.739  11.324 -0.0264 -0.3648 -0.2294
10039W        W26223  10.977   5.185  15.672  0.2087  0.0860 -0.0244
10040W        W26224  13.626   4.289  10.550 -0.0832  0.4057 -0.0923
10041W        W26225   0.935  17.331  15.276 -0.0247  0.0580  0.0055
10042W        W26226  14.830  15.419  10.200  0.3020  0.1544 -0.1486
10043W        W26227   8.898   3.527  15.433  0.0261 -0.1481  0.1139
10044W        W26228   9.479   5.915   6.096 -0.2251  0.0044 -0.3009
10045W        W26229   2.939  16.947  15.868 -0.0869 -0.0750 -0.0826
10046W        W26230   7.955   2.614   2.105  0.0591 -0.0203 -0.0792
10047W        W26231   3.207   8.892   2.222 -0.0087 -0.0321 -0.1716
10048W        W26232  14.632   3.823  12.429 -0.3020  0.0103  0.0243
10049W        W26233  10.564   4.815   4.793  0.2384 -0.2455 -0.0434
10050W        W26234   1.433   0.201   4.864 -0.3244 -0.0497 -0.0365
10051W        W26235  11.399   3.222   2.922  0.1934  0.1561 -0.1948
10052W        W26236   6.853   8.246   5.405 -0.2135  0.0237  0.1014
10053W        W26237   6.899   8.854   4.593 -0.0403 -0.0136 -0.2800
10054W        W26238  15.408   6.939  12.530 -0.0013 -0.1420 -0.1904
10055W        W26239  17.379  16.925  13.700  0.0377  0.2335 -0.4623
10056W        W26240   4.984   0.433  12.258 -0.0502  0.0253 -0.0895
10057W        W26241   8.340   3.776   3.470 -0.0337  0.2306 -0.3091
10058W        W26242   7.807   0.044  13.829 -0.1319 -0.0327 -0.6060
10059W        W26243   6.348  10.455  14.553 -0.0422 -0.0194  0.1347
10060W        W26244   0.339   5.217  13.705  0.2028  0.3617 -0.1699
10061W        W26245   6.000  11.827  14.935  0.2200  0.0201  0.0817
10062W        W26246  10.431  17.620   5.299  0.1524 -0.1893 -0.0247
10063W        W26247   1.041   7.504   4.160 -0.1576 -0.2392 -0.1294
10064W        W26248   6.192   5.145   4.119  0.1105  0.0570  0.1920
10065W        W26249   3.099  17.784  12.080  0.1934  0.1803 -0.1862
10066W        W26250   3.372   4.942   1.377  0.0677 -0.1735  0.2886
10067W        W26251   7.031   2.274   2.620 -0.0301  0.3167  0.0558
10068W        W26252  15.061   4.078  12.754 -0.2791  0.0370  0.2219
10069W        W26253   9.203  17.347   3.455 -0.0119 -0.2169  0.0773
10070W        W26254   0.949   6.043   1.857 -0.1411  0.1327  0.1931
10071W        W26255   8.527   2.281   2.905  0.1082  0.0640  0.2162
10072W        W26256   8.524   1.846  11.932 -0.0329  0.5260  0.1361
10073W        W26257  12.166   6.747  14.988 -0.2334  0.0260 -0.0196
10074W        W26258  10.812   5.239  13.826  0.1861 -0.0973 -0.0914
10075W        W26259  11.173   9.467  15.008 -0.0868  0.1074 -0.5059
10076W        W26260   7.745  16.855   3.539 -0.1709 -0.0617  0.4975
10077W        W26261   8.849  15.778   4.893 -0.0312  0.0855 -0.0266
10078W        W26262  10.828   5.115   4.338 -0.3258  0.0060  0.0470
10079W        W26263  14.980   7.181  12.523 -0.1568  0.1516 -0.2180
10080W        W26264  15.165   0.560  12.244  0.0713 -0.1136  0.0101
10081W        W26265  16.775   0.506  11.829 -0.1306  0.0843  0.3193
10082W        W26266   0.937   9.227  11.667  0.1547  0.0906 -0.0810
10083W        W26267   7.242   1.155   5.749  0.1222 -0.1374 -0.1955
10084W        W26268  16.648   6.185  11.609  0.2082  0.2625 -0.0656
10085W        W26269   4.020   7.195  11.986 -0.2351  0.0914  0.1588
10086W        W26270  12.091   7.693  14.017 -0.0955  0.1939  0.0462
10087W        W26271  12.997   3.922   1.092 -0.2186 -0.0090  0.0481
10088W        W26272  10.222   6.764  13.064  0.1972 -0.1802 -0.3677
10089W        W26273  16.112   0.436   3.484 -0.0772 -0.3003 -0.1096
10090W        W26274  13.388  16.576   2.224  0.0828 -0.0071 -0.4726
10091W        W26275  13.972   9.939  11.888 -0.2149  0.1815 -0.1956
10092W        W26276  10.459  17.959   4.757 -0.3223  0.1739  0.0827
10093W        W26277  16.945   0.374  13.846  0.1776  0.1334  0.2360
10094W        W26278   6.460   5.758  13.823  0.0449  0.0691  0.0116
10095W        W26279   5.671   0.385  13.168  0.0606 -0.2932  0.0369
10096W        W26280  16.268  16.058   1.979  0.0067  0.0264  0.0948
10097W        W26281   9.663  16.214  14.089 -0.1313 -0.1195 -0.1231
10098W        W26282   5.348   3.688   2.471  0.2110  0.0515  0.0183
10099W        W26283  12.920   8.863   0.779 -0.2270  0.1483  0.0322
10100W        W26284   2.942  16.064   3.335 -0.0603  0.0536  0.1401
10101W        W26285   9.611   3.545   5.891  0.2920  0.3265  0.0413
10102W        W26286   6.883   8.645   0.017 -0.2170  0.4484 -0.0944
10103W        W26287   2.598  11.400  15.532 -0.3434  0.1956  0.3619
10104W        W26288   5.692   3.872  15.057 -0.1421  0.1328  0.0592
10105W        W26289  17.202   9.479  11.989 -0.0973 -0.5023  0.0503
10106W        W26290  12.508  16.712   2.510  0.0823  0.2280  0.0189
10107W        W26291   4.236   6.144   1.022  0.0135  0.2376  0.1017
10108W        W26292  14.211  13.559  11.712 -0.1722 -0.1132  0.3113
10109W        W26293   9.276   1.475   4.288 -0.1229  0.1821  0.1903
10110W        W26294  15.273  10.263   2.628 -0.0964  0.0137 -0.0559
10111W        W26295   6.321  16.488  14.414 -0.0748 -0.1152  0.0990
10112W        W26296   5.026   7.039   3.905 -0.0010 -0.1680 -0.2328
10113W        W26297   2.393  14.353   3.096 -0.0425  0.3322  0.2855
10114W        W26298   2.969  13.221  15.309 -0.1547 -0.0173  0.0038
10115W        W26299   1.803   0.675  13.111 -0.0951  0.0588  0.0289
10116W        W26300  15.783  10.355   2.530  0.0202  0.2090 -0.0795
10117W        W26301   3.682   7.691   2.813  0.2372 -0.2322  0.2297
10118W        W26302   3.860   9.680   4.526 -0.2008  0.2232 -0.2719
10119W        W26303   2.688   1.473  13.717  0.0422 -0.3224  0.1670
10120W        W26304   4.405   2.229  15.440  0.3324  0.0675  0.1092
10121W        W26305  16.208  10.302  14.514  0.2214 -0.0890  0.2431
10122W        W26306   2.411   7.065   5.011 -0.3964  0.0204 -0.1164
10123W        W26307  15.505   3.066  14.562  0.0295 -0.1868 -0.0606
10124W        W26308   9.079  18.244   4.708 -0.4550 -0.1507  0.0498
10125W        W26309  16.211   1.512  12.420 -0.0401 -0.0229  0.2469
10126W        W26310  15.679  17.187   4.515  0.0742 -0.1981  0.3723
10127W        W26311   6.249   9.969  13.179  0.2127 -0.0830  0.3004
10128W        W26312  17.626  10.082  16.051 -0.0858 -0.1493 -0.1652
10129W        W26313  17.675  11.516  15.928 -0.0587 -0.1085 -0.6140
10130W        W26314   1.765   5.460  12.280 -0.1500  0.2938 -0.1010
10131W        W26315  15.298  17.033   3.743  0.0211 -0.1083  0.0109
10132W        W26316  13.447  18.451  13.808 -0.0282  0.0576 -0.3434
10133W        W26317   1.218   8.155   3.526  0.1518 -0.0885  0.2739
10134W        W26318   8.568   0.287   0.234  0.0913  0.1217  0.0697
10135W        W26319  10.649  12.012  10.855 -0.0791 -0.2243 -0.2017
10136W        W26320   0.045   8.985  11.001 -0.1706  0.2404 -0.1562
10137W        W26321  14.298   0.994  10.815  0.0972 -0.1820  0.1883
10138W        W26322   5.000   8.561   0.076 -0.2001  0.0050  0.0247
10139W        W26323  15.894   7.195  13.105  0.0375  0.1121 -0.0132
10140W        W26324  13.215   4.474   4.753 -0.1061 -0.2853 -0.0815
10141W        W26325  15.089  14.883  14.610  0.1866 -0.1402 -0.4431
10142W        W26326   3.120   4.680  15.612 -0.2876  0.0174  0.1238
10143W        W26327  11.951   8.034   3.812 -0.3150  0.5069 -0.0211
10144W        W26328   8.517  15.743  13.928  0.3513  0.1018  0.0894
10145W        W26329  13.225   9.157   4.260  0.4220  0.0125 -0.0649
10146W        W26330  11.664   7.577   3.057  0.2480 -0.3697  0.1340
10147W        W26331   5.296  14.664   2.565  0.1652  0.2951 -0.3637
10148W        W26332   3.063   4.849  12.005 -0.1049 -0.0885 -0.0686
10149W        W26333  14.446   9.620   0.075 -0.4943  0.1886  0.0966
10150W        W26334   9.715   5.970  15.038 -0.0317 -0.2305 -0.4026
10151W        W26335   0.428   9.440   2.662 -0.0586 -0.0046  0.2622
10152W        W26336   5.413  17.175  14.554  0.3637  0.0748 -0.1118
10153W        W26337   6.742  14.634   1.255 -0.2339  0.2035 -0.3084
10154W        W26338  12.129   5.545  13.106 -0.1067  0.1174  0.0393
10155W        W26339   9.472   3.538  14.150 -0.0193 -0.1878  0.0072
10156W        W26340  12.870  11.066  13.491  0.0984  0.0457 -0.1267
10157W        W26341   6.644  16.855  14.194 -0.3010  0.1265 -0.1075
10158W        W26342   7.776  14.534   6.110  0.2612  0.0616 -0.1740
10159W        W26343  15.651   2.526   4.604  0.1383  0.1123 -0.2602
10160W        W26344   2.420  10.878  15.542  0.0264 -0.1872  0.2730
10161W        W26345   6.569   3.849  11.846 -0.0281 -0.0309  0.2089
10162W        W26346   1.792   6.232   5.299  0.2426  0.1965 -0.1230
10163W        W26347  16.427  14.384   4.328 -0.0396  0.2492 -0.0900
10164W        W26348   8.116   2.881  14.401  0.0096 -0.0192  0.0943
10165W        W26349  15.493   6.865   5.214  0.0461 -0.0738  0.1286
10166W        W26350   0.768  13.013  15.102 -0.0752 -0.1162 -0.0643
10167W        W26351   2.514  12.793   5.774 -0.3006 -0.0015 -0.0815
10168W        W26352  10.186  10.246  14.551 -0.1137  0.0990  0.3102
10169W        W26353  13.560  18.295  11.957 -0.0006  0.3027  0.2616
10170W        W26354  14.025  15.847   2.445 -0.0028 -0.1082  0.2973
10171W        W26355  12.398  14.607  12.038  0.1784  0.0293  0.0120
10172W        W26356  13.027   7.704  12.927 -0.1100 -0.0874 -0.3607
10173W        W26357   2.173   5.558  15.568 -0.0010  0.3200  0.0959
10174W        W26358   7.515  10.008   5.224 -0.0557 -0.1737  0.1502
10175W        W26359   6.190   0.401  11.216  0.1102 -0.1522 -0.0247
10176W        W26360   6.072   1.267   3.946 -0.0620  0.0843 -0.3244
10177W        W26361  13.715  15.139   3.673 -0.0067  0.1138  0.1093
10178W        W26362   7.345   3.897   0.476 -0.2013 -0.2108 -0.1064
10179W        W26363  12.346  14.459   0.591 -0.1070  0.1519  0.4544
10180W        W26364   2.017  14.071   1.430  0.0474  0.2499  0.0592
10181W        W26365  17.809   1.437  13.584 -0.4572 -0.2153  0.1626
10182W        W26366   1.446   9.924   0.597 -0.2725 -0.1979  0.1703
10183W        W26367   0.994   2.141   1.176 -0.3230  0.3157  0.2833
10184W        W26368   9.442  11.314  11.435 -0.0538  0.3583 -0.3214
10185W        W26369   2.870   2.347  13.758 -0.3532  0.1161  0.1494
10186W        W26370  10.498  11.774  15.116 -0.1465  0.0350  0.2186
10187W        W26371   9.907   3.840  13.322 -0.1162  0.0057 -0.2868
10188W        W26372   1.433   8.470  14.724 -0.0047 -0.2482  0.2867
10189W        W26373   6.425   6.636   4.947 -0.1633 -0.1261  0.0220
10190W        W26374   4.671   4.327   3.714 -0.1461  0.3129  0.2471
10191W        W26375  13.882   8.995   2.658 -0.1097 -0.3625  0.0301
10192W        W26376  16.538  12.871  13.273  0.0890 -0.1134  0.4062
10193W        W26377  13.111   7.083   5.142  0.2624 -0.1729 -0.0576
10194W        W26378  18.336   6.464  13.774 -0.0256  0.1340 -0.1784
10195W        W26379   5.713   1.304  15.689 -0.0687  0.0172  0.0530
10196W        W26380   1.452   1.104  11.014 -0.2801  0.2396  0.0513
10197W        W26381  13.566  15.131  12.629  0.1089  0.0212 -0.0051
10198W        W26382   6.996  11.132  14.135 -0.0874  0.2753 -0.1243
10199W        W26383   7.556   1.709  11.919 -0.2132 -0.0740  0.2343
10200W        W26384   3.240   5.183   2.617 -0.0842  0.2134 -0.0291
10201W        W26385   4.413   5.182   2.448 -0.2516  0.1274 -0.0700
10202W        W26386  10.502   7.197   3.281 -0.0016  0.0455 -0.0991
10203W        W26387   4.377   0.601   4.647  0.0943 -0.1190 -0.1369
10204W        W26388   4.848  11.868   2.181 -0.1787  0.0263  0.0291
10205W        W26389  14.149   0.131   0.810  0.3464 -0.1977  0.9144
10206W        W26390   9.866  12.415   1.367  0.1427  0.0179  0.0850
10207W        W26391   5.441   4.987  12.646 -0.2818 -0.0728  0.0920
10208W        W26392  13.843   8.743   5.552  0.3679  0.3527  0.0106
10209W        W26393   3.085  17.735   4.150 -0.1646 -0.2326  0.1904
10210W        W26394   7.991   4.776  14.531 -0.1420  0.1781  0.0067
10211W        W26395  13.173   6.133   3.113 -0.2368  0.2913 -0.2080
10212W        W26396   8.681  14.073   2.518  0.1385  0.1593 -0.0112
10213W        W26397   8.388   0.242   1.554 -0.2006 -0.1040  0.1620
10214W        W26398   1.650   9.797   1.727  0.0169 -0.0753 -0.0691
10215W        W26399   1.241   3.607   2.053  0.0079 -0.3437  0.0627
10216W        W26400  11.922  15.330   0.194 -0.1988  0.1130  0.1299
10217W        W26401  17.193   7.586   3.037  0.2455 -0.1863  0.2292
10218W        W26402   9.557  17.234   0.640  0.0462 -0.0026 -0.1073
10219W        W26403   6.176   9.191  11.985  0.1763  0.3054 -0.0078
10220W        W26404   0.178  14.655  15.512  0.0983 -0.1565  0.1492
10221W        W26405  15.762   4.534   1.053  0.1051 -0.0969 -0.1600
10222W        W26406  17.689   1.740   2.203 -0.1368  0.0409 -0.0488
10223W        W26407   9.576  15.658  13.338 -0.2729 -0.1305  0.0017
10224W        W26408   0.608   5.793  15.918  0.0910  0.0133 -0.3005
10225W        W26409   1.427  15.784  12.296 -0.0717 -0.3561 -0.0502
10226W        W26410  17.300  13.600  15.661  0.2719  0.2474 -0.1681
10227W        W26411   1.120  11.536   0.064 -0.2103 -0.1207 -0.4049
10228W        W26412   3.178  15.388   5.047 -0.0111 -0.2679  0.0329
10229W        W26413  15.845  13.375   4.759  0.0643  0.0116  0.1712
10230W        W26414   0.641   5.864   4.427  0.3708  0.1453 -0.1521
10231W        W26415  17.301   0.251   2.816  0.0543  0.0415  0.0974
10232W        W26416   4.586  17.549   3.074 -0.1684 -0.0528  0.0619
10233W        W26417  18.396  11.129  13.005 -0.0736 -0.0885  0.1359
10234W        W26418  13.911   2.246   0.991  0.1134 -0.2271  0.2008
10235W        W26419  13.787  14.467  14.509  0.1217  0.0868  0.0392
10236W        W26420   9.806   1.265   0.011  0.2162  0.1612 -0.0374
10237W        W26421   8.557  14.717  13.665  0.3650 -0.0678  0.3492
10238W        W26422  16.445   8.544  11.792  0.0950  0.2806  0.1610
10239W        W26423   2.571  10.446   5.907  0.0471 -0.0596 -0.0065
10240W        W26424   5.301   7.618   2.541 -0.3040 -0.0320 -0.1845
10241W        W26425   9.330   3.048  11.661 -0.2361  0.0520  0.0124
10242W        W26426  18.106   9.286  12.417 -0.0885  0.1479 -0.0037
10243W        W26427  12.326   0.526  12.061 -0.1489 -0.2255 -0.0595
10244W        W26428   6.319   3.990   6.080 -0.0806 -0.1479 -0.0124
10245W        W26429   1.086  18.331  15.432  0.2550  0.2779 -0.0915
10246W        W26430  18.286   1.952   5.340  0.0601  0.4548 -0.1214
10247W        W26431  16.860   1.364  14.938  0.1515 -0.0773  0.1995
10248W        W26432   7.018   5.614   1.447  0.0198 -0.4532  0.2398
10249W        W26433  13.231  11.882   0.474  0.0772 -0.0442 -0.1863
10250W        W26434  16.211   5.223   1.730  0.1064 -0.0651 -0.0468
10251W        W26435  14.222   0.851  12.049 -0.1779 -0.1432 -0.1169
10252W        W26436   8.249  12.270   1.915 -0.1116 -0.1902  0.4281
10253W        W26437   6.102  11.096   6.030  0.2262 -0.1042 -0.2147
10254W        W26438  11.225  13.326   6.018 -0.2172 -0.4288 -0.2468
10255W        W26439  12.283  11.776  14.217  0.0161 -0.0128  0.1917
10256W        W26440  14.319   3.047  13.808 -0.0816  0.3282  0.2924
10257W        W26441   4.647  12.544   2.519 -0.1509 -0.2717  0.0057
10258W        W26442   4.229  10.254   3.187  0.1474  0.3920  0.3161
10259W        W26443  12.553   8.851   2.832 -0.2674 -0.1753  0.1718
10260W        W26444  13.235   2.659   1.330  0.0628  0.1531 -0.0261
10261W        W26445  17.979   6.654  15.491  0.1407  0.1837  0.0705
10262W        W26446  17.684  13.242  14.213  0.1577  0.3367  0.0229
10263W        W26447  16.170  10.766   0.508 -0.0925 -0.2195 -0.0090
10264W        W26448  16.642  15.449  15.321 -0.0046 -0.0297 -0.4494
10265W        W26449  14.868   0.829   5.371  0.2561  0.0195  0.0823
10266W        W26450   2.459  18.248  15.169  0.1617 -0.1455 -0.1611
10267W        W26451   2.931  10.069   2.973 -0.3331  0.1220  0.2885
10268W        W26452   1.787  16.763   3.420  0.2911  0.1761  0.0313
10269W        W26453   7.552   1.011  14.448  0.1791 -0.0977 -0.2062
10270W        W26454   5.113  17.889   5.582  0.0280 -0.3457  0.0124
10271W        W26455   0.110  14.323  14.148 -0.1111 -0.0566  0.1520
10272W        W26456   0.127   2.629  11.896 -0.0955 -0.1063 -0.0726
10273W        W26457   1.207  12.536  14.329 -0.1198  0.1491  0.0286
10274W        W26458   9.042  13.642   3.252  0.0556  0.1126  0.1280
10275W        W26459   9.907   2.988  13.129  0.0753 -0.2981  0.1249
10276W        W26460  16.246  14.341  14.804  0.1096  0.1826 -0.0836
10277W        W26461   7.371  15.334   1.482  0.1327  0.1737  0.0104
10278W        W26462   2.137  18.518   2.226 -0.4830  0.3190  0.0921
10279W        W26463   0.560  13.104  11.317  0.2447  0.3499  0.1014
10280W        W26464   1.177   0.798   4.264  0.0835 -0.1231  0.0233
10281W        W26465   6.389  13.384   1.042  0.1789 -0.0258 -0.2865
10282W        W26466  16.909   1.290  13.100  0.0833 -0.0429  0.3588
10283W        W26467   2.249  13.870  13.197 -0.1045 -0.2501  0.0766
10284W        W26468   7.712  17.348   4.350 -0.0460 -0.0122  0.1564
10285W        W26469  13.393  10.726   2.653  0.2237  0.0773  0.1935
10286W        W26470   5.479   9.229   1.766 -0.3902  0.0374  0.0211
10287W        W26471  16.334  11.580   5.595 -0.0273  0.3924  0.0760
10288W        W26472   1.609   1.016   3.752 -0.2710 -0.0292 -0.1091
10289W        W26473   6.032  14.609  14.228  0.0090 -0.1903 -0.1084
10290W        W26474   2.267  11.821  12.110  0.1163  0.0286  0.1284
10291W        W26475   9.172  11.607   1.324  0.1427  0.0693  0.2319
10292W        W26476  18.381   2.692   2.902  0.1589 -0.3742 -0.1099
10293W        W26477   6.356   9.790   4.602 -0.0096 -0.3081  0.2128
10294W        W26478   7.769  18.434   2.251 -0.0921  0.4595  0.1273
10295W        W26479  12.792   0.538  11.280  0.4062  0.0957 -0.0110
10296W        W26480   3.282   6.087   4.692 -0.2016  0.3044  0.2439
10297W        W26481  14.579   1.055   4.505 -0.0555 -0.0709  0.3916
10298W        W26482   2.621  14.869  11.504 -0.2005 -0.2935  0.1511
10299W        W26483  10.977  13.277   3.181  0.1479 -0.0745 -0.0423
10300W        W26484  11.070   2.301   3.687 -0.0115 -0.2598 -0.4370
10301W        W26485   8.998  15.791   3.512  0.0913  0.0404 -0.2501
10302W        W26486   5.500  11.883   2.839 -0.1101 -0.0508 -0.0639
10303W        W26487  10.607   5.220   5.709 -0.1194  0.2034  0.0560
10304W        W26488  11.260   4.537   1.549 -0.1745 -0.0038 -0.0318
10305W        W26489   5.053  11.491  13.878 -0.0740 -0.0815  0.0330
10306W        W26490   6.044  17.118   3.205  0.1479  0.0090 -0.1359
10307W        W26491  13.543   9.645  13.813  0.1852  0.1877 -0.2101
10308W        W26492  13.009   5.135  13.409 -0.2204 -0.2654 -0.0896
10309W        W26493   1.788  15.771   4.164  0.0300  0.1358  0.2591
10310W        W26494   5.138  15.239   0.605 -0.0458  0.1563  0.2098
10311W        W26495   7.231   7.899  11.262 -0.3423 -0.1494  0.0113
10312W        W26496   9.450  16.012  13.729  0.0228  0.3260  0.0345
10313W        W26497   6.519   0.640   4.425  0.0163 -0.1847 -0.0961
10314W        W26498   5.596  14.771  14.112  0.0545 -0.1886 -0.2981
10315W        W26499   7.965   0.745   3.817  0.0687  0.1648 -0.3530
10316W        W26500  11.060   1.595  11.917  0.1717 -0.1067  0.0314
10317W        W26501  13.662  15.820   0.467  0.1467  0.0399 -0.0073
10318W        W26502   7.063  18.033  15.379  0.2399  0.1888  0.1632
10319W        W26503   6.660   2.292   2.218  0.0908  0.0119 -0.0078
10320W        W26504  13.939  14.443  11.296  0.1161  0.1000 -0.2821
10321W        W26505  15.234   2.756  13.681 -0.0296 -0.3425  0.2928
10322W        W26506  18.490  14.551  11.058  0.2932 -0.1307 -0.4304
10323W        W26507   9.074   3.061   1.714 -0.0352 -0.1433 -0.0518
10324W        W26508  16.490   0.585  15.220  0.1672 -0.1480  0.4475
10325W        W26509  14.664  10.540  15.870 -0.1256  0.0022  0.1459
10326W        W26510   0.783  11.484   3.156 -0.0492  0.0700  0.2000
10327W        W26511   6.135   7.592  15.139  0.1611  0.1305  0.0061
10328W        W26512   7.150  10.663   0.300 -0.0730 -0.2436  0.0772
10329W        W26513   5.196   4.959   1.616  0.1834  0.0629  0.1716
10330W        W26514   9.295   3.715   5.549  0.0680 -0.2657  0.0376
10331W        W26515  18.281   3.219  13.477  0.2029 -0.4352  0.2571
10332W        W26516  16.379   2.735  11.233  0.5051 -0.0949 -0.0981
10333W        W26517   5.034  12.684  13.693 -0.0248 -0.4203 -0.0160
10334W        W26518  10.526   2.277   1.399  0.0304 -0.0405  0.2849
10335W        W26519  12.598   8.888  14.527  0.0255  0.1289 -0.1603
10336W        W26520  11.100   3.400  15.754  0.1692  0.0540  0.3116
10337W        W26521  17.171   8.654  15.953  0.2796  0.0996  0.4773
10338W        W26522  14.149  17.516  12.001  0.0301  0.2113  0.3060
10339W        W26523  10.353  15.172  13.121  0.2639 -0.2316 -0.1353
10340W        W26524   7.947  12.116  13.799  0.2031  0.1078 -0.0832
10341W        W26525   3.895   8.009  13.717  0.1555  0.1034  0.3038
10342W        W26526   3.855   0.782   3.159  0.1947  0.0153 -0.0979
10343W        W26527   2.139   0.227  12.040  0.0595  0.1668  0.3438
10344W        W26528   9.868   0.358   3.249 -0.0683  0.2952 -0.2840
10345W        W26529  10.332   7.774  13.086  0.1212 -0.2163  0.0728
10346W        W26530  14.746  13.667  11.795 -0.0282 -0.0605 -0.0604
10347W        W26531  15.305   9.853  15.636 -0.3365 -0.0951  0.1980
10348W        W26532  18.339   0.474   5.092  0.0105  0.1441  0.2624
10349W        W26533   3.544   7.065   0.856 -0.1845  0.1910  0.1799
10350W        W26534   6.685  13.770   3.648 -0.3063 -0.2213  0.0833
10351W        W26535   9.448  12.933  13.162 -0.1965 -0.0398 -0.1657
10352W        W26536   4.886  11.243   5.592  0.1357  0.0628  0.2179
10353W        W26537   6.251   6.327   5.448 -0.3526 -0.1696  0.5806
10354W        W26538   7.027   9.135   1.995 -0.2028 -0.0404 -0.4029
10355W        W26539  15.129   5.145  10.908 -0.2230  0.1394 -0.1797
10356W        W26540  17.894  12.359   4.596 -0.1204 -0.4532 -0.0604
10357W        W26541   7.889   8.594  13.707 -0.0813 -0.0625 -0.0009
10358W        W26542  14.735   9.121   4.478 -0.0014 -0.1710 -0.1156
10359W        W26543   4.696   5.134   0.293 -0.1750 -0.0591 -0.0040
10360W        W26544  11.429  12.119  12.034 -0.0488  0.1444  0.4343
10361W        W26545  16.106  14.963   1.091 -0.2128 -0.0708 -0.0507
10362W        W26546   3.251   9.754  12.024 -0.1490  0.2623  0.0473
10363W        W26547  10.687  12.741   3.075 -0.0076 -0.0215  0.1813
10364W        W26548   4.386   2.166  12.272 -0.2747  0.1213  0.0520
10365W        W26549   6.898  14.013  14.677 -0.1355  0.0371  0.0189
10366W        W26550   9.388   9.065   4.144  0.0372 -0.4033 -0.0163
10367W        W26551  15.558  10.548  13.126  0.2126  0.2730 -0.1675
10368W        W26552   3.007  17.887  15.556  0.1422  0.0671  0.0926
10369W        W26553  11.503  11.021  12.916 -0.0298 -0.3636 -0.0091
10370W        W26554  14.400   5.175   5.409 -0.2430  0.0880 -0.1545
10371W        W26555   5.722   4.317  13.264  0.1416 -0.3012 -0.0126
10372W        W26556   2.905   3.147   5.600 -0.1964  0.3770 -0.0023
10373W        W26557   0.855  16.007   4.860 -0.1568  0.0083 -0.0569
10374W        W26558  17.912   5.445   3.430 -0.1530 -0.2396  0.1809
10375W        W26559   7.983  14.195   0.179  0.0927  0.4131 -0.0874
10376W        W26560   5.584   2.972  11.861 -0.0412 -0.0540 -0.1471
10377W        W26561  18.274   6.406   1.076  0.2873 -0.0562  0.1761
10378W        W26562  16.036   5.640   2.203  0.0612 -0.1967  0.4177
10379W        W26563   2.919  14.277   1.712  0.1791 -0.0889  0.1116
10380W        W26564   5.448   5.799  12.883 -0.2165 -0.3074  0.2956
10381W        W26565   5.362  16.468  12.033 -0.3233  0.0353  0.0017
10382W        W26566   3.323  15.456   2.303 -0.1549 -0.1490 -0.0470
10383W        W26567  13.180   1.904   3.658 -0.1210  0.0043 -0.2158
10384W        W26568   7.915   8.071  13.818  0.1606 -0.1639  0.0403
10385W        W26569   6.424  13.708   4.743 -0.1580  0.1011 -0.4077
10386W        W26570   6.331   9.706  14.834 -0.1308 -0.1494 -0.0559
10387W        W26571   5.693   4.514   5.199  0.1315  0.2636 -0.0447
10388W        W26572  14.256  14.435   3.341 -0.1852  0.2638  0.1700
10389W        W26573   6.832   0.989  10.995  0.0425 -0.2890  0.0793
10390W        W26574   8.798   3.304   0.101 -0.1070 -0.0418 -0.0909
10391W        W26575   1.200  17.836   2.793  0.0567 -0.0743  0.2554
10392W        W26576  16.774  12.354  14.278  0.0927 -0.0251  0.1336
10393W        W26577  17.557   6.503  15.245  0.1044  0.0852 -0.1078
10394W        W26578   2.584   9.260  12.491  0.1017 -0.0290 -0.2026
10395W        W26579   3.979   5.298  10.914 -0.3935 -0.0294  0.2058
10396W        W26580  11.751   6.619   4.907 -0.0549 -0.2153  0.4024
10397W        W26581  15.641   8.987  16.006 -0.2134  0.2231 -0.4030
10398W        W26582   2.147   0.914   4.140 -0.0578  0.0754 -0.0585
10399W        W26583  15.005  12.065   3.289  0.2024 -0.0058 -0.0827
10400W        W26584   0.080   1.998   2.268  0.1671 -0.0753 -0.0088
10401W        W26585  17.295  14.193   2.504  0.2187 -0.1276  0.4393
10402W        W26586   4.722  16.210   3.330  0.0450  0.2448 -0.0606
10403W        W26587   4.542   8.082   0.397  0.1225  0.0096  0.1115
10404W        W26588   1.835  15.434  12.526  0.3366 -0.0241  0.1781
10405W        W26589   9.598  14.730  13.478 -0.2020  0.1632  0.3589
10406W        W26590  15.503  11.825  13.648 -0.3541 -0.1283  0.2697
10407W        W26591   6.292  12.452  15.669  0.4902  0.2771  0.2821
10408W        W26592   0.242   8.431   4.794  0.0647  0.0671 -0.2021
10409W        W26593  15.187   4.816  14.617  0.1953  0.3079 -0.1035
10410W        W26594   7.735  15.447   0.419 -0.1505  0.0263 -0.0400
10411W        W26595   9.240  10.700   3.519  0.0019  0.0635 -0.0991
10412W        W26596   4.039   8.901   0.363 -0.1333 -0.0403  0.0498
10413W        W26597   6.937  12.898   1.633  0.1100  0.1189  0.0805
10414W        W26598  12.427   7.445  15.500  0.1776  0.1528  0.1494
10415W        W26599   4.734   1.576  15.883 -0.0207  0.2513  0.0137
10416W        W26600   5.075  12.147   3.086  0.0441  0.0317 -0.0904
10417W        W26601  10.944  14.582  15.204 -0.1927  0.1027 -0.2126
10418W        W26602   0.559   7.929  11.069  0.3463  0.2556 -0.1524
10419W        W26603   5.405   3.452  11.290  0.3573 -0.4123 -0.0703
10420W        W26604  14.572  11.611  14.961 -0.2104 -0.0295  0.0282
10421W        W26605   5.256   8.384   1.691 -0.0890 -0.1297  0.1685
10422W        W26606   2.662   9.948  15.347 -0.2957 -0.0316 -0.0624
10423W        W26607   8.710   4.391  13.111  0.0298 -0.0012  0.1600
10424W        W26608   9.404   7.761   0.612  0.1161  0.2111  0.1411
10425W        W26609  12.538  15.785   3.550 -0.1725  0.3747 -0.0753
10426W        W26610  13.039  14.626   1.355  0.3409 -0.1781  0.2253
10427W        W26611  16.102  10.070  15.984 -0.1465 -0.0520  0.2347
10428W        W26612   2.141   6.285  14.279 -0.0193 -0.0054 -0.1653
10429W        W26613  11.487  11.472  12.736 -0.0926 -0.0285  0.0423
10430W        W26614   8.786  12.032   3.724  0.1234 -0.0972  0.0219
10431W        W26615   0.273  18.224   2.893 -0.1251  0.2146  0.0402
10432W        W26616   7.404   4.875  12.792 -0.0732  0.0027 -0.2989
10433W        W26617   5.992  15.845   4.167 -0.0886  0.1074 -0.1588
10434W        W26618  11.902  11.652  13.544  0.1539 -0.1678  0.0122
10435W        W26619   2.643  14.698  13.134  0.0844  0.2027  0.1011
10436W        W26620  14.589   0.498  11.022 -0.2785  0.1896 -0.4466
10437W        W26621   7.479  14.126  11.737  0.1482 -0.0447 -0.0644
10438W        W26622  13.156   2.752   4.852  0.0150 -0.0882 -0.0292
10439W        W26623   8.041  16.155   0.885  0.1764  0.0130 -0.0969
10440W        W26624   0.135   7.141  11.866 -0.2630 -0.0336  0.3557
10441W        W26625  12.658   0.325   2.500  0.0347  0.0301 -0.5378
10442W        W26626  10.466   6.806  12.041 -0.0463 -0.0710 -0.3800
10443W        W26627   3.183  13.719   3.000  0.0966  0.0228 -0.2231
10444W        W26628  18.185   2.130  15.708 -0.0990 -0.1788 -0.1164
10445W        W26629  13.281  11.107   2.951 -0.1908 -0.2735 -0.0942
10446W        W26630   8.607   0.762  15.678  0.0139 -0.0186  0.2673
10447W        W26631  18.086   5.006   3.064 -0.0254  0.2485 -0.4495
10448W        W26632   1.899   4.828  14.243  0.0276 -0.1866 -0.1964
10449W        W26633   6.390   2.624   4.670  0.2475  0.1070 -0.2925
10450W        W26634   2.728  16.908   3.427 -0.0652  0.3974 -0.1771
10451W        W26635   1.861   1.344  11.473 -0.1966  0.1521 -0.0001
10452W        W26636   3.478   6.884   3.911 -0.2111  0.3578 -0.0518
10453W        W26637  18.418  13.167   6.058 -0.1107 -0.1842  0.0887
10454W        W26638   4.800   1.193  13.388  0.0132  0.1002  0.1750
10455W        W26639   2.154   2.923  12.260 -0.1117 -0.3597 -0.1705
10456W        W26640   7.252  10.234   3.956  0.0124  0.3293 -0.0207
10457W        W26641  14.708  17.395   4.796  0.0440 -0.0046  0.0853
10458W        W26642   3.595  17.842   4.325  0.0060 -0.1152  0.0394
10459W        W26643  12.639  17.232   2.228 -0.0002  0.0016  0.0921
10460W        W26644  11.017  10.586   0.938 -0.0716  0.0104 -0.3499
10461W        W26645   2.531  16.832  13.214 -0.1811 -0.1318 -0.1581
10462W        W26646  10.624   2.916   2.529 -0.0204 -0.2391 -0.1182
10463W        W26647  18.171   6.620  13.365  0.0683 -0.1038 -0.0085
10464W        W26648  11.690  10.276  14.052 -0.4575  0.1760 -0.3033
10465W        W26649   4.695   8.933  11.444  0.1391  0.0687  0.1015
10466W        W26650  15.602  12.849   2.271  0.0521 -0.2626  0.0331
10467W        W26651   6.770   6.948   2.452 -0.1531 -0.0574  0.1142
10468W        W26652  10.739  18.145   0.503  0.1124 -0.0797  0.0437
10469W        W26653  12.827  18.382   2.991 -0.0202 -0.1077 -0.3432
10470W        W26654  16.627  10.233  15.845  0.2516 -0.0224  0.2337
10471W        W26655  14.624  12.394   5.568  0.2399 -0.1884  0.3698
10472W        W26656   3.317   0.481  13.852 -0.2855 -0.2242 -0.3352
10473W        W26657   1.189   5.003   4.004  0.1318 -0.2858  0.0766
10474W        W26658  18.192   6.129   2.009 -0.1076  0.0365  0.1469
10475W        W26659  11.157  13.705   0.759 -0.0631 -0.1549  0.3706
10476W        W26660  14.663  17.074   2.114  0.0597  0.1542  0.0540
10477W        W26661   2.495   0.222   3.165  0.1474 -0.1921  0.2423
10478W        W26662  11.702  12.176   4.506  0.0233  0.0460 -0.1636
10479W        W26663   9.818  12.283   0.867  0.3327 -0.0207 -0.1759
10480W        W26664   4.226   3.182  13.124 -0.1478 -0.0577  0.4017
10481W        W26665  18.337   2.389  12.265 -0.2121  0.2132 -0.0188
10482W        W26666   1.999  12.115  11.370  0.0976 -0.3227 -0.1087
10483W        W26667  17.406   8.468  15.104 -0.2225 -0.2562  0.0356
10484W        W26668  10.734  17.136  14.004  0.0263  0.0288  0.0431
10485W        W26669  11.050   6.552   0.646 -0.1955  0.0085  0.0296
10486W        W26670  16.915  10.170   0.999 -0.2346  0.2743 -0.0155
10487W        W26671  12.678  10.534  15.561 -0.1618 -0.0738 -0.2490
10488W        W26672  10.018   2.386   2.778  0.2002  0.0152 -0.1698
10489W        W26673   3.878  14.152   1.535 -0.0771  0.3746  0.2407
10490W        W26674   9.078  12.553   1.791 -0.2681  0.2063 -0.2628
10491W        W26675   6.284   5.496   2.865  0.3996 -0.0927 -0.1788
10492W        W26676  10.629  16.269  14.501 -0.1256  0.0234 -0.1005
10493W        W26677  15.152   1.387   0.290 -0.3735 -0.0427 -0.3522
10494W        W26678  17.474  18.031  14.093  0.0113  0.1907 -0.2451
10495W        W26679  18.194   8.481   4.013  0.2014 -0.3243  0.3247
10496W        W26680   1.407  16.586  14.774 -0.2344  0.3446  0.0071
10497W        W26681  16.260   5.070   2.179  0.1775 -0.0187 -0.2242
10498W        W26682  11.912  12.625  11.174 -0.1677 -0.0242 -0.0563
10499W        W26683   1.679   0.337  11.871 -0.4413  0.1357 -0.0759
10500W        W26684  11.141   2.123  15.939  0.1366  0.1009 -0.0538
10501W        W26685   3.680  13.306  14.219  0.0543  0.2322  0.0991
10502W        W26686  17.035   1.128   0.003  0.0011  0.0059  0.1704
10503W        W26687  15.505   3.012   2.252  0.0344  0.1338  0.1822
10504W        W26688  18.415  15.930  12.031  0.1380  0.1264  0.1861
10505W        W26689  18.254   5.245  15.628 -0.0243 -0.2167  0.0526
10506W        W26690   1.966   5.632  11.873  0.1410 -0.0513  0.0756
10507W        W26691   6.213  15.367  15.770 -0.2267 -0.1570  0.5036
10508W        W26692   7.743  17.352  14.598  0.1571  0.2020  0.3706
10509W        W26693  17.112  10.587  10.652 -0.0805  0.0602  0.2196
10510W        W26694   8.227   2.336   5.567  0.0270 -0.0779  0.2264
10511W        W26695   0.306   7.789   2.969  0.2237 -0.0714  0.1220
10512W        W26696  13.667  10.729  16.131  0.0520  0.2761 -0.0229
10513W        W26697  10.707  14.493   1.498 -0.0681 -0.1783  0.1572
10514W        W26698  11.472  17.641  14.097 -0.2813 -0.1058 -0.0188
10515W        W26699  16.874   3.715   1.164 -0.1135 -0.0158 -0.1698
10516W        W26700   5.832   1.975   4.119 -0.0782 -0.1466 -0.0704
10517W        W26701  15.944  18.275   0.456 -0.1748  0.0588  0.2774
10518W        W26702  14.843   4.528  15.807  0.0320 -0.0715 -0.1367
10519W        W26703  17.397   7.940  14.623  0.0296  0.1310 -0.1303
10520W        W26704   1.595   7.054  12.480 -0.1538  0.1723 -0.1248
10521W        W26705   8.904  15.080  13.279 -0.0628  0.0017  0.3130
10522W        W26706  14.577   1.108   5.568  0.1953 -0.2698  0.1919
10523W        W26707   7.978   2.156   4.741 -0.0472  0.1226 -0.0901
10524W        W26708  17.163   9.462   6.166  0.0841  0.2194 -0.2150
10525W        W26709   8.365   4.460  10.613  0.0105 -0.2688  0.0809
10526W        W26710  10.904   9.481  14.582 -0.1231  0.2973  0.0490
10527W        W26711  13.661   8.286   0.756 -0.1363  0.0685 -0.0066
10528W        W26712   0.510  11.554   0.184 -0.1375 -0.1888  0.3072
10529W        W26713   9.519   9.885  15.195  0.0417 -0.0187 -0.0949
10530W        W26714  10.107  18.128   1.812  0.0680  0.1086 -0.3934
10531W        W26715  16.805  17.160   1.643 -0.0702 -0.2583  0.1351
10532W        W26716  14.307   9.793   0.524 -0.0485 -0.1534  0.0703
10533W        W26717   0.975  13.865  14.224 -0.1149 -0.1068  0.1032
10534W        W26718  17.812   8.005   2.332 -0.4316 -0.0164  0.2157
10535W        W26719   1.897   2.986   4.136 -0.1461  0.1905 -0.3102
10536W        W26720   8.357  12.681   3.640  0.0526 -0.3179 -0.1326
10537W        W26721  16.435   3.746  12.594  0.0491  0.0804 -0.0053
10538W        W26722   9.350   9.896   3.027 -0.2324  0.2411 -0.1026
10539W        W26723  13.510   6.397   3.941  0.0257  0.2606 -0.1692
10540W        W26724  11.727  16.978   6.438  0.1589  0.1597 -0.0386
10541W        W26725  10.130  10.290   1.865 -0.1666  0.0584  0.1913
10542W        W26726   9.355  14.952   2.392 -0.0136 -0.1026 -0.3494
10543W        W26727   5.019  15.222   1.093  0.2211 -0.1399  0.0244
10544W        W26728   7.702   0.375   2.719  0.2019 -0.0775  0.1466
10545W        W26729  16.464  17.907   4.592  0.0773 -0.0934 -0.4485
10546W        W26730  12.133   8.166   0.617 -0.2476  0.0610 -0.0300
10547W        W26731   5.825  12.044   0.148  0.0336  0.0512 -0.0824
10548W        W26732   7.219   9.905   2.102  0.4847  0.0908 -0.0863
10549W        W26733  17.722   3.919   5.027  0.0549 -0.1407  0.1245
10550W        W26734   4.582  12.162  11.938 -0.1503 -0.2387  0.1275
10551W        W26735   8.328   7.546  11.765  0.1916 -0.0294  0.1104
10552W        W26736   5.479  16.803   1.946 -0.0112 -0.1998  0.2393
10553W        W26737   1.794   7.645  13.465  0.3765 -0.1692 -0.2941
10554W        W26738   0.597   0.557  15.573  0.2600  0.3943  0.1712
10555W        W26739   8.468   9.050  14.811  0.0071 -0.0776 -0.0943
10556W        W26740  14.844   1.283   4.016  0.2125  0.1036 -0.0917
10557W        W26741   4.389  12.357  12.843  0.0717  0.0089  0.0075
10558W        W26742  10.516   4.718   1.061  0.1137 -0.3461 -0.1824
10559W        W26743  10.208   1.695   3.547  0.2583 -0.2635 -0.1165
10560W        W26744   1.210  13.913   2.114  0.0448  0.1262 -0.0832
10561W        W26745  17.685  16.802  16.018  0.0906 -0.0852  0.0208
10562W        W26746  18.509   2.942  13.941 -0.0179 -0.0246 -0.0958
10563W        W26747  11.164  15.466  15.829 -0.0177 -0.0636  0.2047
10564W        W26748  18.208   6.978   3.947 -0.0766  0.0502  0.1581
10565W        W26749   1.692  18.043  12.777  0.0045 -0.0029 -0.0410
10566W        W26750   8.308   4.528   1.226 -0.2433  0.1600 -0.2370
10567W        W26751  15.066   4.233  11.806  0.1122  0.2249 -0.2814
10568W        W26752  10.370  17.588   3.375 -0.1197 -0.0842 -0.0338
10569W        W26753   7.474  13.692  14.735 -0.0225 -0.1019  0.1350
10570W        W26754  15.854  11.068   3.659  0.1176 -0.1022  0.2371
10571W        W26755   0.157   5.501   2.887 -0.0833  0.2173  0.2855
10572W        W26756   8.274  17.291   2.438  0.0075  0.0962 -0.1903
10573W        W26757   9.589  15.240   4.002  0.0838 -0.2044  0.3724
10574W        W26758   2.949  11.443   4.755  0.0184  0.0119  0.0354
10575W        W26759   5.727   0.737   1.767  0.0208  0.0120 -0.1367
10576W        W26760   6.879   3.656   3.928  0.0143 -0.2023 -0.2552
10577W        W26761   4.751   5.522   0.741  0.0410  0.0598  0.1110
10578W        W26762   0.094  17.512  14.995  0.3381 -0.1420  0.2178
10579W        W26763  11.519   3.318   0.238 -0.2402 -0.0698 -0.3535
10580W        W26764   7.506   9.864  12.670 -0.3703  0.1135 -0.0714
10581W        W26765  11.460   1.174  13.804 -0.0789 -0.0630  0.0716
10582W        W26766   5.071   4.524  14.643  0.2457 -0.3278  0.2863
10583W        W26767  18.174  15.508   3.545  0.0650 -0.1521 -0.2138
10584W        W26768   1.762   1.210   2.722 -0.0265  0.0281  0.0210
10585W        W26769  15.691  12.376   4.583  0.0633  0.1102  0.0185
10586W        W26770   4.376  13.102   0.719 -0.2923 -0.1886 -0.1200
10587W        W26771   5.451   5.013   1.128 -0.0995 -0.1475  0.2265
10588W        W26772  15.433  18.435  15.982 -0.0764  0.2061 -0.2724
10589W        W26773  15.583   0.725   4.049  0.1322 -0.0736 -0.0639
10590W        W26774   3.405  16.917  15.530 -0.0523 -0.3336 -0.2595
10591W        W26775   6.455  11.388   5.683 -0.0339  0.1465 -0.2023
10592W        W26776  14.850   9.598  14.951  0.0165 -0.0717  0.2667
10593W        W26777   7.879   0.125   0.447  0.0405  0.0953 -0.3716
10594W        W26778   4.732   1.836   1.923 -0.0407  0.1398 -0.2119
10595W        W26779   1.309  12.426   1.288  0.1700 -0.0191 -0.1235
10596W        W26780   6.148   1.013   1.698  0.1807 -0.0071 -0.1833
10597W        W26781  16.464  12.337   0.681  0.1009  0.3114 -0.3209
10598W        W26782  18.225  11.535  15.926 -0.3743  0.0231 -0.2477
10599W        W26783  12.552  16.530   0.491 -0.2426  0.1582 -0.1578
10600W        W26784  18.071   4.508  15.043 -0.0395 -0.0208 -0.4440
10601W        W26785   2.362   3.393  14.812 -0.1175  0.1149 -0.1478
10602W        W26786  14.539  17.425   2.629 -0.0522 -0.1630 -0.0856
10603W        W26787  17.998  14.945  15.097  0.0267  0.2547  0.2268
10604W        W26788   5.353   6.646   3.187  0.0812  0.1922  0.2622
10605W        W26789   5.870   6.550   0.408  0.0504  0.0846 -0.0721
10606W        W26790  10.709   9.171  13.572  0.0438  0.0916 -0.1108
10607W        W26791   1.136  14.519   3.681  0.0185  0.0299  0.0129
10608W        W26792   9.022   2.586   5.132  0.3607  0.0055 -0.1125
10609W        W26793  13.807  13.060   0.109  0.0131 -0.1133 -0.0829
10610W        W26794   6.610  10.833  13.245 -0.3768 -0.0567  0.1071
10611W        W26795   0.370  13.721  13.657  0.1983 -0.3271 -0.0819
10612W        W26796   7.275  15.603  12.622 -0.1317  0.1962 -0.3331
10613W        W26797  18.252  15.366  14.950 -0.1870 -0.1604  0.0968
10614W        W26798  12.351   1.944  13.087  0.1006  0.3055  0.4144
10615W        W26799  11.234  15.224   1.216 -0.1537 -0.2754  0.4393
10616W        W26800   5.966   3.675  14.185  0.1278  0.0949  0.1761
10617W        W26801   2.028  10.304  12.473 -0.1814  0.0963 -0.1101
10618W        W26802   1.881   9.404  15.680 -0.3114  0.0901 -0.1192
10619W        W26803   0.272   6.476  11.580 -0.0214 -0.0409  0.0099
10620W        W26804  18.164   2.394   2.480 -0.0368 -0.2368  0.0730
10621W        W26805  11.593   0.814  14.861  0.2491  0.1027 -0.0730
10622W        W26806  12.372  12.006  11.528 -0.0141  0.1349 -0.0351
10623W        W26807   3.773  18.326   1.624  0.0862  0.3505  0.1099
10624W        W26808   3.928   2.128   1.345 -0.1074  0.0093 -0.0875
10625W        W26809   7.684  14.620  15.561  0.2893 -0.3373 -0.2868
10626W        W26810  12.608  11.570  12.386  0.1670  0.2734 -0.1279
10627W        W26811   2.163   8.604  15.978  0.2121 -0.0080 -0.0609
10628W        W26812  12.956   6.301  14.659  0.0193  0.1049  0.0907
10629W        W26813   1.300  12.764  11.357  0.0219  0.0243  0.0433
10630W        W26814  15.990   3.395  11.330  0.1574 -0.2518 -0.0822
10631W        W26815  17.827  11.675   1.790  0.0035  0.1538 -0.0711
10632W        W26816  13.677  14.090   0.138 -0.1185  0.0575  0.2091
10633W        W26817   0.288   9.007  14.634 -0.1576 -0.0341  0.0751
10634W        W26818   5.737  12.271  12.027  0.0774 -0.1333  0.1288
10635W        W26819  12.813  14.523  11.090  0.1376 -0.1543 -0.1032
10636W        W26820   5.125  13.520   5.953 -0.0574  0.0656 -0.0959
10637W        W26821  14.492   6.128   2.399  0.3400  0.0410 -0.0003
10638W        W26822  15.044   2.667   0.542  0.2324 -0.0032 -0.0655
10639W        W26823  14.198   4.112   5.688  0.1233  0.1833  0.0157
10640W        W26824  17.066  17.541   1.480 -0.3033 -0.0087 -0.2138
10641W        W26825   3.328  14.511   5.932 -0.0642 -0.1881 -0.0279
10642W        W26826   9.427  11.483   4.404 -0.3940  0.3368 -0.2194
10643W        W26827  13.732  13.624   4.658  0.2208 -0.1346 -0.1155
10644W        W26828   3.712  18.308   3.469  0.4654  0.1663  0.2494
10645W        W26829   4.648  13.495   2.513 -0.4212  0.0472  0.0009
10646W        W26830   1.611  11.345  12.614  0.1839 -0.2430 -0.0783
10647W        W26831   1.090  13.052   0.895  0.0055  0.3601 -0.3300
10648W        W26832  16.668   7.524   5.605 -0.1549 -0.0811  0.0522
10649W        W26833   1.081  14.196  15.943  0.2943  0.0866 -0.1135
10650W        W26834   1.628   6.609   3.258  0.0910  0.0303 -0.1940
10651W        W26835   2.529   7.533   4.686 -0.2352 -0.2008 -0.1167
10652W        W26836   1.852   1.361   0.596 -0.2187  0.1072 -0.0750
10653W        W26837  14.923  13.390   5.915  0.1707  0.0063  0.1508
10654W        W26838   6.743  14.468   3.559 -0.3401  0.3180 -0.0057
10655W        W26839  16.159  16.113   2.477  0.1564  0.0237 -0.0578
10656W        W26840  18.000   4.856   5.315  0.2667  0.1721 -0.0996
10657W        W26841   2.832   1.072  14.056  0.1036  0.0516 -0.0819
10658W        W26842   9.785  15.901   5.413 -0.1627 -0.2320 -0.3603
10659W        W26843   6.538  18.177  15.192  0.3073 -0.0428  0.1135
10660W        W26844   7.725   0.118  10.896  0.1384 -0.0462  0.0136
10661W        W26845   1.190   8.927   1.209  0.1910  0.3674  0.0609
10662W        W26846  15.706   3.981   4.960  0.2743 -0.1762  0.1334
10663W        W26847   3.069  16.492   1.812  0.0223  0.2236  0.1421
10664W        W26848   5.202   0.772  13.049  0.0842 -0.0432 -0.1176
10665W        W26849   1.961   9.022   1.436 -0.0846 -0.1064  0.0023
10666W        W26850   0.396   8.034  15.778  0.0740  0.0526 -0.0657
10667W        W26851   3.162   5.189  15.496 -0.0036  0.2361  0.1320
10668W        W26852  14.105   0.954  12.950 -0.1612 -0.0720 -0.0257
10669W        W26853  16.781   0.489   0.949  0.0231  0.1557 -0.1877
10670W        W26854  17.043  10.292  14.259  0.0520 -0.3013 -0.2048
10671W        W26855  11.539   0.687  15.789  0.2609 -0.3046 -0.1532
10672W        W26856   0.954   5.959   3.356  0.0322 -0.0004  0.0425
10673W        W26857   1.514   1.768  12.816  0.1681  0.2829 -0.3551
10674W        W26858  16.220   8.487   3.273  0.2066 -0.1930 -0.1719
10675W        W26859   1.482  12.639   3.597 -0.1584  0.1896 -0.0158
10676W        W26860  17.002  16.088   3.572  0.0154  0.1471 -0.0657
10677W        W26861   4.435  10.037   1.190 -0.3365  0.0489 -0.3171
10678W        W26862   8.748   3.789  14.726 -0.2504 -0.0576  0.0033
10679W        W26863  11.986   9.032  11.955  0.1876 -0.1466  0.1123
10680W        W26864  12.605  10.958  12.958 -0.0641  0.0131 -0.2021
10681W        W26865  13.485  10.594   5.151  0.0098  0.2607  0.0846
10682W        W26866   7.989  14.817   2.471 -0.0058 -0.1689  0.0930
10683W        W26867   8.003  12.764   3.231 -0.4925  0.2671 -0.1878
10684W        W26868   8.079  15.461  16.103 -0.1258 -0.2486 -0.3072
10685W        W26869   1.556   6.587   0.453 -0.1582  0.0349 -0.1157
10686W        W26870  12.255  13.571   2.138 -0.0131  0.1633 -0.1708
10687W        W26871   8.739  18.244   1.998  0.1138  0.3360  0.2965
10688W        W26872  16.913   9.497   2.415 -0.1906 -0.0866  0.0701
10689W        W26873  18.501  15.347   4.066 -0.0650  0.0890 -0.4343
10690W        W26874   1.960   6.745   1.249  0.0913 -0.3167 -0.0979
10691W        W26875  12.670  10.344  15.039  0.0821 -0.0507 -0.0750
10692W        W26876  12.470  17.351  11.832 -0.1554  0.0373  0.0347
10693W        W26877   9.073  12.306  14.098 -0.0903  0.2248  0.2463
10694W        W26878   2.893  16.986   1.812  0.0342  0.1794  0.1269
10695W        W26879   6.696  13.034  16.110 -0.0161  0.3106  0.2729
10696W        W26880  15.298  12.233   3.866 -0.2897  0.0644  0.0435
10697W        W26881   4.383  17.624   5.269  0.0794  0.2590  0.2168
10698W        W26882  16.782   9.608  11.639  0.1005  0.1936  0.1039
10699W        W26883   1.144   0.326  15.266  0.1614 -0.1149 -0.1863
10700W        W26884  18.456  11.999   2.244  0.1343  0.1029  0.2250
10701W        W26885  11.876   1.034  12.255 -0.3255  0.3470  0.0369
10702W        W26886  16.760  16.910  14.359  0.1165 -0.1319 -0.5807
10703W        W26887  14.008   1.995  14.592  0.3119  0.3206 -0.3406
10704W        W26888   2.815  18.443   2.260  0.1396 -0.3819 -0.3955
10705W        W26889  10.366   4.819   1.785  0.0695  0.0916 -0.0335
10706W        W26890  15.839   4.796   4.053  0.1172 -0.0747 -0.2126
10707W        W26891   0.653   3.831   5.746 -0.1296  0.3081  0.4585
10708W        W26892  14.352  12.577  15.681  0.1639 -0.3160 -0.2407
10709W        W26893   9.515   5.012  14.456  0.3823 -0.2403  0.0460
10710W        W26894   6.796   9.268   2.888 -0.2333 -0.1365 -0.0685
10711W        W26895   8.885  16.237  14.546 -0.3333  0.0995  0.0879
10712W        W26896   2.823  10.484   5.256 -0.0566  0.3446 -0.0682
10713W        W26897   7.365   4.819  12.133 -0.1571  0.0294 -0.2790
10714W        W26898  14.996   7.157  15.333 -0.0245  0.1898 -0.0978
10715W        W26899   4.665   1.264   3.830 -0.1805  0.0358  0.0106
10716W        W26900   2.014   9.871   2.813  0.0347 -0.3178  0.3422
10717W        W26901  18.003   9.757  12.599  0.0608  0.1238 -0.0679
10718W        W26902   3.188   6.393   5.944 -0.1763 -0.0855 -0.1493
10719W        W26903  15.362  15.595  12.352  0.0192 -0.0677 -0.0593
10720W        W26904   8.908  15.599  11.134 -0.0630 -0.0963  0.0791
10721W        W26905   1.746   3.136  12.520  0.0470  0.2127  0.5598
10722W        W26906   2.497  11.169   5.293  0.0855 -0.2975  0.1307
10723W        W26907   5.938   0.685   4.366  0.0137  0.0054 -0.1519
10724W        W26908  17.606  17.241  15.856  0.1517 -0.3176  0.2220
10725W        W26909  13.081  14.852   0.490  0.0891  0.0969 -0.4861
10726W        W26910   3.419   3.989  15.206 -0.1558 -0.4035  0.0659
10727W        W26911  15.259  10.297   3.935 -0.2314 -0.0653  0.0506
10728W        W26912  13.894   8.034   6.285  0.0806 -0.2540 -0.1369
10729W        W26913  12.468   2.564   0.538 -0.0518  0.0715  0.1011
10730W        W26914   7.608   3.382   0.379  0.4896 -0.2198  0.1251
10731W        W26915  14.497  16.982   2.854  0.3479 -0.1397 -0.1003
10732W        W26916  15.634   1.116   0.005 -0.0363 -0.1058  0.1772
10733W        W26917  12.393   9.272  15.551  0.0801  0.4102 -0.0350
10734W        W26918   0.531   0.817  10.453  0.1443 -0.0818 -0.1002
10735W        W26919   5.003   6.544   4.167  0.3500 -0.0368 -0.0971
10736W        W26920  12.671  10.681  14.239 -0.0221  0.2564 -0.2119
10737W        W26921   5.017  17.920   4.652 -0.0278  0.1035  0.0425
10738W        W26922   2.399  16.317  13.467 -0.0211 -0.1854  0.2341
10739W        W26923  12.857   5.702   5.268 -0.1092  0.0160  0.2134
10740W        W26924   9.206  12.794  14.008 -0.3438 -0.0892  0.2071
10741W        W26925  14.207  17.407  14.181 -0.1987 -0.1032 -0.3105
10742W        W26926   2.045  12.939  14.779 -0.2421  0.0864  0.2599
10743W        W26927  12.989   4.018   0.187 -0.1254  0.2529  0.0552
10744W        W26928  10.015  12.671  15.111  0.1657  0.1407  0.2613
10745W        W26929  16.996  13.852  15.401 -0.0067  0.3908  0.2433
10746W        W26930   8.772   7.106   0.531  0.0995 -0.1750  0.0404
10747W        W26931   7.525   0.141   1.872 -0.2199 -0.2280  0.1794
10748W        W26932   6.627  13.158  13.259  0.0985 -0.1067 -0.1533
10749W        W26933  13.768   8.377  15.148  0.4819 -0.2061  0.0698
10750W        W26934   0.733  15.375  15.310  0.3542  0.0256  0.1338
10751W        W26935   0.925   2.866  13.942 -0.0862 -0.0099  0.0579
10752W        W26936  11.697  11.104   4.824 -0.0309  0.2527  0.0996
10753W        W26937  17.242   8.686   4.034  0.0521  0.1682 -0.0921
10754W        W26938   9.858   2.239  13.176 -0.3471  0.0262  0.0431
10755W        W26939  17.383   8.623   3.028  0.1332 -0.2951 -0.0823
10756W        W26940   2.762  18.407  10.615  0.1266  0.0359 -0.2438
10757W        W26941   0.376   4.624   3.320  0.2490 -0.0758 -0.3179
10758W        W26942  16.746   0.464  10.834  0.3779 -0.0105 -0.0162
10759W        W26943   4.160   5.134   0.882  0.1193 -0.1251  0.0885
10760W        W26944  10.907  18.153  16.131 -0.0716  0.0024  0.3683
10761W        W26945   1.950   2.814   2.279  0.1686 -0.1874 -0.0495
10762W        W26946  15.872   4.193   0.423  0.1521  0.1217 -0.0880
10763W        W26947   1.780  17.161   3.138  0.2822 -0.1009 -0.1692
10764W        W26948  10.126   7.637  11.489  0.1529  0.0381 -0.1438
10765W        W26949  16.231  18.444   0.114 -0.0207 -0.0979  0.0080
10766W        W26950  10.896  14.394   0.138 -0.2444  0.1815 -0.2219
10767W        W26951   9.895  17.104  15.585 -0.0540  0.2623 -0.1442
10768W        W26952  10.384  15.429  12.320  0.0400  0.0625  0.2772
10769W        W26953   6.863   4.691  15.279 -0.1385  0.0787  0.1324
10770W        W26954  10.109  16.259   2.399  0.0377  0.1929 -0.0509
10771W        W26955   1.540  18.259  11.857 -0.0454 -0.1598  0.2043
10772W        W26956   3.263   3.276  11.884  0.2103  0.2560 -0.1346
10773W        W26957  15.046  13.261   5.330  0.2640 -0.3760 -0.2416
10774W        W26958  13.772   4.658   4.043  0.0138  0.2540  0.0753
10775W        W26959   4.546  11.282   0.033  0.0521 -0.1255 -0.0807
10776W        W26960   9.094   8.970   1.911 -0.2232  0.2130 -0.2097
10777W        W26961   4.005   1.896  10.767  0.0838  0.0543 -0.1056
10778W        W26962  15.141  14.553   4.875 -0.2102  0.1482 -0.0104
10779W        W26963   2.188  13.412   2.719 -0.0274  0.1913  0.0923
10780W        W26964   8.819   9.815  14.395  0.1531  0.1569  0.0209
10781W        W26965   2.578   0.378  13.443  0.1477 -0.1938  0.1951
10782W        W26966   9.934  17.315  15.102  0.1783 -0.2811  0.3201
10783W        W26967   9.938  17.812  12.623  0.1649  0.1602 -0.0089
10784W        W26968  14.484  12.797   3.459  0.0248  0.3834  0.1586
10785W        W26969   5.287  13.377   0.898  0.1788 -0.1568  0.1915
10786W        W26970  10.160   0.850  14.701  0.1312 -0.1811  0.3256
10787W        W26971   4.143   8.296  15.077 -0.2044  0.4561 -0.1640
10788W        W26972   9.777   4.397   1.137 -0.0339 -0.0958  0.0838
10789W        W26973  15.924   9.245   0.255 -0.2313  0.0176  0.1246
10790W        W26974   9.239   1.317   0.158 -0.0325  0.2871  0.0386
10791W        W26975   4.500  15.850   1.136  0.0763  0.0765 -0.0753
10792W        W26976  14.897  16.106   4.745  0.0649  0.2528  0.2358
10793W        W26977  10.212  11.655   3.568 -0.0072 -0.1326 -0.1320
10794W        W26978  18.275  15.369  15.961 -0.3376 -0.1292  0.0976
10795W        W26979   2.708   2.488  15.371  0.0147 -0.2141  0.1970
10796W        W26980   3.294  18.380   3.037 -0.0228  0.2673 -0.2007
10797W        W26981   0.520  12.130  15.591  0.0207  0.0661 -0.3966
10798W        W26982  13.909  11.360  13.787 -0.3713  0.0437 -0.0429
10799W        W26983   8.060  14.276   4.838 -0.4314  0.2132  0.0011
10800W        W26984   3.373   7.811  15.398  0.0821 -0.0465  0.1588
10801W        W26985  10.892   7.502   3.428  0.0518  0.0774  0.2059
10802W        W26986  12.397   5.614   3.523 -0.0041 -0.3585  0.2449
10803W        W26987  12.088   3.268   1.186  0.0980  0.1888 -0.0097
10804W        W26988   9.791   7.220   1.650  0.1854 -0.1204 -0.1187
10805W        W26989  17.263  17.204   2.833 -0.2908 -0.2210  0.1192
10806W        W26990  12.648   3.884  16.025 -0.1895  0.2021 -0.0400
10807W        W26991  11.468  16.032  12.078  0.2193 -0.5097 -0.2577
10808W        W26992   0.577   3.719  15.680  0.0894 -0.0218  0.2459
10809W        W26993   7.615  14.124   4.823  0.0087 -0.2115  0.0634
10810W        W26994   7.154  12.867   0.127  0.1318 -0.0046 -0.2149
10811W        W26995  11.967  13.037   0.346 -0.0933  0.0448  0.0364
10812W        W26996  16.140   9.450  14.558  0.0094  0.1410  0.1917
10813W        W26997  15.623  14.773  14.329 -0.0289  0.3260 -0.3820
10814W        W26998  10.633   6.356   2.191 -0.1529  0.0263  0.0624
10815W        W26999  17.930  15.275  13.260 -0.1122  0.3200 -0.0677
10816W        W27000   5.816  11.102  15.311 -0.0168  0.2277 -0.0099
10817W        W27001   8.686  10.134  13.425 -0.1508 -0.2170 -0.1101
10818W        W27002  17.977  12.050  14.165 -0.1092  0.2896  0.0859
10819W        W27003   5.210   7.444  15.448  0.0620 -0.1846  0.1044
10820W        W27004   4.209  10.216  14.233  0.2704  0.0458 -0.0184
10821W        W27005   1.427   2.640  14.227 -0.2921  0.2133  0.0276
10822W        W27006   0.723  10.677   2.118 -0.2760  0.1085 -0.0572
10823W        W27007   9.565  10.587   4.219  0.3845 -0.0016 -0.1883
10824W        W27008   5.684  16.307   3.441  0.0635  0.2062  0.1511
10825W        W27009  12.751   4.265   5.272  0.0237 -0.0364  0.0719
10826W        W27010  13.551   2.543  13.329 -0.1973 -0.0410 -0.2438
10827W        W27011  13.328   0.911   3.213  0.1111 -0.0608  0.0889
10828W        W27012  11.283   0.826  15.367 -0.0046  0.2351  0.0324
10829W        W27013   1.488   7.045  15.786 -0.1516 -0.2103  0.2923
10830W        W27014  13.182   4.332  14.702  0.1346 -0.2842  0.0014
10831W        W27015  13.407   2.299   3.264  0.2296  0.3498  0.2138
10832W        W27016   9.898  11.581  14.232  0.1168  0.1645  0.1532
10833W        W27017   9.320  17.716  14.444 -0.1149  0.0160  0.0788
10834W        W27018  18.309  13.818  15.662 -0.0047  0.0787  0.1899
10835W        W27019   2.257  13.954   5.278  0.4222 -0.0691 -0.2416
10836W        W27020  13.939  10.707   4.999 -0.1773 -0.2030 -0.1729
10837W        W27021   5.416  11.055  12.540  0.1151  0.1305  0.3628
10838W        W27022  14.134  11.649  14.642 -0.3995  0.1741 -0.0643
10839W        W27023   3.456   3.467   3.737  0.0162 -0.0009 -0.1572
10840W        W27024   5.443  16.997   0.991 -0.1287  0.0221 -0.1524
10841W        W27025  15.337   7.584  15.797 -0.0479 -0.0727 -0.1954
10842W        W27026   8.100   3.137   2.231  0.1751  0.1065 -0.0353
10843W        W27027   6.973  13.663  12.583  0.2266  0.2405  0.0791
10844W        W27028   4.735  11.668  12.206 -0.0024  0.3606 -0.0019
10845W        W27029  12.365   2.546   1.940  0.2846 -0.0960 -0.0522
10846W        W27030   3.307   0.363   4.236  0.0145  0.0112 -0.0611
10847W        W27031  15.602   4.233  12.883  0.3090 -0.0347  0.3446
10848W        W27032  16.622   4.690   5.844  0.1394 -0.0112 -0.1782
10849W        W27033   7.606  16.075  12.509 -0.2147  0.0312  0.2777
10850W        W27034   4.345  10.876   3.850 -0.2035  0.0142 -0.1730
10851W        W27035   9.280   4.494   0.165  0.0630  0.1255 -0.0903
10852W        W27036   2.645   3.291   1.052 -0.0677 -0.2312 -0.1795
10853W        W27037   9.923  16.201  15.528 -0.1964 -0.1335  0.0230
10854W        W27038   5.268  15.453  15.694  0.1886  0.2668  0.0905
10855W        W27039  14.828  15.789  11.362 -0.1437 -0.3280  0.0734
10856W        W27040  14.443  11.020   4.766 -0.2397 -0.0807  0.0157
10857W        W27041   6.176   3.833   1.823 -0.2475 -0.0622  0.0854
10858W        W27042  13.767  12.343   4.816  0.0039  0.0825  0.3071
10859W        W27043  16.270   8.805   4.527 -0.2268 -0.0103 -0.0531
10860W        W27044   9.079  11.582  13.718 -0.0296 -0.0174  0.3362
10861W        W27045  17.336   5.441   0.897 -0.2435  0.0828 -0.4623
10862W        W27046  11.729  13.026   4.183  0.2545  0.0653  0.1600
10863W        W27047  12.745   0.307  12.581  0.3480  0.0483 -0.0202
10864W        W27048   1.088  12.355  15.699  0.0578  0.0662 -0.0464
10865W        W27049  15.702   4.183   3.932  0.1838 -0.1650  0.0829
10866W        W27050   1.734   5.131  13.845 -0.1114 -0.0561 -0.0642
10867W        W27051   3.347   4.774  13.138 -0.2154  0.0595  0.1397
10868W        W27052  12.683  13.740   3.885 -0.1461  0.0641 -0.0975
10869W        W27053   3.500   0.348  15.494  0.0528 -0.3523  0.0495
10870W        W27054  14.830   6.362  13.068  0.2577 -0.0879  0.3233
10871W        W27055   6.175   5.403   0.980 -0.1542 -0.3113  0.0401
10872W        W27056  15.958   9.316  11.405 -0.0991 -0.2279  0.0757
10873W        W27057   3.672   9.278   5.206 -0.3094  0.0596  0.3912
10874W        W27058   9.525  12.735  14.811  0.1168  0.1672 -0.2330
10875W        W27059  11.505  17.310   0.131  0.0202  0.2157 -0.1522
10876W        W27060  12.965  14.071   1.280 -0.0668  0.0321 -0.0451
10877W        W27061  11.963  12.876  15.790 -0.0176  0.4511 -0.0639
10878W        W27062   7.979  11.931   4.977  0.1821 -0.0718 -0.0963
10879W        W27063   5.607   3.041   4.129  0.0608 -0.2674  0.3725
10880W        W27064   5.559   8.490  11.508  0.0195 -0.1734  0.0027
10881W        W27065   8.028  15.531   5.491 -0.2924  0.0012  0.4356
10882W        W27066  15.360   6.989   2.880 -0.1886 -0.0584 -0.0225
10883W        W27067  11.357   5.930  12.136  0.2070  0.0880 -0.1400
10884W        W27068  15.482  11.382  13.337  0.0857  0.3115 -0.2694
10885W        W27069  18.471   5.441  15.266 -0.0386  0.4301  0.0314
10886W        W27070   0.564  16.387   3.514 -0.3051  0.1129 -0.0362
10887W        W27071  17.071   0.502   3.400  0.0620 -0.0776  0.1584
10888W        W27072   2.541   0.449   2.150  0.0225  0.2635  0.2537
10889W        W27073   2.430   2.289  15.865  0.1181 -0.2249  0.2549
10890W        W27074  12.051   5.386  12.649  0.0892  0.2245 -0.2042
10891W        W27075   5.661  13.355   2.449  0.3890 -0.2153  0.1619
10892W        W27076   0.824  11.485   3.993  0.0722 -0.2698 -0.1048
10893W        W27077  15.657  11.648   0.133  0.2763 -0.3532  0.2775
10894W        W27078  14.089  18.112  14.694 -0.2583  0.0297 -0.1081
10895W        W27079  14.652   3.305   3.063  0.0232 -0.3592 -0.0909
10896W        W27080   5.998  16.310   2.835 -0.1096  0.1884  0.1586
10897W        W27081   1.607  16.146   0.173 -0.0234  0.0568 -0.3494
10898W        W27082   6.006  12.765  14.099  0.0644 -0.0318  0.1068
10899W        W27083   3.788   1.854  15.985  0.0411 -0.2621  0.0679
10900W        W27084  17.338  10.888  13.054 -0.0683  0.0622 -0.0797
10901W        W27085   2.033  16.555  14.662  0.0073  0.1801 -0.2125
10902W        W27086  18.421   5.846  12.108  0.1638 -0.0944 -0.0534
10903W        W27087  18.055   5.965  14.809  0.0086 -0.0512  0.2825
10904W        W27088  13.890   6.663   5.285 -0.3598  0.3886 -0.0276
10905W        W27089   4.774   4.267   2.205  0.0145  0.0536 -0.0148
10906W        W27090   5.117  15.776  12.337 -0.2072 -0.2187 -0.0635
10907W        W27091   3.504  13.711   4.456  0.0150 -0.1564 -0.0659
10908W        W27092   9.554  12.229  14.928 -0.2936 -0.0122  0.0837
10909W        W27093   9.461  10.928   1.717 -0.1539 -0.1978  0.4405
10910W        W27094   9.822  13.523  12.183  0.1529  0.2180 -0.1335
10911W        W27095  16.981  17.136  13.980 -0.0664  0.1071 -0.0019
10912W        W27096   1.599   8.069   2.261  0.0832 -0.1488  0.0342
10913W        W27097  12.289  15.896   3.127 -0.0253  0.3274 -0.2651
10914W        W27098  17.309  12.593  11.543  0.2177  0.3969  0.1551
10915W        W27099  10.489  13.816  12.167  0.0367 -0.0902 -0.0413
10916W        W27100  10.497   6.172  15.356  0.1681  0.3183  0.2967
10917W        W27101   9.032  17.704   4.951 -0.0727  0.2683  0.1103
10918W        W27102   0.540  17.763  14.978  0.3208 -0.1008 -0.0510
10919W        W27103   5.499  13.873  13.899  0.0431  0.2036  0.0267
10920W        W27104   5.085  12.618   3.883  0.0614  0.1583 -0.2154
10921W        W27105   4.469   6.516   3.093  0.0162 -0.1219  0.0173
10922W        W27106   2.332   6.002  11.870 -0.0797 -0.1464 -0.0625
10923W        W27107  12.989  18.049   2.669  0.2110 -0.1089 -0.0399
10924W        W27108  16.879   9.457  11.170 -0.1468  0.1215 -0.0775
10925W        W27109  12.838  18.227   0.258 -0.1462 -0.0008  0.1456
10926W        W27110  16.681  12.716   3.440  0.0061 -0.0275  0.1360
10927W        W27111   7.950  13.651   2.207  0.4655 -0.1915 -0.0125
10928W        W27112  16.215  15.475   1.339 -0.2446  0.0776  0.2480
10929W        W27113   2.645  11.054  12.722  0.0374 -0.0835 -0.0616
10930W        W27114   1.619   2.668  12.417  0.2805 -0.0670 -0.3914
10931W        W27115  16.983   9.089   3.830 -0.3987  0.0490  0.1340
10932W        W27116   1.360  15.329   1.055 -0.0154 -0.1825 -0.0172
10933W        W27117  11.717  10.257   4.459  0.4500 -0.0529  0.0743
10934W        W27118   2.441   9.703   4.176  0.3017  0.0796  0.1010
10935W        W27119   7.880  12.362  11.573 -0.2895  0.0372  0.0211
10936W        W27120   7.388  13.672  11.476  0.0154  0.3177  0.2794
10937W        W27121   9.963  13.585   4.293 -0.1533 -0.0180  0.1388
10938W        W27122  18.304   7.026  13.614  0.0530 -0.1338  0.2291
10939W        W27123   1.470  17.096  12.718 -0.3554 -0.1885 -0.1602
10940W        W27124   4.475   4.291  15.995 -0.1454 -0.0507  0.2555
10941W        W27125  17.372  14.100  14.537  0.5381 -0.2717  0.0937
10942W        W27126  15.015  11.334   0.562 -0.1348  0.0087  0.1094
10943W        W27127  15.660   6.574   4.703 -0.1102 -0.1656 -0.1248
10944W        W27128   5.492  12.559   1.479 -0.1104  0.0543 -0.0956
10945W        W27129  16.521  12.676   1.278  0.1741 -0.2948 -0.0178
10946W        W27130   4.813   3.981   1.622  0.2459 -0.5290  0.0731
10947W        W27131  16.713   9.171   4.665  0.0935 -0.3503 -0.0844
10948W        W27132  15.404   5.803   4.848 -0.1944 -0.2105 -0.2438
10949W        W27133  16.768   8.759   1.951  0.0534 -0.0106 -0.0356
10950W        W27134   6.032   2.658  12.614 -0.2971 -0.1793 -0.1242
10951W        W27135  12.172  14.027   3.196 -0.1197  0.2390 -0.1994
10952W        W27136   0.733  12.260  12.937 -0.1591 -0.2246  0.0710
10953W        W27137   0.081  11.065  11.414 -0.0055 -0.0637  0.0403
10954W        W27138   5.594   6.092   0.342  0.1164  0.2844 -0.2887
10955W        W27139  12.136   4.673  16.123  0.0104 -0.2148  0.2642
10956W        W27140  12.548   4.331   0.211  0.1036  0.1934  0.2755
10957W        W27141  16.332  16.515  11.929  0.0506 -0.1830 -0.0020
10958W        W27142  17.290   5.568  11.229 -0.0563  0.0350  0.0840
10959W        W27143   4.410   6.909   2.812  0.2160 -0.3535  0.0893
10960W        W27144  13.634   7.585   1.202  0.1606 -0.1303 -0.1053
10961W        W27145   1.143   6.259  12.731 -0.1932  0.0665  0.2134
10962W        W27146  10.653  17.249  12.164  0.3258  0.2271  0.0590
10963W        W27147  12.889   0.135   1.102 -0.0586  0.0090 -0.0770
10964W        W27148  11.860   9.122   2.321  0.0172  0.2328 -0.2996
10965W        W27149  17.004   7.595  15.325 -0.1497  0.1952  0.0168
10966W        W27150  16.443  17.067  13.300  0.0554 -0.4124 -0.0584
10967W        W27151  12.548   2.587   3.747 -0.2340 -0.4298 -0.0462
10968W        W27152   8.403  17.077   1.650  0.3111  0.3515  0.0510
10969W        W27153   6.856   3.283   1.314  0.2204 -0.0698  0.3271
10970W        W27154  18.517   7.370  14.775 -0.0555 -0.0874 -0.0231
10971W        W27155   1.857  12.771   3.248 -0.0433 -0.0602 -0.1123
10972W        W27156  10.135   1.189   2.086  0.1356  0.2326 -0.0679
10973W        W27157  12.944   0.542  14.206  0.2420  0.0431 -0.2314
10974W        W27158   7.591   0.341   0.059 -0.1331  0.1063  0.1339
10975W        W27159   0.776   1.716  15.828  0.1510 -0.0849 -0.1834
10976W        W27160   5.216  17.723   1.865  0.4375  0.0082  0.1846
10977W        W27161   0.723  16.256  14.986  0.0953  0.1082  0.0319
10978W        W27162   2.111   2.376  11.588  0.0853 -0.2010 -0.0964
10979W        W27163   9.664   3.928  15.828  0.1194  0.1049 -0.2480
10980W        W27164  10.019   4.082   2.730  0.1630  0.2480 -0.0482
10981W        W27165   7.092   2.840  15.828 -0.1492 -0.1092 -0.0181
10982W        W27166   6.253  12.839  15.976  0.0237 -0.0220  0.1816
10983W        W27167   1.734  11.673  15.028  0.2140  0.0977 -0.1676
10984W        W27168  11.130  13.125  15.058 -0.3206  0.4084  0.0193
10985W        W27169   8.354   5.716   6.296 -0.2597 -0.0692 -0.0673
10986W        W27170   8.509  10.732   3.815 -0.3001  0.0514 -0.1948
10987W        W27171   1.841   2.356  11.101 -0.1756 -0.2416  0.0353
10988W        W27172   1.724  14.599  11.711  0.0940 -0.1990 -0.3069
10989W        W27173   0.816   3.879   2.260 -0.3082  0.2506  0.1151
10990W        W27174  18.191   5.607   5.628  0.0423  0.1358  0.1381
10991W        W27175  13.125  12.288   0.109 -0.3796  0.0824 -0.0947
10992W        W27176   0.827   1.239  13.133 -0.2132  0.2041 -0.0613
10993W        W27177  18.433   7.380  15.367  0.2669  0.0331 -0.0077
10994W        W27178   9.403  15.486   1.279 -0.4396 -0.0191 -0.0944
10995W        W27179   3.771   1.876   0.678  0.0178  0.3848 -0.0941
10996W        W27180   4.794   3.267  12.800  0.0094 -0.1142  0.0686
10997W        W27181   6.433   3.360  14.753  0.1179  0.0729  0.2093
10998W        W27182  14.597   1.684   2.219  0.1150 -0.1377 -0.0796
10999W        W27183   4.575  14.305   3.169 -0.0396 -0.6422  0.1441
11000W        W27184  12.178   8.865  14.303  0.1583  0.1768  0.2290
11001W        W27185   9.924   1.437   0.475 -0.1462 -0.0069 -0.1054
11002W        W27186   7.220   9.108  11.700  0.0492  0.3975  0.1194
11003W        W27187   5.074   0.912  14.032 -0.1578  0.2157  0.3046
11004W        W27188   3.523  14.442   2.282  0.1506  0.2400  0.0829
11005W        W27189   6.870  12.021   5.147 -0.0519  0.1331  0.1168
11006W        W27190   6.108  11.677   4.535 -0.2782  0.5480 -0.1993
11007W        W27191  14.306  15.378   0.336  0.1801 -0.1979  0.0549
11008W        W27192  18.493   6.806  14.590 -0.2157 -0.1863 -0.2282
11009W        W27193   5.654   3.872  13.118  0.1683 -0.4289 -0.1026
11010W        W27194  12.937   4.314  12.951 -0.1513 -0.1527  0.0595
11011W        W27195   8.141   6.620  15.643  0.0106  0.1768  0.0833
11012W        W27196   5.667  14.201   5.308 -0.2170  0.0519  0.0761
11013W        W27197  17.802   7.102   2.647  0.3519 -0.1411 -0.2097
11014W        W27198   9.021  16.563  13.106  0.0702  0.2130 -0.0695
11015W        W27199  10.286  15.699  15.838  0.0944  0.0025 -0.2300
11016W        W27200   5.116  17.565  14.740 -0.0722  0.3032 -0.1138
11017W        W27201   1.973  15.650  12.988 -0.2078 -0.0021  0.1743
11018W        W27202   3.521   6.683   1.345  0.0257 -0.0945 -0.0569
11019W        W27203   5.472   9.778   1.037 -0.2631 -0.0521  0.0562
11020W        W27204   1.105  14.145   4.582 -0.0588  0.0206 -0.0675
11021W        W27205  11.454   1.008   2.774  0.3563  0.1654 -0.0572
11022W        W27206  12.973  10.852   2.118  0.2492  0.3668  0.4036
11023W        W27207   9.486   8.091  13.548 -0.1749  0.2987 -0.1693
11024W        W27208   3.790  12.343   0.578  0.2428 -0.0069  0.0891
11025W        W27209   7.137  14.740   5.745 -0.0433  0.0824  0.1443
11026W        W27210  15.692  15.953   5.204 -0.0532 -0.0533 -0.3300
11027W        W27211  16.541  13.107   3.136  0.0438 -0.1752  0.1667
11028W        W27212   1.534  13.689  14.856 -0.0536 -0.1354 -0.1430
11029W        W27213   1.351  14.279  13.334 -0.2234  0.1755  0.2352
11030W        W27214   6.565   3.110  13.249  0.0248 -0.2004 -0.0164
11031W        W27215  10.602   8.542   0.145  0.0922 -0.1821  0.0474
11032W        W27216   2.320   3.804  11.762 -0.2244  0.0622 -0.0550
11033W        W27217   0.291   2.393   0.440  0.1092 -0.0996 -0.0680
11034W        W27218   0.989  12.130   3.191 -0.2185 -0.0294 -0.0157
11035W        W27219  16.460  12.642  12.825  0.0604 -0.2989  0.0487
11036W        W27220   5.438  15.450   4.599 -0.1984  0.0529 -0.4464
11037W        W27221  14.001   2.387   4.677 -0.0598 -0.0676 -0.0649
11038W        W27222   5.998   6.452   1.278  0.1019 -0.6399  0.1121
11039W        W27223  16.591  14.051  11.499 -0.1951  0.1919  0.2066
11040W        W27224  14.727  16.296  16.031  0.0074 -0.1726 -0.3076
11041W        W27225   7.140   6.960  12.543 -0.3943  0.1019  0.0310
11042W        W27226  13.238   4.825   3.847 -0.0242  0.2972  0.1834
11043W        W27227  16.376  14.532  15.344 -0.0232 -0.0703  0.1340
11044W        W27228   2.020  13.565  13.513  0.2002  0.1906 -0.1156
11045W        W27229   0.041  13.485  14.543 -0.2531  0.1872 -0.2489
11046W        W27230  10.077   5.466  12.507  0.3490 -0.0517 -0.0850
11047W        W27231   6.737   7.416   1.551 -0.1654 -0.3725 -0.2864
11048W        W27232  15.383   7.769   5.633 -0.0899  0.0829  0.0901
11049W        W27233   0.570  15.847  10.849  0.1206  0.2938  0.0378
11050W        W27234   0.289  17.565   5.428  0.1288  0.0032 -0.1506
11051W        W27235  11.418   4.907  10.361 -0.2101 -0.3251  0.2531
11052W        W27236   7.473   6.662   3.393  0.0802  0.0029  0.1472
11053W        W27237   9.815   6.765  12.708  0.0601  0.1655  0.1226
11054W        W27238   5.924  17.907  15.048 -0.0283 -0.5077  0.0475
11055W        W27239  17.224   9.023  10.957  0.0278  0.0816 -0.0898
11056W        W27240   0.420   5.456   4.269  0.2096 -0.0911  0.1972
11057W        W27241  12.341  14.491   2.332  0.3262 -0.1861  0.2335
11058W        W27242   0.076  17.428  15.445 -0.1307 -0.2299 -0.2855
11059W        W27243   8.985  17.478  15.534 -0.1386 -0.0420 -0.1638
11060W        W27244  15.631   5.580   1.976 -0.0863 -0.1518 -0.0535
11061W        W27245  13.802  12.815   4.733  0.0883 -0.1056  0.3362
11062W        W27246  10.502   3.311   2.779  0.0843 -0.1214  0.2690
11063W        W27247   0.613  14.505   1.320 -0.1318  0.2904  0.2099
11064W        W27248   0.945   5.290  12.481  0.0977 -0.0418  0.0059
11065W        W27249  13.455   6.908   0.248  0.2466  0.1811  0.2028
11066W        W27250  12.948   3.793  12.503 -0.0933  0.1933  0.2368
11067W        W27251  13.055   5.027  15.390  0.2690  0.1887 -0.1584
11068W        W27252  10.869   8.092  13.358 -0.3667 -0.0909  0.1113
11069W        W27253  13.014   1.763  14.953  0.1820  0.1848  0.0376
11070W        W27254  18.332  15.982   5.798 -0.3620 -0.3399 -0.0059
11071W        W27255   2.107  15.986   0.162  0.2432 -0.0169  0.2213
11072W        W27256  11.306   6.550   5.727  0.0949  0.1426 -0.0616
11073W        W27257   9.917   7.726  14.858 -0.0822  0.0131 -0.2220
11074W        W27258   9.151   7.152  13.184 -0.0430 -0.0104  0.0063
11075W        W27259  11.501  12.386  13.807 -0.0140 -0.0737 -0.1017
11076W        W27260   8.205   5.830  11.681 -0.0752 -0.4607  0.0294
11077W        W27261   6.961   9.534   3.310  0.0304  0.2527 -0.1875
11078W        W27262  15.206   8.747  11.289  0.2646  0.1859  0.2011
11079W        W27263  17.319   6.949  13.431 -0.1170 -0.4687 -0.1538
11080W        W27264   5.099   0.008   3.447  0.1033  0.0421  0.1826
11081W        W27265   3.231  11.476   0.245  0.0087  0.2555 -0.1351
11082W        W27266   9.570  14.498   2.372  0.2819 -0.1331 -0.1514
11083W        W27267  11.466   2.968  13.224  0.0512  0.2908  0.1487
11084W        W27268  11.113  17.379   4.503  0.2011 -0.4200  0.1879
11085W        W27269  15.546  14.250   0.842 -0.1697  0.1481 -0.3380
11086W        W27270  17.240  12.474   0.983 -0.2571  0.1145 -0.1105
11087W        W27271   8.527  14.559   3.229 -0.0452 -0.2556 -0.1519
11088W        W27272  17.438  13.315   2.175 -0.0800  0.0670  0.1472
11089W        W27273   1.717   3.717  11.194  0.0967 -0.3917 -0.1560
11090W        W27274   7.678  15.692   2.769  0.1608  0.0747 -0.0524
11091W        W27275   5.432   5.904  14.395  0.3800 -0.0661 -0.3354
11092W        W27276   8.914   6.589   0.288 -0.1950 -0.1033  0.1461
11093W        W27277   9.982  10.694  14.404 -0.0129 -0.0977  0.1256
11094W        W27278   0.653   8.086  11.689  0.0426 -0.1634 -0.0942
11095W        W27279   6.810  18.052  11.125  0.1091  0.0105  0.0959
11096W        W27280  13.690   3.616  14.038 -0.1220  0.0146 -0.0620
11097W        W27281  17.443  17.368  12.471  0.0386  0.2335  0.2399
11098W        W27282   4.343  14.321   2.217 -0.0895 -0.1816  0.1061
11099W        W27283  11.272   8.983  14.839  0.1146 -0.0579  0.0419
11100W        W27284   5.650   3.489  11.920 -0.0778 -0.4981 -0.0247
11101W        W27285   3.721  18.038   9.649 -0.0174 -0.6012 -0.0286
11102W        W27286   0.192  11.898   0.513 -0.0157  0.0858 -0.0623
11103W        W27287  14.322  16.265   2.410 -0.0751  0.4073 -0.4164
11104W        W27288  16.704   5.357   1.607  0.3187 -0.1043  0.0423
11105W        W27289  17.313   8.788  13.408 -0.0515  0.0252  0.2537
11106W        W27290   1.679   2.677   1.872  0.2837 -0.1175 -0.0143
11107W        W27291  10.795  13.582   2.617  0.0461 -0.0035 -0.3198
11108W        W27292   0.920  11.170  10.150 -0.0564 -0.0919 -0.1766
11109W        W27293  15.490  13.405   2.225  0.0431 -0.1725  0.0241
11110W        W27294   3.474  11.194  16.067 -0.0325  0.3641  0.0093
11111W        W27295  14.641   6.779   0.280 -0.0040  0.1432 -0.2260
11112W        W27296   1.331  17.464   3.762 -0.1724  0.1139  0.0923
11113W        W27297  12.915  13.471   4.262  0.3059 -0.2654 -0.1509
11114W        W27298   4.777  10.344   0.883 -0.0566 -0.0338 -0.2318
11115W        W27299   1.073   2.479  13.106  0.1810 -0.0562 -0.1151
11116W        W27300  10.977   8.438   3.685  0.2312  0.1306  0.1467
11117W        W27301   8.515   7.651  13.909 -0.0791 -0.0762  0.0784
11118W        W27302   4.876  11.306  13.379  0.2992  0.0361  0.3557
11119W        W27303  13.846  17.597   4.215 -0.1316  0.1484  0.1271
11120W        W27304  15.269  13.228  12.367 -0.0220  0.0941 -0.0330
11121W        W27305   3.971   0.593   2.258  0.1943 -0.1908  0.0655
11122W        W27306   6.956  15.596  11.671  0.1685 -0.0270  0.1885
11123W        W27307  10.121   1.392   1.648 -0.0705 -0.0736 -0.0529
11124W        W27308   6.578   6.591  14.185 -0.0569 -0.2947  0.0640
11125W        W27309  11.915   2.116  15.628 -0.2569 -0.2720  0.0955
11126W        W27310   1.159   9.996  11.331  0.2305 -0.3857 -0.1562
11127W        W27311  10.162   5.815  15.586 -0.1840 -0.3028  0.0272
11128W        W27312  13.798   4.696  15.650  0.2944  0.2406 -0.0950
11129W        W27313   1.511   8.580   3.708 -0.0028 -0.0484  0.1944
11130W        W27314  16.916  10.078  12.771 -0.1583 -0.2876 -0.1075
11131W        W27315  12.085   4.266   1.137 -0.1560 -0.1696 -0.0183
11132W        W27316   1.607  11.015  12.080 -0.0099 -0.1496  0.0388
11133W        W27317   6.793   4.059  12.955 -0.2242 -0.1851  0.0931
11134W        W27318  17.995   6.671  14.770  0.0730  0.0858 -0.0933
11135W        W27319   6.625   4.303  13.445  0.0687 -0.1097  0.0331
11136W        W27320  13.919   1.907   0.666 -0.0125 -0.1256 -0.1407
11137W        W27321  10.350  15.873  14.796 -0.0082 -0.2484  0.0852
11138W        W27322  15.314   7.964  15.227 -0.0329  0.2311 -0.1896
11139W        W27323   5.570  17.733  14.555 -0.0955  0.2216 -0.0081
11140W        W27324  11.905  15.810  10.594  0.1825  0.0603  0.0912
11141W        W27325   4.324   2.685  12.995  0.0648 -0.2204  0.1823
11142W        W27326  14.707  10.224   2.492 -0.0000  0.0826 -0.2294
11143W        W27327   2.362  15.164  11.858  0.1278  0.2842  0.1541
11144W        W27328   0.611   5.670   3.079 -0.0810  0.2726  0.3245
11145W        W27329   4.020   0.099   4.329  0.1453 -0.3079  0.0175
11146W        W27330   8.528   0.269  15.910  0.0898 -0.3086 -0.1049
11147W        W27331  12.486   9.781  14.354  0.0467  0.1074 -0.0421
11148W        W27332  16.351   9.924   0.629 -0.2896  0.1263 -0.0443
11149W        W27333  17.673   5.216  13.149 -0.1588 -0.1628  0.0281
11150W        W27334   1.681   2.629   3.780  0.2319 -0.5443 -0.3322
11151W        W27335  13.892   7.347   3.943  0.0312 -0.0675 -0.1400
11152W        W27336   6.001   1.870   0.260  0.0009 -0.3786 -0.2152
11153W        W27337  11.408   7.638  14.789  0.2119 -0.3368  0.0578
11154W        W27338  15.704   1.122   5.667  0.1164  0.1595  0.2468
11155W        W27339  13.870   1.517  12.686 -0.1321  0.0448 -0.0901
11156W        W27340   9.344  12.072   0.056  0.1454  0.1604 -0.0781
11157W        W27341  12.638   3.606   2.637  0.0700  0.1892 -0.0910
11158W        W27342  15.443  16.580   1.812  0.5753  0.1845  0.0808
11159W        W27343  16.634   5.172   1.090  0.2051  0.0331 -0.0291
11160W        W27344   5.287  17.820  11.418  0.1483  0.1294 -0.1286
11161W        W27345  16.650   7.532  16.097 -0.3385  0.0892  0.0525
11162W        W27346   2.134  14.164   0.628 -0.0947 -0.2676  0.0455
11163W        W27347   0.208   1.071   0.908 -0.0628  0.0254  0.1452
11164W        W27348   3.486   4.228  13.246  0.2038 -0.1445 -0.1186
11165W        W27349  18.253   0.764  11.794  0.3670  0.1056  0.0028
11166W        W27350  10.796   5.359  14.869  0.0286  0.1065 -0.3877
11167W        W27351   5.653  17.123   2.884  0.2157 -0.1147  0.0944
11168W        W27352   8.099   0.993   3.127 -0.1368 -0.1900  0.3026
11169W        W27353   0.896   8.715  12.453  0.2694 -0.1768 -0.2119
11170W        W27354  13.619  11.692   3.429  0.2397  0.1382 -0.0916
11171W        W27355   2.857  11.804   3.082  0.1169  0.3679 -0.0521
11172W        W27356   0.065   0.434  10.522  0.4429 -0.0031  0.0093
11173W        W27357   6.199  16.419   2.346  0.1546 -0.0889 -0.0612
11174W        W27358   3.128  16.500  12.505  0.2400 -0.2217 -0.2365
11175W        W27359   5.645  10.311   0.232  0.0866 -0.0658  0.1373
11176W        W27360  16.186   8.082   2.167  0.1652 -0.1311  0.2158
11177W        W27361  13.737   9.319   5.498 -0.2982 -0.0235  0.1983
11178W        W27362  16.107   2.925   5.955 -0.0794 -0.2473 -0.6716
11179W        W27363   2.265  11.801   2.940 -0.1649  0.6106 -0.0823
11180W        W27364  11.872   1.578   5.923  0.0688 -0.2962 -0.2790
11181W        W27365  13.254  15.978   1.988 -0.0443 -0.3491  0.2128
11182W        W27366   5.213   1.237   1.887  0.1326 -0.0365  0.2255
11183W        W27367  16.168   4.928  15.851  0.0529 -0.3351  0.0033
11184W        W27368   9.892   4.223   4.656  0.5034 -0.0770  0.1612
11185W        W27369  17.732   5.111   4.352  0.0429  0.2860  0.1991
11186W        W27370   4.454   5.205   1.970 -0.0324  0.2726  0.0193
11187W        W27371  12.282  18.056   5.176 -0.0291 -0.4428 -0.3182
11188W        W27372  10.934   9.422   2.335 -0.1729 -0.1357  0.0252
11189W        W27373  15.891   7.596   1.408  0.1368  0.0803 -0.0948
11190W        W27374  13.213   8.594   5.129  0.1486 -0.0893 -0.1106
11191W        W27375   5.516   4.302  14.660  0.2277 -0.0387 -0.0377
11192W        W27376   4.379   6.354  15.882 -0.0246 -0.0403 -0.3407
11193W        W27377   1.384   6.884   2.843 -0.1973  0.2162  0.1810
11194W        W27378   3.973   3.179  11.721 -0.0672  0.1036  0.1665
11195W        W27379  16.534   4.903  11.217  0.1372 -0.1257  0.0397
11196W        W27380  14.670  17.819   3.552  0.2179  0.1152  0.0712
11197W        W27381  13.254  12.812   2.782  0.1931  0.0896  0.0987
11198W        W27382  18.155   8.402   0.827  0.0893  0.1711 -0.0344
11199W        W27383  18.183   1.764   0.299  0.2275  0.0507 -0.0830
11200W        W27384   0.739   1.056  14.141  0.1928 -0.2093 -0.1072
11201W        W27385  16.757   5.894  14.087 -0.1128 -0.3010 -0.3207
11202W        W27386   6.866   3.213  14.118  0.0266 -0.1221  0.0886
11203W        W27387  16.617   4.725  12.347 -0.0661  0.0679  0.2342
11204W        W27388   1.946  15.568  15.596 -0.1251  0.1223 -0.2574
11205W        W27389   3.998   8.803   2.832  0.2984  0.1584  0.0087
11206W        W27390   3.072  17.391   0.775 -0.1456  0.2185  0.1810
11207W        W27391  16.075   1.197   1.629  0.1684 -0.0375  0.0371
11208W        W27392  14.440  14.432  13.297  0.2460 -0.1272 -0.0101
11209W        W27393   1.721  17.265  14.504  0.1088 -0.0780  0.0967
11210W        W27394   8.441   9.116  15.654 -0.1489 -0.3461 -0.3578
11211W        W27395  10.662  15.036   1.658 -0.0904 -0.0044 -0.0151
11212W        W27396  18.203   6.871   1.785  0.1036  0.1435  0.0073
11213W        W27397   1.016  13.993  12.438 -0.0582  0.0178  0.2239
11214W        W27398  18.208   0.451   4.605 -0.2071  0.2350 -0.0764
11215W        W27399  11.208   5.804   1.492  0.2233  0.0813 -0.2350
11216W        W27400   3.078   7.603   5.583 -0.1928 -0.1454 -0.1058
11217W        W27401   9.761   3.115   0.088  0.0121  0.0157  0.1814
11218W        W27402   2.156   2.446  13.506  0.0158  0.0641 -0.3377
11219W        W27403   1.297   4.121  14.677  0.0188  0.0129 -0.5116
11220W        W27404  11.035   2.619  13.167 -0.2987  0.2043 -0.0503
11221W        W27405   4.114  15.345  15.493  0.1297  0.2515 -0.1070
11222W        W27406  10.805   3.913   2.344 -0.0874  0.0429  0.1518
11223W        W27407  11.429   7.959   2.763  0.2965  0.0270  0.0404
11224W        W27408   1.442   7.003   4.946  0.0287 -0.1873  0.2679
11225W        W27409   0.278   8.019   5.145  0.4228  0.2965 -0.1029
11226W        W27410   8.875   6.925   4.393 -0.1826 -0.0704 -0.2055
11227W        W27411  17.220  11.848   2.467  0.2737  0.0914  0.0656
11228W        W27412   1.731  10.688   0.069 -0.1144  0.0977 -0.2790
11229W        W27413  15.706   7.051  14.248  0.3550 -0.3785 -0.1277
11230W        W27414   1.234   5.485  14.325 -0.2081 -0.1306 -0.2543
11231W        W27415   3.567  11.767   0.551  0.2523 -0.2140  0.2387
11232W        W27416   7.132   4.101   1.765 -0.0240  0.0856  0.3244
11233W        W27417   9.006   9.747   5.788  0.1674  0.2979 -0.0035
11234W        W27418  14.455   4.466   5.327 -0.1604 -0.1679 -0.2876
11235W        W27419   0.041   7.154  12.739 -0.2946 -0.0769 -0.0529
11236W        W27420   1.367   0.124  12.199 -0.2384  0.0947 -0.0226
11237W        W27421  12.466  15.414   2.973 -0.0350 -0.1254 -0.1909
11238W        W27422  12.391   8.091   4.524 -0.0846 -0.0510  0.1304
11239W        W27423   6.962   3.827   1.389  0.0942  0.0749 -0.0069
11240W        W27424   6.411  17.398  15.838 -0.1253  0.3851  0.1195
11241W        W27425   9.986  17.770   4.795 -0.1008  0.0160  0.2294
11242W        W27426   1.063   4.642  13.341 -0.0332  0.0890  0.0707
11243W        W27427   5.116   7.958   4.719 -0.0687  0.1127  0.1744
11244W        W27428  12.997   7.968   3.748 -0.0637  0.2933 -0.0488
11245W        W27429  17.609  12.324   0.621  0.2050  0.0733  0.2741
11246W        W27430   3.943  17.632   4.022  0.1004  0.1583  0.2392
11247W        W27431  12.335   9.760  15.449  0.1703 -0.3786  0.2020
11248W        W27432  13.040   4.613  13.889 -0.2203 -0.1604 -0.0863
11249W        W27433  13.289  15.576  11.884 -0.1439  0.1234  0.1385
11250W        W27434   4.461  13.696  12.009 -0.2175 -0.1261 -0.2923
11251W        W27435   0.119   5.528  11.638  0.3918 -0.2482 -0.1247
11252W        W27436  11.112  16.378   5.491 -0.1845  0.2380  0.0162
11253W        W27437  18.221   4.100   5.830  0.1403  0.0949 -0.1406
11254W        W27438   5.335   3.502   4.345  0.0255 -0.0211 -0.0435
11255W        W27439  16.093   8.189  11.531 -0.3155 -0.1964 -0.0232
11256W        W27440   5.074  16.147  10.725 -0.0264 -0.1833  0.1212
11257W        W27441   7.907  14.939   0.511  0.2135 -0.3939 -0.1248
11258W        W27442   0.051   8.149   2.712  0.0602  0.3866 -0.0791
11259W        W27443   1.903  10.494   2.768 -0.0193 -0.1800 -0.2495
11260W        W27444  11.703   9.945  11.980 -0.1870  0.3422  0.0397
11261W        W27445   8.335  15.201   2.406  0.2792  0.1162  0.1955
11262W        W27446  13.958  14.898  12.397  0.0434 -0.4673 -0.1077
11263W        W27447   7.414  10.072   3.102  0.0255 -0.0697  0.0260
11264W        W27448   9.644   1.999  15.370 -0.0813  0.0462  0.2294
11265W        W27449  17.554  12.067   3.342 -0.2789  0.1694  0.2450
11266W        W27450   8.299  14.573  15.493 -0.4807  0.0131  0.2405
11267W        W27451   4.771   0.901  10.495 -0.2400  0.0177  0.0122
11268W        W27452  14.198   9.090  10.487  0.0136  0.2298 -0.5056
11269W        W27453   0.931  15.932  12.150  0.3156  0.1947 -0.1220
11270W        W27454  15.850   2.917   0.038 -0.2535  0.3033  0.0400
11271W        W27455   9.598   4.518   3.759 -0.1501  0.2164 -0.1361
11272W        W27456   3.766  16.950   4.390  0.1032  0.0103  0.1762
11273W        W27457  15.185   3.395   2.182 -0.1462  0.0032  0.2136
11274W        W27458  18.353  17.307   4.809  0.1321 -0.2002 -0.1684
11275W        W27459   6.714  16.860   1.164  0.0125 -0.0007 -0.0225
11276W        W27460   7.209   8.353  13.134  0.3095 -0.4129  0.1402
11277W        W27461   8.117  11.500   0.140 -0.1967  0.1372  0.2040
11278W        W27462  13.718  10.091  11.183  0.1638  0.3612  0.3489
11279W        W27463   9.849   6.654  15.989 -0.0264 -0.1148  0.2663
11280W        W27464   8.546   0.324  13.526  0.1852 -0.3600  0.0541
11281W        W27465  12.072  17.550   5.362  0.1185 -0.1177  0.1255
11282W        W27466  17.410  10.817  14.919 -0.0175  0.0768 -0.0822
11283W        W27467  16.956  16.870   3.425  0.0003  0.1342 -0.1905
11284W        W27468  14.586  11.512  11.789 -0.1665 -0.1753 -0.1990
11285W        W27469   9.192   0.223  13.646  0.0483 -0.1364  0.2606
11286W        W27470  15.754   0.211  15.802 -0.1067 -0.0084  0.3287
11287W        W27471   9.202  11.235  14.526  0.2550  0.0559  0.2932
11288W        W27472   0.924   3.392  12.003  0.2394 -0.0887  0.0517
11289W        W27473  13.018   6.705  13.175 -0.0973  0.0608  0.1351
11290W        W27474   7.410  11.045   3.555 -0.0373  0.0837  0.0039
11291W        W27475   4.157   1.925  13.628  0.4222  0.1876 -0.0845
11292W        W27476  17.575   3.329  14.606 -0.1571  0.2841 -0.1383
11293W        W27477   7.189   2.367   4.056  0.0421  0.0175 -0.0937
11294W        W27478   1.545  12.849  12.858 -0.2785  0.1870 -0.0870
11295W        W27479  17.879  16.697   0.425 -0.1651  0.2921 -0.0181
11296W        W27480  10.256  16.267   0.959  0.1478 -0.0949  0.0313
11297W        W27481   7.727   0.149   0.985  0.1273 -0.5026  0.0567
11298W        W27482   4.209   6.144  10.380 -0.0752  0.0156  0.0705
11299W        W27483   7.145  13.137   2.626 -0.4792 -0.0240 -0.1027
11300W        W27484   3.875  14.327  11.458 -0.0609 -0.0662 -0.2756
11301W        W27485   9.744  16.565   1.631  0.0295  0.0277 -0.4067
11302W        W27486  13.785  14.625   4.784  0.5810  0.0429 -0.3942
11303W        W27487   3.545  10.076  12.379  0.2814  0.0512 -0.1230
11304W        W27488  17.163  15.532  12.452 -0.1440 -0.0361 -0.0862
11305W        W27489  13.190   7.785   0.980 -0.0972  0.2610 -0.2104
11306W        W27490   6.944  15.435   5.215 -0.2966 -0.3149 -0.1497
11307W        W27491  17.363  10.951   3.670  0.3285  0.1779 -0.0461
11308W        W27492  16.525   8.634   3.647  0.1028  0.0756 -0.0131
11309W        W27493  17.375   8.839  11.405 -0.2044 -0.2011  0.0076
11310W        W27494   3.510   7.102   3.376 -0.3702 -0.0270  0.3511
11311W        W27495  17.136  12.400  13.959  0.0289 -0.0010 -0.1469
11312W        W27496  12.844   6.847  11.472 -0.2518 -0.0168  0.2694
11313W        W27497  12.981  15.029   2.935 -0.0283  0.0199  0.3760
11314W        W27498  13.081   8.508   3.405  0.2311  0.2211  0.0705
11315W        W27499   1.806  16.097  11.013  0.1472 -0.1755 -0.2587
11316W        W27500   1.014  16.919  16.053 -0.0019  0.0645  0.0353
11317W        W27501  12.317   5.993  14.387 -0.6815 -0.0507  0.2118
11318W        W27502  11.080   6.006   5.620 -0.1340 -0.2091 -0.1249
11319W        W27503   2.845   3.056   4.241 -0.1919  0.1189  0.1558
11320W        W27504   1.138   4.477   3.041 -0.5476 -0.0757 -0.2211
11321W        W27505  13.563  12.571  11.430 -0.2243  0.0301  0.0961
11322W        W27506   6.775   9.499  14.253  0.2189  0.1091 -0.1135
11323W        W27507   7.946  15.630  11.684 -0.1269  0.2355  0.1526
11324W        W27508   1.836  18.243   0.031  0.3774  0.1614  0.0571
11325W        W27509   4.680  12.561  11.356 -0.3472 -0.3531  0.1316
11326W        W27510  15.765  13.294   0.754 -0.0336  0.0430  0.1038
11327W        W27511   4.029   9.800  13.269  0.2679 -0.1655 -0.0088
11328W        W27512   6.505   9.758   0.242  0.1047  0.2611  0.1064
11329W        W27513  10.285   9.930  12.031  0.0422  0.2422  0.2305
11330W        W27514  11.136   9.751  16.146 -0.4737 -0.2465 -0.0084
11331W        W27515  15.766   4.337   1.993  0.0103 -0.2215 -0.1175
11332W        W27516   6.650  15.137  11.706  0.1607 -0.1511 -0.1788
11333W        W27517   9.942  10.420   0.242 -0.3114  0.2005 -0.2237
11334W        W27518   7.782   1.037  11.309 -0.1347 -0.1991 -0.1324
11335W        W27519  14.246  16.900   2.349 -0.4208 -0.0246 -0.1876
11336W        W27520  10.537  18.465   3.713 -0.0753 -0.1069  0.2634
11337W        W27521  10.027  10.395  11.966  0.1334  0.1973  0.2737
11338W        W27522   2.352   2.443  13.001  0.0168 -0.3535 -0.0070
11339W        W27523  14.528   7.310   4.134  0.1530  0.0373  0.0781
11340W        W27524   7.411   2.516  12.784 -0.0342 -0.0567  0.0467
11341W        W27525   4.258  10.453   2.720  0.1800  0.1260 -0.4466
11342W        W27526   3.640  13.793  13.895  0.0265 -0.1363 -0.1826
11343W        W27527   7.756  14.281   4.004 -0.3341  0.1631  0.0163
11344W        W27528   1.550  15.264   0.562 -0.1715  0.1540  0.0635
11345W        W27529   5.793   8.811   4.278  0.3055  0.1081  0.0624
11346W        W27530  16.197   1.829  15.208 -0.2073 -0.2100  0.1374
11347W        W27531  13.222   3.973  15.055 -0.1115 -0.1464  0.3009
11348W        W27532   9.764  18.117   5.103 -0.2468 -0.1650 -0.1413
11349W        W27533   7.486   7.985  12.873 -0.1842 -0.0220 -0.0577
11350W        W27534  14.272   3.150   0.353  0.0437 -0.0027  0.0588
11351W        W27535   2.153  11.149   1.992 -0.2097 -0.0805  0.2908
11352W        W27536  12.992   6.809  15.433 -0.0815  0.2148  0.0982
11353W        W27537   6.886  10.959   3.534 -0.2070 -0.2534  0.0734
11354W        W27538   5.734  16.286  15.701  0.0278  0.2897 -0.1230
11355W        W27539   0.565   1.898   3.791  0.0075  0.3375 -0.0602
11356W        W27540  11.856  11.831  14.455  0.1147 -0.1737 -0.1894
11357W        W27541   3.499  14.434  15.958  0.2069  0.2228  0.1245
11358W        W27542  17.277  13.473   4.614  0.1824 -0.2782 -0.3150
11359W        W27543  17.201  12.768  15.095  0.0485 -0.1515 -0.2710
11360W        W27544   2.816  13.892  12.876 -0.1096 -0.0451  0.2004
11361W        W27545   2.653   3.239  12.355 -0.0390 -0.0244  0.2414
11362W        W27546  18.503   9.413   2.493  0.1716  0.1403 -0.0778
11363W        W27547   7.371  14.232   0.682 -0.1594  0.0513  0.0848
11364W        W27548   8.531   1.519   2.056 -0.0692  0.3363  0.1652
11365W        W27549   9.189  14.882   3.006  0.0368  0.1558 -0.1025
11366W        W27550   4.202  13.478  15.524  0.4383  0.1284 -0.0335
11367W        W27551  16.466   5.088   5.540 -0.0610 -0.0478  0.2432
11368W        W27552  14.080   7.440  15.202 -0.1281  0.0755 -0.2710
11369W        W27553   3.421   6.750   0.460 -0.1160  0.0936 -0.0566
11370W        W27554   5.566   6.663  15.327  0.0991 -0.1117  0.0954
11371W        W27555  12.321  13.175  13.420  0.4156  0.1255  0.0518
11372W        W27556  12.210   2.996  14.647  0.0953  0.2049 -0.1268
11373W        W27557   8.737   2.164  15.541  0.2853 -0.0059 -0.0144
11374W        W27558  17.417  15.432   3.660  0.0547  0.0788  0.0398
11375W        W27559  12.459   5.764   2.950  0.1341  0.0176 -0.0649
11376W        W27560   1.142  10.028  15.083 -0.2331  0.1023  0.0569
11377W        W27561   1.877  16.224   0.628 -0.0179 -0.1066  0.0370
11378W        W27562  16.475   9.102   3.913  0.1080 -0.2813 -0.0394
11379W        W27563  11.830   4.856   4.248 -0.3809 -0.0576 -0.0515
11380W        W27564  18.066  17.778   0.390 -0.1412  0.1209 -0.1327
11381W        W27565   0.138  13.625   4.439  0.1034  0.0219  0.0023
11382W        W27566  10.019  13.592   5.659  0.0894  0.2378  0.3611
11383W        W27567   9.210   0.504  11.494 -0.2089 -0.2274  0.0026
11384W        W27568   7.763   1.755   3.286 -0.0409 -0.0523  0.2021
11385W        W27569   9.056  18.240  10.480 -0.0881  0.3224  0.1837
11386W        W27570   4.869  16.455  13.046  0.0951  0.0777 -0.1163
11387W        W27571   8.294   4.267   3.355 -0.0357 -0.0571 -0.2848
11388W        W27572   0.680   8.834  11.051 -0.5848 -0.2491  0.1442
11389W        W27573   6.844  14.059   2.302 -0.2811 -0.2585  0.1057
11390W        W27574   6.050  10.433   2.586  0.2075 -0.1620  0.0680
11391W        W27575  14.351   2.773   4.680  0.3981 -0.0749 -0.0266
11392W        W27576   9.250   0.011  12.172 -0.1635 -0.1195  0.0162
11393W        W27577  13.517   9.105  14.606 -0.1456  0.1802 -0.2111
11394W        W27578   9.162  11.274   3.188  0.3064  0.0112 -0.1772
11395W        W27579  13.107  17.275  15.812  0.0324 -0.0838  0.2835
11396W        W27580  10.563  15.952   1.703  0.0118  0.1067  0.1911
11397W        W27581   7.018   7.580   1.169 -0.1098 -0.0805 -0.0523
11398W        W27582   1.702  11.896   3.414  0.3218 -0.1385 -0.1371
11399W        W27583   4.673   8.369  14.262 -0.1591 -0.2408  0.2577
11400W        W27584   0.695  16.025  11.707 -0.0746 -0.2228 -0.2909
11401W        W27585   0.512  10.587  10.927  0.0490 -0.0105  0.0302
11402W        W27586  10.697   1.793  13.288 -0.1887  0.0721 -0.3870
11403W        W27587   5.908   0.179   1.039 -0.0978  0.2638 -0.0399
11404W        W27588   2.781   1.357   1.221 -0.3670  0.0212 -0.2077
11405W        W27589  14.520  15.644  12.308  0.1951  0.0350  0.0936
11406W        W27590   6.297  16.036  11.754  0.0370  0.1301  0.2691
11407W        W27591  13.407  12.345   5.597  0.1803  0.1019 -0.1292
11408W        W27592   4.361   8.232   4.496  0.2652  0.2155  0.2106
11409W        W27593   0.018  11.208   1.950 -0.0563 -0.0225 -0.3318
11410W        W27594  13.463  13.946  13.444  0.3442  0.1243  0.3062
11411W        W27595   7.302   5.130   6.058 -0.0909  0.0387  0.1297
11412W        W27596  11.070  10.251   4.461 -0.8163 -0.0370 -0.2469
11413W        W27597   2.795   7.533  13.366  0.0963  0.1454 -0.1463
11414W        W27598   3.080  16.284   4.685 -0.1809  0.0401 -0.1799
11415W        W27599  14.666  16.443  10.000  0.1547  0.4126  0.1140
11416W        W27600  17.757  14.234   2.231 -0.2334 -0.2360  0.1005
11417W        W27601  15.059  13.014   2.173  0.0160  0.0541 -0.1150
11418W        W27602  12.708  16.592  10.393 -0.0190 -0.3787  0.0283
11419W        W27603  13.445  10.620  14.729 -0.3123 -0.0524  0.1388
11420W        W27604   9.211   5.757   0.793 -0.0668 -0.0907  0.1616
11421W        W27605  12.745   9.328   0.596 -0.1091  0.3235 -0.1355
11422W        W27606   0.802   4.867   1.846  0.0222  0.1883  0.0250
11423W        W27607  11.286  16.117  13.186 -0.1809  0.2826 -0.0917
11424W        W27608   8.472  15.310  13.182 -0.1410 -0.1126 -0.1406
11425W        W27609   4.579   9.292  15.054 -0.1442  0.1663 -0.2517
11426W        W27610  12.813  10.223   4.874 -0.3718 -0.0933  0.5745
11427W        W27611  16.437   4.868   1.510 -0.4604  0.1986 -0.0378
11428W        W27612  16.391  14.851   6.076 -0.1118 -0.0533 -0.1458
11429W        W27613  16.025  12.025   1.985 -0.0276 -0.2025 -0.0101
11430W        W27614   1.905  17.109   2.133  0.0692  0.3814 -0.2010
11431W        W27615  17.863  11.698  13.754 -0.0363  0.0842  0.2213
11432W        W27616  14.031  13.470  15.638 -0.3867  0.1745  0.1860
11433W        W27617  17.890   4.336   4.313  0.1909 -0.3002  0.0746
11434W        W27618   3.413   8.235   4.154  0.0386  0.0035  0.3116
11435W        W27619   0.146  16.952  14.932 -0.0098  0.2506 -0.3202
11436W        W27620   0.980   7.028   0.971  0.1232 -0.0867 -0.2675
11437W        W27621  13.531   0.510  11.029  0.1192 -0.2706 -0.3495
11438W        W27622   6.276   3.855  11.331  0.1418  0.0956 -0.0078
11439W        W27623  10.979  17.904  13.015 -0.0478 -0.0052 -0.1693
11440W        W27624  12.481  16.112  16.126  0.0418  0.0564  0.1466
11441W        W27625   3.248  14.783  10.263 -0.1441 -0.1294  0.4701
11442W        W27626  15.332   1.912   1.149 -0.2774 -0.1729  0.0846
11443W        W27627   0.540  10.634   1.010 -0.1987 -0.0742  0.4268
11444W        W27628   2.752  15.145   9.951 -0.0488  0.4101 -0.1937
11445W        W27629  11.144   1.215   2.398  0.0909  0.0223 -0.2092
11446W        W27630   2.353  12.442  13.208  0.0367 -0.1740  0.1841
11447W        W27631   2.330  11.968   0.265  0.3247  0.1205 -0.4197
11448W        W27632  15.745   7.033   3.518 -0.1881 -0.0910 -0.2574
11449W        W27633   7.052   1.037  11.998  0.0098 -0.0517 -0.4384
11450W        W27634  14.724   6.839   4.262  0.0684  0.0171  0.0079
11451W        W27635   3.574   7.154  11.771  0.2629 -0.3609  0.1058
11452W        W27636  16.930   5.409  16.132 -0.0489 -0.0234 -0.1121
11453W        W27637   0.191  12.383   1.277  0.0293 -0.0656 -0.1870
11454W        W27638  13.688  10.822   1.747 -0.1707 -0.0391 -0.0171
11455W        W27639   9.180   9.218  12.250 -0.1305  0.1805 -0.0016
11456W        W27640  13.487  12.136   2.499  0.2819  0.1518  0.0223
11457W        W27641   2.807   8.051   2.229 -0.2386  0.0750 -0.4230
11458W        W27642  13.397   2.327  15.174  0.2241 -0.3423  0.1915
11459W        W27643  14.027   0.309   2.808  0.0803 -0.0160  0.1453
11460W        W27644  15.880   8.629   0.182 -0.1638  0.0468  0.1309
11461W        W27645   9.231  17.962   4.174 -0.1762 -0.0911  0.1339
11462W        W27646   8.537  18.466  11.705 -0.0504 -0.0068  0.4317
11463W        W27647   5.280   7.053   1.231  0.2153 -0.0050  0.2547
11464W        W27648  12.214  15.633  13.923 -0.0228  0.2406 -0.2943
11465W        W27649   6.344   3.140   1.264  0.1114  0.4786  0.0399
11466W        W27650   8.731  13.288  14.970 -0.2358 -0.3477 -0.0342
11467W        W27651  18.051  10.178  12.197  0.2593 -0.0700 -0.1879
11468W        W27652   2.606   5.431  15.718  0.0515 -0.1123 -0.2099
11469W        W27653   7.965  16.490   5.341  0.0225  0.2323 -0.2099
11470W        W27654  11.884   2.443  13.931 -0.0017 -0.0225  0.0577
11471W        W27655   5.333  16.211   0.951  0.0887  0.0308 -0.0313
11472W        W27656   9.870  14.858   4.997  0.0202  0.1336  0.1990
11473W        W27657   5.964   3.179   3.516 -0.0791 -0.2555  0.0977
11474W        W27658   1.991  10.002  12.876 -0.2523  0.2158 -0.1142
11475W        W27659  16.674   3.168   5.560 -0.1711 -0.2105 -0.0120
11476W        W27660  16.985  11.264  11.641  0.0045  0.0195 -0.1411
11477W        W27661  14.764   3.947  15.660 -0.0343  0.2950 -0.0035
11478W        W27662  17.771   5.702   4.315  0.0421  0.2023 -0.0466
11479W        W27663   6.518   6.911   0.638  0.1473 -0.0108  0.3201
11480W        W27664   1.532  15.119   3.445 -0.0288 -0.1731 -0.2203
11481W        W27665   2.949   2.006   4.696  0.0557  0.1306 -0.2607
11482W        W27666  13.826   7.126  11.495 -0.0777 -0.0243  0.0162
11483W        W27667   7.963  12.319   5.287 -0.1150  0.0043  0.2302
11484W        W27668   2.330   9.847   1.674  0.2515  0.2111  0.2337
11485W        W27669   6.131   3.969   0.396 -0.2092 -0.0495 -0.1068
11486W        W27670   0.821   5.203  11.969 -0.0044  0.3443 -0.2936
11487W        W27671   9.457   6.593   1.134 -0.4513  0.5174 -0.1015
11488W        W27672   8.304  10.174   2.118  0.0951  0.2132  0.1028
11489W        W27673   5.103  13.436  11.610 -0.0238  0.0690  0.2546
11490W        W27674  18.004   8.081   4.515  0.2414 -0.0789  0.0664
11491W        W27675  16.449   5.621   0.834  0.3896 -0.1004  0.0080
11492W        W27676   6.281   0.742  15.820 -0.0251  0.1486 -0.2464
11493W        W27677   1.469  10.748  14.843  0.1351  0.0203 -0.1232
11494W        W27678   3.821  16.704   3.904  0.0955 -0.1493  0.1351
11495W        W27679  15.190   3.823  15.339  0.1093 -0.1083  0.0246
11496W        W27680   8.890   7.702  11.996  0.0259 -0.0139  0.1439
11497W        W27681  11.035  13.155  12.469  0.1016  0.1927  0.1160
11498W        W27682   7.257   6.640   3.817 -0.2189 -0.0240 -0.0171
11499W        W27683   4.725  14.939  14.198 -0.1125 -0.1542  0.0354
11500W        W27684  12.506   8.288   0.210  0.3651  0.2354  0.1481
11501W        W27685   6.688  13.544  13.669 -0.0122 -0.2250  0.1861
11502W        W27686   1.413   2.465   4.966 -0.4741  0.4759  0.1112
11503W        W27687  11.202   3.539  11.635 -0.2308 -0.0994  0.2252
11504W        W27688   4.591   0.269  13.390 -0.0521  0.0811  0.1434
11505W        W27689  17.620  11.264  15.059 -0.1608 -0.1551  0.3218
11506W        W27690   1.709  11.901   4.520 -0.0589 -0.0108  0.0364
11507W        W27691  14.240   0.676  12.517 -0.0887 -0.3152  0.3390
11508W        W27692   5.437   5.824   4.162 -0.2025 -0.2788 -0.2725
11509W        W27693   3.390  11.723  15.716 -0.1568  0.1750  0.2256
11510W        W27694  11.161  18.031  13.932  0.0145  0.0477  0.0068
11511W        W27695  10.100   4.558   2.144 -0.1285 -0.3232  0.0250
11512W        W27696   0.549  14.705   4.069  0.0566  0.2584  0.0767
11513W        W27697   5.608  18.214   0.266  0.1194 -0.1850 -0.0428
11514W        W27698  15.249  17.476  15.102 -0.2423 -0.0603  0.1483
11515W        W27699   3.239   8.566  12.723 -0.0168  0.0382  0.0850
11516W        W27700  15.036  13.249   3.557 -0.1477 -0.1816 -0.0662
11517W        W27701   2.337  10.628  12.629  0.0325 -0.3203 -0.3246
11518W        W27702  10.276   5.226   4.918  0.3645 -0.0058 -0.0333
11519W        W27703   5.957   2.707  11.656 -0.1262 -0.1749  0.1979
11520W        W27704  12.921   8.812  14.999 -0.2424 -0.0639 -0.3296
11521W        W27705  11.122  16.241  14.463  0.1453  0.2659 -0.1341
11522W        W27706   4.925  17.627  15.500 -0.2155  0.0265  0.1249
11523W        W27707   9.664  17.384   4.605 -0.2188 -0.2926  0.0119
11524W        W27708   3.497   9.305   4.240  0.1990 -0.0316 -0.2423
11525W        W27709   9.482   6.926   4.928  0.0757 -0.0254  0.5426
11526W        W27710   8.357   8.153  15.464 -0.1428 -0.1751  0.3036
11527W        W27711   4.270   0.648  15.750  0.2016  0.0943 -0.4483
11528W        W27712  11.997  16.804   5.511 -0.1326  0.2022  0.2069
11529W        W27713  10.125   0.173  14.019  0.1983  0.1161  0.0156
11530W        W27714   6.967  14.838  15.664  0.3454 -0.1610  0.0316
11531W        W27715   6.383  13.964  14.351  0.1593  0.1846  0.1948
11532W        W27716  18.136   2.003  12.864 -0.0879  0.0985 -0.1726
11533W        W27717  17.733   2.405  15.938  0.1890  0.1656  0.1989
11534W        W27718   5.531   3.798  14.454 -0.0529 -0.2512 -0.2066
11535W        W27719  15.985  10.626   3.401 -0.1514  0.2019 -0.1717
11536W        W27720   3.318  11.443  14.039 -0.0198 -0.0484 -0.0671
11537W        W27721  17.942  18.355  15.251 -0.0203  0.2520 -0.0898
11538W        W27722   0.056   5.919  15.864  0.0338 -0.1234  0.2849
11539W        W27723   2.275   3.976  14.194  0.0682  0.3990  0.0123
11540W        W27724   1.289   7.483   0.097  0.0777 -0.0189 -0.2491
11541W        W27725   7.954  10.156   1.125  0.0509  0.0123 -0.0119
11542W        W27726  11.952   3.655   3.261 -0.0753 -0.1893  0.3300
11543W        W27727   6.475  11.799  15.716  0.0399 -0.2062  0.0638
11544W        W27728   9.256  15.730   3.039 -0.0957  0.1983 -0.0750
11545W        W27729  13.322   9.930  14.197  0.1110 -0.0878 -0.2474
11546W        W27730   8.405   5.430   5.843 -0.0828  0.0414  0.1948
11547W        W27731  17.223   1.964  15.264  0.1142  0.1814  0.0266
11548W        W27732  11.775   7.155   5.575 -0.1057 -0.3645  0.3506
11549W        W27733  14.974   1.810   5.024  0.0095 -0.3555  0.2442
11550W        W27734   6.750  15.970  14.703 -0.0485  0.1841 -0.1673
11551W        W27735  16.683  18.484   1.154 -0.0447 -0.1955  0.0371
11552W        W27736   9.479  14.181   1.109 -0.2604  0.0990  0.1994
11553W        W27737  12.564  11.266  14.486 -0.1646 -0.0240 -0.0313
11554W        W27738  17.972  11.942  15.786 -0.0218 -0.2364 -0.0297
11555W        W27739   7.628  17.240  15.223 -0.2263  0.2699  0.0676
11556W        W27740   0.477   1.043  15.983 -0.0742  0.0244  0.2208
11557W        W27741   4.058   6.783  13.204 -0.0547 -0.2171 -0.0017
11558W        W27742  14.938   0.205   5.859 -0.1080 -0.0199 -0.2454
11559W        W27743  13.414  10.292  15.719  0.0507 -0.1630  0.1066
11560W        W27744   8.351  13.867  11.935 -0.0696 -0.3864 -0.0109
11561W        W27745   4.314  15.609   3.385 -0.1662  0.1711  0.0747
11562W        W27746  17.010   4.058   0.585 -0.2643  0.1582 -0.1862
11563W        W27747   3.543  12.059  12.631  0.1872  0.1142  0.1719
11564W        W27748   0.726   8.350  13.534 -0.3730 -0.0199 -0.2977
11565W        W27749  16.892  16.904   2.710  0.1768 -0.0679 -0.1018
11566W        W27750  17.362  13.588   1.171  0.0687 -0.0311 -0.0886
11567W        W27751  13.240  18.083  11.545 -0.1750  0.0537 -0.1014
11568W        W27752  16.642  15.889   5.306  0.1874  0.1249  0.1340
11569W        W27753  18.323  11.628  12.954  0.1149  0.0967  0.1866
11570W        W27754  16.398   7.147  11.879 -0.1143  0.2230 -0.0025
11571W        W27755  13.490   2.254  12.440  0.0423 -0.0065  0.1289
11572W        W27756  13.207  17.193   0.554  0.1517  0.0987 -0.0060
11573W        W27757  14.172   3.739  14.817 -0.3726 -0.1328  0.0830
11574W        W27758  11.088   6.402  11.991 -0.3595  0.1619 -0.0048
11575W        W27759  11.835  16.108   4.207  0.1424 -0.1934  0.0662
11576W        W27760   3.155  14.099  13.280  0.0079 -0.1532 -0.0237
11577W        W27761  10.985   6.451   3.793  0.0884 -0.1866 -0.1325
11578W        W27762  11.665  15.026   5.555  0.0665  0.1147  0.2018
11579W        W27763  15.123  14.340  13.332  0.0523 -0.3179  0.0847
11580W        W27764   3.391  11.342   5.116  0.0383 -0.4122 -0.1706
11581W        W27765  15.113   5.705  15.709  0.3905  0.0247 -0.0925
11582W        W27766   4.957  16.910   2.134  0.3587 -0.3704 -0.0264
11583W        W27767  10.789  15.085   2.620  0.0449  0.0549  0.2356
11584W        W27768   3.946   3.734   3.040  0.0521 -0.2411 -0.1834
11585W        W27769   0.122   1.739  13.869  0.2858 -0.3720 -0.0301
11586W        W27770   3.100   1.327   3.896 -0.0267  0.0852 -0.4819
11587W        W27771   8.904  13.039   1.621  0.0433 -0.0244  0.0253
11588W        W27772   0.403  14.292   3.808  0.2584  0.0686  0.0650
11589W        W27773   3.214  17.871  14.621  0.0060  0.1269 -0.1620
11590W        W27774   0.279   0.090  12.530  0.2382  0.2081  0.1129
11591W        W27775  12.723   8.263  15.918  0.1023  0.4092 -0.2526
11592W        W27776  15.107  10.222   5.606 -0.2696 -0.1083 -0.1692
11593W        W27777  13.477   6.789   6.269  0.1250 -0.1201 -0.1469
11594W        W27778   7.460   3.745   5.110  0.0534  0.0317  0.2211
11595W        W27779   3.125   9.664  15.308  0.0717  0.3615 -0.3298
11596W        W27780   1.625   4.913  13.420  0.0154  0.0545  0.0944
11597W        W27781   6.065  12.087   2.232  0.2071 -0.2950  0.0476
11598W        W27782  17.540  10.414   4.752  0.0496  0.0445 -0.2466
11599W        W27783  11.703  10.837  15.138 -0.1729  0.1276 -0.2813
11600W        W27784   2.025  17.020   4.249 -0.2208  0.2096 -0.0562
11601W        W27785  12.611   1.499  15.136 -0.1776  0.2229  0.0323
11602W        W27786  12.625  12.627  15.329 -0.0874  0.1302  0.1872
11603W        W27787   8.026   1.322  10.996 -0.0174 -0.1519  0.0874
11604W        W27788  18.466  11.381  12.477  0.1847  0.3236  0.2948
11605W        W27789   8.296   7.560   1.444 -0.1879 -0.1407 -0.0284
11606W        W27790   9.917   5.816  14.617  0.0481 -0.2441 -0.1416
11607W        W27791   0.269   8.413  13.866  0.2661  0.0716  0.2483
11608W        W27792   2.201  17.417  15.767  0.4924  0.0597  0.0832
11609W        W27793   5.458  16.371   1.767  0.1368  0.0061 -0.0046
11610W        W27794   9.971   9.051  11.890  0.5390 -0.0436  0.1990
11611W        W27795   4.930  16.340   5.573  0.2981  0.2367 -0.1018
11612W        W27796  17.062   4.834  12.640 -0.1023 -0.0581  0.2384
11613W        W27797   4.073   9.782   0.990  0.0153  0.1060 -0.3761
11614W        W27798   8.476   2.992  16.039  0.2089  0.1063 -0.0075
11615W        W27799   6.327   9.701   0.886  0.0740 -0.1025 -0.3754
11616W        W27800   3.145  11.927   0.037  0.0104  0.1720 -0.2653
11617W        W27801   9.526  16.339   4.406 -0.2237 -0.1588 -0.0246
11618W        W27802   1.273  14.409  12.361 -0.1430 -0.0301  0.1495
11619W        W27803   4.157  14.729  11.225  0.1555  0.5364 -0.1040
11620W        W27804  14.762   0.494  16.061  0.0322  0.2463  0.1313
11621W        W27805   1.174  12.121  14.802  0.2286 -0.0976  0.1650
11622W        W27806  10.028   8.571   2.518  0.0918 -0.0081 -0.2371
11623W        W27807  13.394   6.713  14.714  0.1893  0.0315 -0.2538
11624W        W27808   2.243  12.390  10.428 -0.2181  0.1002 -0.0679
11625W        W27809   5.694  11.531   0.495 -0.0203  0.1326  0.0472
11626W        W27810  14.515   7.850  13.788 -0.2273 -0.1843 -0.1557
11627W        W27811  11.534   7.390   5.960  0.4571 -0.1492 -0.0063
11628W        W27812   4.741   7.370  15.181  0.1818  0.1341  0.1490
11629W        W27813  17.946  11.149   1.185  0.1040  0.1537  0.2234
11630W        W27814   8.893   6.960  14.450  0.0991  0.1711 -0.3924
11631W        W27815   1.011   2.863   0.374 -0.0081  0.1442 -0.0139
11632W        W27816  17.389  17.504   2.352 -0.0587 -0.2151 -0.1075
11633W        W27817   9.446   3.048   3.432  0.0924 -0.0315  0.1071
11634W        W27818   2.322   7.964   3.994 -0.2589 -0.1125  0.1786
11635W        W27819  18.380   6.679  12.713  0.3575 -0.0210 -0.1352
11636W        W27820   7.734   2.428  13.597  0.0872 -0.0271  0.0211
11637W        W27821  15.056   1.417   2.472 -0.2732  0.1397 -0.0097
11638W        W27822   8.690  16.981   0.620 -0.0570 -0.2214 -0.1171
11639W        W27823   8.189   2.690  12.292 -0.0311  0.1779 -0.3858
11640W        W27824  14.937  15.468  12.501 -0.2704  0.2082  0.1218
11641W        W27825  11.670   7.122   3.699  0.1508  0.0927  0.0803
11642W        W27826   1.586  12.384  15.994 -0.0515  0.2625  0.3191
11643W        W27827   1.211   6.594  11.304  0.0969 -0.0210  0.2249
11644W        W27828   7.070   0.228  13.272  0.1725  0.1524  0.6901
11645W        W27829   7.867   8.293   3.653 -0.2775 -0.0222  0.0159
11646W        W27830   2.955   7.413  13.870 -0.2106  0.0425 -0.3612
11647W        W27831   2.005  11.453   5.356 -0.2389 -0.2389 -0.1920
11648W        W27832   7.810  12.433  15.105  0.3392 -0.1724  0.0108
11649W        W27833   4.861  13.539   0.306 -0.1474  0.0447  0.0570
11650W        W27834  16.905  12.012   0.010 -0.0353 -0.3662  0.1035
11651W        W27835  13.313  18.083   2.269  0.1032 -0.1991 -0.0569
11652W        W27836  15.705  10.827  13.651  0.2374  0.2079  0.3572
11653W        W27837  13.285   1.925  12.064  0.0151  0.0380 -0.0748
11654W        W27838  13.868  17.666  10.962  0.0200  0.2289  0.1532
11655W        W27839   7.212  17.132   5.037  0.0439  0.2355  0.0051
11656W        W27840   2.720   6.715   4.860 -0.5380  0.1067  0.0174
11657W        W27841  11.559   8.671  13.647  0.2563 -0.0856 -0.0759
11658W        W27842  10.088  14.944  12.775 -0.1144 -0.3985 -0.0706
11659W        W27843   1.835  11.705  15.652  0.4844 -0.0419 -0.1172
11660W        W27844  12.851   9.958   1.787  0.3412  0.3485  0.1589
11661W        W27845   4.761  12.541   0.942  0.3319  0.0729 -0.0033
11662W        W27846   4.098   0.241   0.652  0.3553 -0.2754 -0.1002
11663W        W27847  13.120  15.465  15.193  0.2178  0.0446  0.0356
11664W        W27848   0.864  14.830  13.808  0.1147  0.0686 -0.4204
11665W        W27849   3.826  14.356  15.192  0.1536 -0.2086  0.1275
11666W        W27850  14.998  12.144   1.281 -0.0645  0.1564  0.2920
11667W        W27851  15.533  12.851   2.851  0.0287  0.1918  0.3165
11668W        W27852  13.417  14.329  15.848  0.1856 -0.0851 -0.1077
11669W        W27853  10.928  13.415  13.919  0.1581 -0.0649  0.0557
11670W        W27854   3.892   0.242  14.596 -0.2028  0.0457  0.0006
11671W        W27855  16.486   4.389  14.010  0.0106  0.5051 -0.1281
11672W        W27856   4.458  13.698   0.612 -0.0890  0.2989  0.0644
11673W        W27857  11.630  11.108  15.535 -0.0332 -0.1309 -0.2548
11674W        W27858  15.541   4.526   0.580 -0.1582  0.0682 -0.0875
11675W        W27859   6.193   7.676  14.003 -0.1581 -0.0256 -0.2182
11676W        W27860   1.377  17.499  15.293 -0.2174  0.1977 -0.2547
11677W        W27861  16.522   0.422  12.708 -0.1522 -0.2832 -0.0907
11678W        W27862   0.344  11.976   0.018  0.1009 -0.0289  0.0673
11679W        W27863   2.910  17.420  13.810 -0.1191  0.1668 -0.1456
11680W        W27864   4.276  10.880  13.733 -0.0071  0.1869 -0.1416
11681W        W27865  15.816  18.213   1.657  0.1937 -0.1416 -0.0374
11682W        W27866  16.716  15.408   2.592  0.0513 -0.0248 -0.2417
11683W        W27867   3.903  14.644  13.322  0.4760  0.1897  0.1475
11684W        W27868  13.031   8.913   2.711  0.3457  0.2106  0.1512
11685W        W27869  11.533   5.611   5.324  0.0106  0.0558  0.1490
11686W        W27870   6.757  14.858   2.072  0.0811 -0.0171  0.1808
11687W        W27871   6.310  12.709   0.725 -0.2512  0.0086  0.2011
11688W        W27872  17.535   3.814  11.125 -0.1795  0.1002 -0.0750
11689W        W27873  10.130   0.644  13.697 -0.0121 -0.0447 -0.0642
11690W        W27874   7.428  11.268  11.851  0.0137 -0.0100 -0.0020
11691W        W27875  18.022  17.277  12.194 -0.1013  0.1457 -0.1581
11692W        W27876  10.914   7.729   2.949 -0.0578  0.2782  0.1232
11693W        W27877   7.776   1.312  12.662  0.1039  0.1316  0.0934
11694W        W27878   8.036  16.854  14.516  0.1192  0.3159  0.0235
11695W        W27879  12.938   4.801   0.864 -0.4372  0.0446  0.0390
11696W        W27880  18.124  13.019  11.342  0.0770  0.2001  0.1465
11697W        W27881   7.240   3.446   3.562  0.0031  0.1044 -0.3312
11698W        W27882   2.799   9.503   3.305 -0.0895  0.2891 -0.1971
11699W        W27883  10.746   0.147   1.431 -0.0904 -0.0246 -0.2608
11700W        W27884  18.285   6.944   0.934 -0.1494  0.3121  0.1139
11701W        W27885   8.467  16.124   1.356 -0.2612  0.1894 -0.0019
11702W        W27886  18.237   1.267  13.385  0.0424 -0.1952 -0.0713
11703W        W27887   0.953   2.912  10.343  0.0406  0.0342 -0.1403
11704W        W27888   1.646  12.363   5.058 -0.1673  0.3548 -0.1363
11705W        W27889   8.231  16.189  13.728 -0.2306 -0.0397 -0.0825
11706W        W27890   7.592   1.902   5.277  0.0284  0.1000  0.0988
11707W        W27891   3.450  16.753   2.119 -0.1153 -0.1974  0.1857
11708W        W27892  14.457  14.726  15.308  0.0306  0.0091 -0.0830
11709W        W27893  18.226  13.787  13.135  0.0057  0.0405  0.0388
11710W        W27894   0.222   5.760  13.073  0.2573  0.1420 -0.3062
11711W        W27895  13.854   0.683  15.336 -0.0200 -0.1679 -0.0700
11712W        W27896   9.801   1.096   4.093  0.0987 -0.0526 -0.2086
11713W        W27897  13.665  12.638  13.627 -0.3217 -0.1582 -0.0946
11714W        W27898   3.765  10.383   2.683 -0.2189 -0.0167  0.1435
11715W        W27899   6.338   2.246   1.007  0.3703 -0.0053 -0.0859
11716W        W27900  16.756   0.291   4.254 -0.0091  0.1343  0.1285
11717W        W27901  10.084   4.405   3.988 -0.1908  0.1060  0.1589
11718W        W27902  16.586  10.934  15.644 -0.0738  0.0701  0.0921
11719W        W27903  14.132  17.485   5.576 -0.0825 -0.0551 -0.0830
11720W        W27904  17.777   0.207   1.282  0.3966  0.1141 -0.3472
11721W        W27905  12.035  16.158   4.719 -0.2118  0.0946  0.0916
11722W        W27906   4.416   1.718  15.427 -0.2013  0.0366 -0.1163
11723W        W27907   9.630   1.860   2.394  0.0678  0.1607 -0.2887
11724W        W27908  14.742   6.840  15.013  0.1513 -0.1609  0.0252
11725W        W27909   0.642   0.442  13.390 -0.0003 -0.2725 -0.0682
11726W        W27910   0.670  16.165   2.123 -0.1931 -0.1909  0.0887
11727W        W27911   4.700  13.057   1.677  0.3018 -0.0750 -0.0506
11728W        W27912   9.971   9.517   2.742 -0.0078 -0.1568  0.1617
11729W        W27913  18.472   9.733   5.788 -0.1439 -0.1963  0.0198
11730W        W27914   8.957   0.274   2.857 -0.1068 -0.1828  0.0156
11731W        W27915  11.539   5.892   3.195  0.1285  0.0869  0.2026
11732W        W27916  11.518  16.474  14.833 -0.0451 -0.2156  0.1728
11733W        W27917   9.119   5.544  14.288 -0.0417  0.0521  0.1454
11734W        W27918   1.068   1.363  15.509 -0.0436 -0.0979 -0.0633
11735W        W27919   8.170   2.115  13.527 -0.1181 -0.1803  0.3198
11736W        W27920  10.380  15.106  13.640  0.0433  0.1641  0.0912
11737W        W27921   3.626   1.778   5.269 -0.2922 -0.0457  0.0578
11738W        W27922  15.238  16.420  15.154 -0.0556  0.1030  0.1644
11739W        W27923   4.897   7.722   2.811  0.1612  0.0192 -0.2637
11740W        W27924   6.291   9.020  15.576 -0.2514  0.0571 -0.0116
11741W        W27925  18.517  11.497  14.854  0.1471 -0.3104  0.2055
11742W        W27926   8.342   0.005   4.220 -0.1057  0.1026  0.2003
11743W        W27927   2.465  17.092   0.798  0.1717  0.1387  0.0990
11744W        W27928  11.958   9.980   0.111 -0.0328  0.0999  0.1179
11745W        W27929  13.531   1.362  14.003 -0.1052 -0.0373  0.0009
11746W        W27930   0.611  13.918   3.378  0.2478  0.0442  0.0982
11747W        W27931   3.205  13.133  12.271  0.0382 -0.0578 -0.2928
11748W        W27932   2.143   6.828  14.055 -0.2737 -0.0849  0.1480
11749W        W27933   4.936  12.174   3.661  0.1128 -0.3865  0.2855
11750W        W27934  12.788   4.643   4.973 -0.2434 -0.0493  0.1834
11751W        W27935  14.022   8.238  13.734 -0.3524  0.1655 -0.0520
11752W        W27936   3.536  14.998   2.288 -0.0418 -0.1611  0.2436
11753W        W27937   1.958   7.601   5.446  0.2053  0.0744 -0.3138
11754W        W27938   1.738  11.478   3.136 -0.0821 -0.3987 -0.0173
11755W        W27939   4.554  12.227   3.296 -0.0504  0.0318  0.1529
11756W        W27940  15.636  11.547  11.248 -0.1944 -0.1653  0.1658
11757W        W27941  14.092  14.885  11.102 -0.1016 -0.2470  0.2997
11758W        W27942  11.003   3.413  12.520 -0.3430 -0.1831  0.1026
11759W        W27943   2.634  16.682   0.995  0.0367  0.0750  0.2492
11760W        W27944  18.438   4.310  14.543  0.1476  0.1623 -0.0530
11761W        W27945  14.691  12.021   1.687 -0.2468  0.0506 -0.0896
11762W        W27946  17.847   2.859  16.066  0.0417  0.2124 -0.0549
11763W        W27947  14.565  13.882  14.263 -0.2190  0.0222 -0.0483
11764W        W27948  12.421   3.816  15.596 -0.0307  0.0345  0.2161
11765W        W27949   4.894   8.381   4.628  0.1509  0.4114  0.0884
11766W        W27950  15.493   5.367   2.985  0.0324  0.0098 -0.1280
11767W        W27951  15.755  11.389   1.102  0.4609 -0.0053  0.0510
11768W        W27952  17.430  16.008  15.119  0.1808  0.4253  0.5779
11769W        W27953   5.059  17.159   1.338  0.0013  0.1042 -0.1058
11770W        W27954   1.985   8.021   3.175  0.0413 -0.1632 -0.1254
11771W        W27955  16.989   0.731   4.202  0.0694  0.0442 -0.0337
11772W        W27956   0.267   6.745   0.883 -0.1431 -0.0661  0.0866
11773W        W27957   6.484  11.276  14.377 -0.0767 -0.3110  0.0069
11774W        W27958   4.725   5.947   1.208  0.0059  0.1077 -0.0513
11775W        W27959  10.974  13.515  12.133  0.1811  0.0708  0.0052
11776W        W27960   5.699  10.534   1.255 -0.2859  0.0281  0.2311
11777W        W27961  14.760   2.091  14.970 -0.0945  0.2464 -0.0433
11778W        W27962   7.742  12.114   5.902  0.7172  0.0795  0.3140
11779W        W27963   4.382  17.391  14.162 -0.2664 -0.2069  0.0364
11780W        W27964  11.283   9.324   5.523  0.2065  0.0453  0.1906
11781W        W27965  17.282   9.094   1.902 -0.1324 -0.2226 -0.3984
11782W        W27966   9.156   3.355  13.743  0.0866 -0.1430  0.1168
11783W        W27967  15.102   7.156   4.002 -0.2840  0.0886  0.0588
11784W        W27968  12.821  16.447   2.179  0.0893  0.0536 -0.3091
11785W        W27969  15.579   1.951  11.471 -0.1052 -0.2830  0.2415
11786W        W27970  10.574   7.538  12.605  0.1296  0.0447  0.1912
11787W        W27971   7.902   0.227   5.335 -0.2164  0.0439  0.0396
11788W        W27972   8.403  18.310  14.514  0.1081  0.1497 -0.1859
11789W        W27973   6.854  12.747  12.634  0.1005  0.1820  0.1126
11790W        W27974   6.912   6.650   4.359  0.0718 -0.0343 -0.1444
11791W        W27975   9.166  12.134   1.529  0.0062  0.2616 -0.3693
11792W        W27976  12.673   5.138   4.974  0.0956  0.0235 -0.1030
11793W        W27977   6.867   4.911   1.070 -0.1813  0.0399  0.0617
11794W        W27978  13.426   4.452   5.890  0.2119 -0.2530  0.2312
11795W        W27979   1.635   6.615  14.800 -0.0222  0.2551  0.1107
11796W        W27980  13.245   0.113   4.345  0.1956 -0.2464 -0.4071
11797W        W27981  15.881   1.258  15.711  0.2525  0.0227 -0.0746
11798W        W27982   8.203  10.803   5.107 -0.1389  0.1382  0.0158
11799W        W27983  17.877   5.912   0.072 -0.0380  0.0995 -0.1249
11800W        W27984  18.062  15.185   1.003 -0.1489 -0.3240 -0.2264
11801W        W27985  13.147  17.054   4.379  0.2389  0.1200  0.3102
11802W        W27986   7.255  13.233   3.139 -0.0905  0.1115  0.4066
11803W        W27987  15.894   4.893   1.394  0.0402 -0.1524  0.0519
11804W        W27988   5.786   7.999  15.038 -0.0025 -0.1762 -0.0219
11805W        W27989   6.561  15.453   2.166  0.0830  0.0637 -0.0312
11806W        W27990   4.121  17.199   3.074  0.3834 -0.0429 -0.0902
11807W        W27991  17.418   6.531   3.850 -0.5360  0.1104 -0.1646
11808W        W27992  18.177   8.155  15.152  0.0857 -0.0347  0.0375
11809W        W27993  17.971   6.809  15.934 -0.1323  0.1151 -0.5005
11810W        W27994  16.311  16.250   2.976 -0.0336 -0.2102  0.2205
11811W        W27995  10.844  11.336   4.383 -0.1789 -0.2737  0.2087
11812W        W27996  16.344  11.682   2.888 -0.1337 -0.2001 -0.0247
11813W        W27997   7.960   9.510  10.405  0.2410  0.0327 -0.2853
11814W        W27998   5.384   1.201   5.059 -0.0854  0.1429 -0.1207
11815W        W27999   6.873   3.289   4.626 -0.2580 -0.1916  0.0042
11816W        W28000  10.617  15.363   4.718 -0.3031 -0.2125  0.0494
11817W        W28001   9.552   0.328   4.872 -0.2744  0.0660 -0.0073
11818W        W28002  14.583   7.719   3.303 -0.0704  0.2787 -0.2603
11819W        W28003  18.436   7.594  13.629  0.1655 -0.1026 -0.0991
11820W        W28004   7.368   4.451   3.595  0.1313  0.1041 -0.2951
11821W        W28005  14.827  12.610   0.792  0.0418 -0.3044  0.0515
11822W        W28006   7.869   2.051   0.498 -0.2305  0.2758  0.0221
11823W        W28007  16.296   1.451  15.535 -0.0911 -0.1739  0.1668
11824W        W28008  15.321   8.552  12.134  0.1505 -0.1104  0.2944
11825W        W28009   9.099  18.297  12.614  0.1157 -0.1210  0.2271
11826W        W28010  16.027  10.630   4.344  0.3571 -0.3027 -0.2331
11827W        W28011  10.736  15.355  16.116 -0.0749  0.3028  0.0824
11828W        W28012  15.700   0.298  13.500 -0.2530  0.3020  0.1756
11829W        W28013  16.852   1.537  14.131  0.0214 -0.1545 -0.1609
11830W        W28014   8.770  11.228   1.913  0.0467 -0.1408  0.0643
11831W        W28015  16.795  11.466  13.557  0.0561  0.0965  0.1476
11832W        W28016  13.461  14.938   1.514  0.2010 -0.2993  0.0263
11833W        W28017   9.869  16.367   0.616  0.0656 -0.0086  0.0772
11834W        W28018  17.739  17.197   4.113 -0.1527  0.2514 -0.0054
11835W        W28019  11.790  17.864   1.218 -0.1364  0.0835  0.4964
11836W        W28020   7.885   5.897  13.973  0.1928  0.1484  0.1747
11837W        W28021  10.813  17.901   1.025  0.1030 -0.2415  0.1296
11838W        W28022   6.952   7.611  11.587 -0.1990 -0.2085 -0.0975
11839W        W28023   2.435   6.752  14.513 -0.1139  0.0008 -0.0702
11840W        W28024   1.620   9.151   4.045 -0.0267 -0.0574 -0.0417
11841W        W28025   1.397  17.204   2.196  0.0008 -0.3404  0.4618
11842W        W28026  16.287   5.130  13.718 -0.1428 -0.0900 -0.4426
11843W        W28027  15.153   9.336   2.743 -0.0006 -0.0235 -0.0851
11844W        W28028   3.675   7.615  12.465 -0.3044  0.0772  0.3044
11845W        W28029  14.662  11.648   2.677 -0.2717  0.0875 -0.3093
11846W        W28030  17.474  18.066  15.171  0.2570  0.0798  0.0800
11847W        W28031  13.529  12.614   0.180 -0.1743 -0.4064  0.0556
11848W        W28032   2.107   8.102  11.624  0.0656 -0.0009  0.1735
11849W        W28033   6.225   7.370   5.665 -0.1643 -0.0159 -0.0521
11850W        W28034   2.074  16.963   1.653 -0.1656 -0.0695  0.0985
11851W        W28035   4.352  15.382  11.725  0.2797 -0.2451  0.2173
11852W        W28036  11.333  14.986  11.150  0.0411 -0.2037  0.0450
11853W        W28037  14.189   6.549   4.372 -0.0907  0.4496  0.2436
11854W        W28038  15.623   1.840   3.002 -0.2200 -0.2172  0.3860
11855W        W28039  14.883  11.982   3.979  0.0376  0.2383  0.0539
11856W        W28040  11.772  16.815   4.987  0.0593 -0.4686 -0.1459
11857W        W28041   3.858  12.754  15.002  0.0035  0.0281  0.0350
11858W        W28042  17.513   9.911  14.280 -0.1222 -0.1774 -0.0840
11859W        W28043  13.096   7.428   2.541  0.0941  0.2868  0.1280
11860W        W28044   6.477   2.175  14.565  0.0858  0.2220  0.1430
11861W        W28045   2.508   3.377   1.951  0.2937  0.0556  0.0507
11862W        W28046   8.379   7.765  15.763  0.0605  0.0257 -0.1058
11863W        W28047  12.893   5.546  15.437 -0.2121 -0.2555  0.0975
11864W        W28048   8.913  18.408  15.821  0.1984 -0.0742  0.0608
11865W        W28049  14.165  16.246  11.155  0.4922 -0.2659  0.2385
11866W        W28050   8.292  15.360   4.198 -0.2827 -0.0444 -0.2013
11867W        W28051  14.965  16.963  15.173 -0.3751  0.0828  0.2491
11868W        W28052  15.178   6.119   0.819  0.2955  0.0230  0.1503
11869W        W28053  15.426  12.507  11.424 -0.3808 -0.1644  0.2584
11870W        W28054   0.249  18.086   1.496 -0.0068  0.0831 -0.4138
11871W        W28055   0.929   2.360   5.100  0.0265 -0.2116  0.1245
11872W        W28056   2.192  18.079  14.427  0.1614  0.1527  0.3276
11873W        W28057   5.646   6.154   1.914  0.7318 -0.0359  0.0842
11874W        W28058  11.099   2.079  13.407 -0.1975 -0.0181  0.1226
11875W        W28059  17.553  15.235  11.519 -0.2877 -0.2240  0.4083
11876W        W28060  17.267  12.989   1.042 -0.3335 -0.1111 -0.1072
11877W        W28061   1.759  10.292   0.428 -0.0188 -0.2963  0.1672
11878W        W28062   8.061   5.476   3.078 -0.0386 -0.2088  0.1618
11879W        W28063   3.960  16.222   3.691  0.2090  0.0863  0.0467
11880W        W28064   5.034   6.022  12.740  0.2556 -0.2231  0.1240
11881W        W28065  13.968   3.149   1.212  0.0411 -0.1480  0.2116
11882W        W28066  15.033   1.374  12.752  0.1544  0.2256  0.0885
11883W        W28067   2.875   9.362   1.033 -0.1724 -0.1590 -0.0099
11884W        W28068   8.975   8.139   1.600 -0.3000 -0.1959  0.0173
11885W        W28069   6.782   7.037  15.705  0.0818  0.0570 -0.0025
11886W        W28070   3.911  15.271   0.689  0.1988 -0.1320 -0.3004
11887W        W28071  13.045  11.415  12.571 -0.0173  0.0227  0.1365
11888W        W28072   5.350   0.653  12.602  0.3892 -0.1473 -0.1826
11889W        W28073  18.380  14.254  11.872 -0.1335  0.0894  0.1904
11890W        W28074  13.262  13.807   0.976 -0.0338 -0.3401  0.0145
11891W        W28075  17.339  10.742  15.471 -0.2447 -0.0814  0.3345
11892W        W28076  11.701   8.068   0.892  0.3890 -0.0478  0.2139
11893W        W28077   0.679  14.163   2.793 -0.2204 -0.0603  0.1887
11894W        W28078  14.940  12.834   5.085 -0.0552 -0.0538 -0.2466
11895W        W28079  12.416  14.935   3.020 -0.0432  0.0942 -0.1058
11896W        W28080   3.831   5.173   0.453 -0.2285  0.2186 -0.4796
11897W        W28081   6.478  10.007  12.691  0.4438 -0.1779 -0.0205
11898W        W28082   8.621   3.648   0.476 -0.0343 -0.3237 -0.1201
11899W        W28083   5.905  11.111   4.280  0.0785  0.3342 -0.2311
11900W        W28084   1.347  13.529   0.492  0.2266 -0.1492 -0.0418
11901W        W28085  17.280   0.780  13.159 -0.3012  0.1667  0.0153
11902W        W28086   7.049   5.369   5.542 -0.0390 -0.0441 -0.1932
11903W        W28087   8.857  17.473   3.175  0.1105  0.1377  0.1671
11904W        W28088   2.685  10.365   0.695 -0.1334  0.2169 -0.0387
11905W        W28089  17.941   8.455   1.903 -0.0388 -0.1547  0.1349
11906W        W28090   5.839  13.661  13.173 -0.0878 -0.0796  0.0222
11907W        W28091  16.952  14.169  14.240  0.2064  0.2951 -0.0628
11908W        W28092  14.226   8.188  16.080 -0.1259  0.0652  0.0345
11909W        W28093   8.140   4.986   3.885  0.0203  0.4053 -0.0770
11910W        W28094  14.911   4.075   5.127 -0.2951 -0.2693  0.2203
11911W        W28095  10.094   7.489  11.022 -0.1107  0.2254  0.1662
11912W        W28096  18.352   3.184   1.968 -0.1488  0.0957  0.0170
11913W        W28097   8.446  11.533   4.412 -0.0374  0.0470 -0.3114
11914W        W28098   9.752   0.862   2.314  0.0811 -0.0195 -0.0662
11915W        W28099   3.619   4.030   1.863  0.0360 -0.1428 -0.0869
11916W        W28100   1.756  12.208  14.906  0.0089 -0.1306 -0.0328
11917W        W28101   6.578   1.135   3.739 -0.0909  0.2508  0.4100
11918W        W28102  15.094  13.177  10.307  0.0216 -0.2898 -0.1286
11919W        W28103   2.172  16.463  11.285 -0.0249 -0.2316  0.0809
11920W        W28104  16.959   7.863  13.693 -0.1732 -0.1888  0.1421
11921W        W28105   2.621   2.747  14.169  0.1300 -0.2735  0.2577
11922W        W28106   5.252  15.939   1.761  0.3124 -0.3896  0.0190
11923W        W28107   9.162   0.992  14.877 -0.3562 -0.0181 -0.2891
11924W        W28108   5.248   9.937   2.962 -0.1668  0.1262 -0.1576
11925W        W28109  13.972  12.450  15.073  0.0652 -0.0856  0.1019
11926W        W28110  14.008  10.365  13.252  0.0501  0.0524 -0.1068
11927W        W28111  16.641  14.594   0.227  0.2035  0.1615  0.3620
11928W        W28112   4.552   7.454  13.529 -0.2057 -0.0209 -0.0046
11929W        W28113   4.594  10.568   2.397 -0.0440 -0.3539  0.1358
11930W        W28114  10.396   5.965   1.577 -0.1237 -0.2760 -0.0359
11931W        W28115   1.855   2.803  11.433  0.2801 -0.2953  0.5256
11932W        W28116   3.774   8.336   5.103  0.1166 -0.0266 -0.2366
11933W        W28117  11.024  14.073   4.128 -0.3085  0.3899  0.0908
11934W        W28118  18.191  14.387   4.960  0.2131  0.1296  0.4497
11935W        W28119   0.784   0.343  14.486 -0.1786 -0.0643  0.0351
11936W        W28120   2.526   4.280   6.154 -0.0852  0.0148 -0.0614
11937W        W28121   7.922   1.715   0.095 -0.1744 -0.1080  0.1289
11938W        W28122  15.898   1.432  15.219 -0.2543 -0.0314  0.0728
11939W        W28123   0.033   8.730   5.729 -0.1322  0.2964  0.1757
11940W        W28124   6.716   6.625  11.633 -0.1554  0.1771 -0.0062
11941W        W28125   4.728  15.550   0.788 -0.5747 -0.2646 -0.0314
11942W        W28126   4.823  10.511  11.635  0.3078  0.0538 -0.2079
11943W        W28127   0.544   4.987  15.044  0.0551 -0.0146 -0.2692
11944W        W28128  16.815  13.626  14.537  0.2676  0.3267 -0.1516
11945W        W28129   5.416   9.602   2.121 -0.0132 -0.2152  0.1915
11946W        W28130  17.935   6.395  11.504 -0.2537  0.0027 -0.1170
11947W        W28131   5.651   2.951  12.922  0.0622 -0.2170 -0.1022
11948W        W28132   6.051   6.401  12.901 -0.0778  0.1314  0.0798
11949W        W28133  11.638  10.540   1.432 -0.1619  0.1354 -0.2097
11950W        W28134   3.141   6.815  13.395  0.0480 -0.0535 -0.1830
11951W        W28135  14.306  15.150  14.999 -0.0014  0.2249  0.1977
11952W        W28136  11.135  13.000   1.757 -0.0948 -0.1248  0.3062
11953W        W28137  13.223   2.606  12.614 -0.0078 -0.3057 -0.0664
11954W        W28138  14.552   8.016   5.183 -0.3670 -0.3704 -0.1533
11955W        W28139   9.452   9.540  11.857 -0.2666 -0.2462 -0.1955
11956W        W28140   8.616   4.233  12.245  0.1427 -0.2333  0.2182
11957W        W28141   4.310   3.146   1.604  0.2294 -0.1672 -0.3745
11958W        W28142  16.224   4.528   0.500  0.2009 -0.1591 -0.0945
11959W        W28143   3.024   9.949   0.921 -0.1284 -0.1788 -0.0712
11960W        W28144  18.044  14.398  11.189  0.2753  0.3020 -0.2576
11961W        W28145   6.338  13.554   3.296 -0.2913  0.0850 -0.1653
11962W        W28146  17.813   8.522   5.537 -0.0196 -0.0645  0.0404
11963W        W28147  10.784  14.840  13.381  0.0431  0.4622  0.0979
11964W        W28148   2.150   7.903   4.543 -0.0509  0.0396  0.5176
11965W        W28149  10.094   3.387  12.850 -0.2932 -0.2986  0.1278
11966W        W28150   7.054  10.668  10.233 -0.1586  0.0315 -0.2458
11967W        W28151  17.367  17.572  15.017 -0.0620  0.1442 -0.1619
11968W        W28152   1.447   2.731   2.337 -0.0684 -0.0758 -0.2011
11969W        W28153   2.647  18.304  13.261  0.0221  0.3378  0.1293
11970W        W28154  10.092  14.785  13.330  0.2062 -0.0698 -0.1304
11971W        W28155  12.888   2.013   0.291  0.4852 -0.1919  0.1877
11972W        W28156  18.488   4.931  15.230  0.0316 -0.0791  0.1927
11973W        W28157   7.871   4.503  15.473  0.3805  0.2120  0.3366
11974W        W28158   2.286  15.351  12.392 -0.1317  0.2820 -0.2310
11975W        W28159   1.098   0.817  14.335  0.1015 -0.1875 -0.1704
11976W        W28160  13.412   9.355   4.675 -0.0736 -0.0301  0.1439
11977W        W28161   5.933  16.405   4.406 -0.0879  0.1012  0.1060
11978W        W28162   4.053   6.412   5.041  0.0517 -0.2645  0.1129
11979W        W28163  13.777  11.618  10.847 -0.2432 -0.0400  0.2512
11980W        W28164   6.809  14.734  12.729 -0.0692  0.0778 -0.1355
11981W        W28165   9.441   4.176   2.391 -0.0791 -0.3133 -0.0433
11982W        W28166   1.759   1.259   4.154 -0.4088 -0.0979  0.2035
11983W        W28167  18.287  15.320   1.695 -0.2114 -0.0578 -0.0765
11984W        W28168   5.124   7.113   2.338  0.4498  0.0142 -0.2207
11985W        W28169   6.564  12.336   4.083 -0.0996  0.1767 -0.0411
11986W        W28170   9.217   2.057   0.773  0.0132  0.0188 -0.2828
11987W        W28171   9.508   0.187   0.455  0.1246  0.1064  0.3494
11988W        W28172  12.764  11.352   2.830 -0.0371 -0.4340 -0.0092
11989W        W28173  10.792   7.679   4.407  0.2341 -0.1492 -0.3948
11990W        W28174  17.945   8.666  11.717  0.0288  0.0780 -0.3537
11991W        W28175   2.306  12.489  11.400 -0.0660  0.1944 -0.3359
11992W        W28176  10.661   5.041  15.330 -0.2596 -0.5706 -0.0360
11993W        W28177  18.216  16.529   3.002 -0.0584  0.1200  0.0478
11994W        W28178  18.007   2.391   1.991 -0.1130  0.1173 -0.0413
11995W        W28179  11.581   8.250   2.391 -0.1325  0.1957  0.3828
11996W        W28180   8.588   8.865   1.769 -0.2020  0.0569 -0.2963
11997W        W28181   7.954   6.870  13.432 -0.0426 -0.1734  0.0793
11998W        W28182   4.592   2.747   1.609 -0.2469  0.1217 -0.4308
11999W        W28183  17.629  17.244   3.639  0.1767 -0.1824  0.1071
12000W        W28184   7.257  17.025   2.320 -0.0772  0.0918  0.0810
12001W        W28185  14.810   9.754  13.010  0.0448 -0.2916  0.0467
12002W        W28186   4.694  11.382  14.200  0.0110  0.0555  0.1106
12003W        W28187   3.242  16.836   4.369  0.0578 -0.2067  0.0193
12004W        W28188   9.527  13.312  14.844  0.2830  0.1696  0.3377
12005W        W28189   9.177   9.290   2.322 -0.0727  0.1859 -0.1424
12006W        W28190   0.592   1.963  14.878  0.2688 -0.1811 -0.4232
12007W        W28191   0.975  17.638  11.457  0.3879 -0.1707  0.3487
12008W        W28192   4.004  15.610   0.254  0.1131  0.0591 -0.3870
12009W        W28193   0.847   3.136  12.992 -0.0496  0.0668 -0.0130
12010W        W28194  14.130  12.640   5.059  0.2083 -0.0002 -0.0112
12011W        W28195  17.268   2.380  15.504  0.0733 -0.3317 -0.1472
12012W        W28196  16.201   0.584  10.913  0.5251  0.0701 -0.2372
12013W        W28197  14.136   1.020   2.721 -0.0878 -0.2458  0.2510
12014W        W28198   9.148  13.747  13.451 -0.0310  0.1345  0.1082
12015W        W28199   4.741  17.004  11.416  0.4024 -0.3614  0.2333
12016W        W28200   4.577  12.115  14.969  0.2107  0.2774  0.2081
12017W        W28201  13.740   0.701   2.872  0.1428  0.1568 -0.0367
12018W        W28202   4.844  12.374   5.546  0.1301 -0.0601 -0.1524
12019W        W28203  15.820  17.696  14.051 -0.2574 -0.0512 -0.0872
12020W        W28204   1.156  13.747  13.284 -0.2184 -0.0912  0.0990
12021W        W28205  15.874   0.825   4.421  0.5511 -0.0737  0.1019
12022W        W28206   1.563   5.772  11.573 -0.0304 -0.1590 -0.1271
12023W        W28207   7.493  16.124  15.784  0.3623  0.1562 -0.3459
12024W        W28208   0.980   1.934  10.675 -0.1693 -0.1806  0.4739
12025W        W28209  13.240  11.587   1.581 -0.0227 -0.0420  0.0447
12026W        W28210   8.930  11.973   2.149  0.0756  0.2338  0.3602
12027W        W28211   8.108   2.128   3.587  0.0383 -0.0948 -0.1888
12028W        W28212   5.500   8.542  16.074 -0.1497 -0.1764 -0.0770
12029W        W28213  10.016   0.991   2.706  0.0272  0.1352  0.0865
12030W        W28214  11.960  15.696   1.539  0.0255 -0.1063  0.1471
12031W        W28215  16.578  10.008   4.011  0.0960 -0.1640 -0.1554
12032W        W28216   6.442  17.212   2.863 -0.3495  0.1129  0.0641
12033W        W28217  15.062   4.098  14.414 -0.0474 -0.1337 -0.2662
12034W        W28218   3.067   7.747   3.605 -0.0865 -0.1477 -0.0961
12035W        W28219  10.843  13.914   1.420 -0.2373 -0.2124 -0.0927
12036W        W28220   6.204   4.303  11.641  0.3681 -0.2427 -0.1705
12037W        W28221   2.731   5.252  14.758 -0.0700  0.0103  0.0191
12038W        W28222   3.116   9.314  11.202 -0.1865 -0.1393  0.0083
12039W        W28223   1.038  12.232   0.861  0.4621 -0.2274  0.0054
12040W        W28224  17.752  16.133  13.802 -0.0693 -0.1073 -0.0424
12041W        W28225  11.867   0.221   1.013 -0.0331 -0.1057  0.2941
12042W        W28226   6.719  11.775  12.218 -0.0452 -0.5106 -0.1781
12043W        W28227  10.431   8.725   6.049 -0.1493 -0.0846 -0.1546
12044W        W28228   4.051   8.866   5.169  0.2357  0.3333 -0.3505
12045W        W28229   0.144   6.789  13.921  0.0578 -0.1637  0.1139
12046W        W28230   2.388   0.756   0.369  0.0726  0.0706 -0.0056
12047W        W28231  10.097  13.209   0.414 -0.1739 -0.1780 -0.4113
12048W        W28232  13.380  16.114   4.637 -0.0374 -0.0048  0.0515
12049W        W28233   5.328  16.274  14.534 -0.1894  0.2830 -0.1860
12050W        W28234   3.586   2.773  14.521  0.4881  0.0568 -0.3053
12051W        W28235   1.490  14.410  14.098  0.0279 -0.0848 -0.2896
12052W        W28236  11.852  10.578   5.905  0.0208 -0.3778 -0.0936
12053W        W28237  13.958   6.430  15.349  0.1432 -0.0096  0.1587
12054W        W28238   9.552  13.799   3.938  0.0924  0.4178 -0.2669
12055W        W28239   8.947   3.581  11.638 -0.0112 -0.0147 -0.0116
12056W        W28240   6.548   3.582   1.007  0.2812 -0.0640  0.0656
12057W        W28241   1.180  17.734  13.921  0.1361 -0.1069  0.4113
12058W        W28242   0.860   4.462  12.435  0.2807  0.0565  0.2002
12059W        W28243   9.086  16.366   4.150  0.2271 -0.3402  0.2234
12060W        W28244  17.214   7.442   5.566  0.2862 -0.2427 -0.0138
12061W        W28245   5.550  15.344   1.167  0.0291 -0.1570  0.1126
12062W        W28246  12.881   1.058   2.269  0.2263 -0.1642  0.1545
12063W        W28247  16.709  11.736  13.101  0.3240  0.0091  0.2560
12064W        W28248   8.741  17.029   0.067 -0.0184  0.0393  0.0884
12065W        W28249  11.089   1.250  15.145 -0.1151 -0.2246  0.1492
12066W        W28250  14.810  18.214  15.514  0.2521  0.0845 -0.0659
12067W        W28251   3.569   1.409   4.847  0.1572 -0.1972  0.3629
12068W        W28252  16.330  13.837  14.774  0.1182  0.3067  0.0870
12069W        W28253  13.534  10.124   0.942  0.0500 -0.2230 -0.1186
12070W        W28254  13.572   3.476   2.995  0.3859 -0.0216 -0.2855
12071W        W28255  15.437  17.499  11.415  0.1024  0.1819  0.0203
12072W        W28256  10.085   4.676   3.151 -0.2617  0.1656 -0.0849
12073W        W28257  15.439  17.540  15.789  0.0695  0.0327 -0.1262
12074W        W28258  16.820   7.181  11.658  0.2065 -0.1403  0.4737
12075W        W28259  12.898   7.301  15.200 -0.1731  0.2154 -0.1555
12076W        W28260   0.405   1.335  13.850  0.2709 -0.1206 -0.0829
12077W        W28261   8.354  15.460   3.182 -0.2270  0.1165  0.2752
12078W        W28262   7.524   5.456   3.281 -0.0446 -0.2005 -0.0510
12079W        W28263   0.859  10.886   1.358 -0.0365 -0.2504  0.2074
12080W        W28264   4.999  13.792   0.730 -0.2122 -0.0864 -0.0938
12081W        W28265   3.939  13.314   2.016  0.0940 -0.0275 -0.1538
12082W        W28266  10.788   6.027   2.954 -0.2017  0.0364  0.0503
12083W        W28267  14.065   5.057   2.002  0.0650 -0.1962  0.1065
12084W        W28268   6.630   6.990  11.268  0.0685  0.1144 -0.1261
12085W        W28269   7.838   6.736   1.648 -0.0709  0.1633  0.0713
12086W        W28270   9.869   2.668  14.550  0.1165 -0.0099  0.0300
12087W        W28271   4.056   5.903   5.241  0.2188  0.3262  0.1208
12088W        W28272  15.899  17.288  15.502 -0.0750 -0.2111  0.0041
12089W        W28273  17.676   5.698   2.693 -0.0398  0.1294  0.0666
12090W        W28274   1.566   1.566  11.797 -0.3370 -0.3028 -0.2569
12091W        W28275  13.374  13.359   3.433  0.1997  0.2237 -0.1400
12092W        W28276   7.790   7.545  15.927  0.0725 -0.2522  0.0679
12093W        W28277   6.157   6.905  14.422 -0.0102  0.0990  0.1070
12094W        W28278   2.844  17.839  13.410  0.2893 -0.1429 -0.2272
12095W        W28279   5.488   2.590  11.583 -0.3216 -0.1245  0.2268
12096W        W28280  16.592   0.315   2.028 -0.1749  0.2465 -0.4907
12097W        W28281   0.301  16.900  12.636  0.1622  0.2159  0.1694
12098W        W28282   9.994  17.259   1.213  0.1741  0.2279  0.1080
12099W        W28283  12.414   2.229  15.524 -0.1239 -0.2179  0.0712
12100W        W28284  14.795  12.434   3.589  0.1982  0.0098 -0.1315
12101W        W28285   6.613   1.495  15.291  0.1213  0.2383  0.0046
12102W        W28286  17.649  10.904   4.109  0.1823  0.1821  0.2995
12103W        W28287   5.611   9.668   4.575  0.0187  0.3382  0.2314
12104W        W28288  12.597   2.634  12.613  0.0908 -0.2485  0.0334
12105W        W28289  14.077   6.456  12.040  0.0995 -0.2849 -0.2473
12106W        W28290   8.020   3.315  13.011 -0.1945  0.2110  0.1363
12107W        W28291  15.055  16.661  14.763 -0.2887 -0.0630 -0.2279
12108W        W28292   1.265   7.629   1.755  0.2564  0.3612 -0.1153
12109W        W28293   4.223   0.090  14.151 -0.0314 -0.0725 -0.2716
12110W        W28294   1.490  16.468  13.112  0.1714 -0.0941 -0.0536
12111W        W28295   1.964  14.063  12.643 -0.0644  0.1990 -0.3123
12112W        W28296  16.486   6.835  14.126  0.1983  0.0204 -0.4111
12113W        W28297  16.414   2.508  12.121  0.1997 -0.0196  0.0874
12114W        W28298  12.898   2.916  12.319 -0.2032 -0.0045 -0.1814
12115W        W28299   1.715   8.076  13.816  0.0310  0.0512  0.0768
12116W        W28300  13.189   1.385  15.922 -0.0295 -0.0744 -0.1435
12117W        W28301  12.208   7.625   1.751  0.0352 -0.0462 -0.0249
12118W        W28302   4.702   9.130   3.336 -0.0392 -0.0918 -0.2235
12119W        W28303  12.370  14.159  12.950 -0.2610 -0.3031 -0.2476
12120W        W28304   2.583  12.133   4.029  0.0222  0.0022 -0.1946
12121W        W28305  10.076  15.434   5.627  0.0866 -0.1728  0.0153
12122W        W28306  17.023   6.637  12.207  0.0876  0.2230 -0.0189
12123W        W28307   5.960   5.927  15.301  0.0971 -0.0448 -0.3328
12124W        W28308  17.965   9.902   1.867 -0.0089  0.1266  0.2246
12125W        W28309  15.032   7.314   4.435 -0.3372 -0.1168  0.0857
12126W        W28310  13.012  13.917  13.756  0.1836  0.3060  0.0609
12127W        W28311   8.351  17.037   2.874  0.1651 -0.2242 -0.1655
12128W        W28312  12.013  17.709   4.728  0.1559  0.1916  0.1171
12129W        W28313   0.355   3.665  12.685 -0.0149  0.0070 -0.1246
12130W        W28314   2.309  16.327   2.103 -0.1663  0.1998 -0.5380
12131W        W28315  12.401  16.334  15.189 -0.1747 -0.3285  0.0085
12132W        W28316  16.853  12.066  13.604 -0.0109 -0.2995  0.1039
12133W        W28317   4.716   2.462   2.229  0.2543  0.0608  0.2134
12134W        W28318   4.221  17.078  13.067 -0.0882 -0.0050 -0.1987
12135W        W28319  15.017   0.659  14.629 -0.0036 -0.0267 -0.0893
12136W        W28320   9.469   8.273  12.444  0.1142 -0.1116 -0.0760
12137W        W28321   0.126   3.786  10.522 -0.2234  0.1184 -0.2252
12138W        W28322  14.677   5.231   2.321  0.2781  0.0610 -0.0782
12139W        W28323   5.907   6.014  13.150 -0.0669 -0.0051  0.0140
12140W        W28324   5.025  14.798   1.877 -0.2490 -0.3319 -0.1296
12141W        W28325  15.957   2.529  10.444 -0.4007  0.4397 -0.1993
12142W        W28326   5.230   7.905  13.135 -0.1097  0.1598 -0.1487
12143W        W28327   2.850   3.437  13.763  0.0384 -0.1655 -0.0736
12144W        W28328   9.030   6.640   4.834 -0.1120 -0.2324 -0.1182
12145W        W28329  12.182   0.774   3.837  0.1001  0.3106 -0.2479
12146W        W28330  11.673  13.858  15.055 -0.0416  0.0015  0.2921
12147W        W28331  17.849   8.087   4.030 -0.1634 -0.0502 -0.0000
12148W        W28332  17.565  14.527   3.384 -0.1549 -0.2669  0.1918
12149W        W28333   9.112   8.203   4.126 -0.2410 -0.0871  0.3792
12150W        W28334   9.056   2.535  14.063 -0.0310  0.2355  0.2898
12151W        W28335  11.094   3.789  12.085  0.1555  0.4046 -0.2480
12152W        W28336  11.965  13.268  15.432  0.2046  0.0185  0.0144
12153W        W28337   9.012   8.204  15.978  0.0766  0.3547  0.1539
12154W        W28338   6.125   6.909  12.687 -0.0219  0.0263 -0.1926
12155W        W28339   3.026   3.752   2.483 -0.0379 -0.0661 -0.0696
12156W        W28340   1.621  14.774  13.136 -0.1071  0.3143  0.1179
12157W        W28341   5.719   2.681  12.197 -0.1217  0.2322  0.1296
12158W        W28342  10.819  10.978  15.651  0.5038  0.0327  0.0672
12159W        W28343  13.416  12.611   5.111  0.3005 -0.1159  0.3605
12160W        W28344   2.008   1.851  15.860  0.0321 -0.1453 -0.0209
12161W        W28345  18.518  16.057  14.344  0.0307  0.1369 -0.5796
12162W        W28346  11.431   3.266  12.736  0.1502  0.2602 -0.1104
12163W        W28347   2.397  18.383   9.733  0.1575 -0.3047  0.2924
12164W        W28348  12.745   4.132  14.919 -0.4295  0.2709  0.0215
12165W        W28349  15.227   6.804   0.266  0.4051 -0.3823  0.3794
12166W        W28350  16.379  13.577  16.047 -0.0128  0.2483  0.1347
12167W        W28351   8.620   1.756   1.601 -0.2023 -0.1658 -0.0081
12168W        W28352  10.759  10.622  15.301 -0.1633  0.0684  0.1894
12169W        W28353   0.134  16.119   4.219  0.0619 -0.3277  0.2616
12170W        W28354   7.645   9.069   3.143 -0.0840  0.4042 -0.1776
12171W        W28355   3.422   4.123   2.363 -0.0356 -0.0431  0.0580
12172W        W28356  17.186  13.978  15.937 -0.3766  0.1474 -0.1241
12173W        W28357   2.574  11.289   3.418 -0.2099  0.1696 -0.2422
12174W        W28358   0.169   8.639   2.973  0.0231 -0.0243  0.0497
12175W        W28359   6.085   5.993   2.136 -0.0921  0.0904  0.1561
12176W        W28360  12.483   6.230   3.981 -0.2214  0.0292  0.2571
12177W        W28361  10.159  10.434  11.449  0.0267  0.0659 -0.0620
12178W        W28362   6.159  16.805   2.831  0.1184 -0.1416  0.1074
12179W        W28363   7.691  17.872  14.528 -0.5274  0.4753  0.0515
12180W        W28364   6.089   5.389  14.011 -0.1644  0.0153 -0.1036
12181W        W28365   3.284  14.415  15.133 -0.4113  0.1571  0.0391
12182W        W28366  12.812  18.285  15.025  0.0888 -0.3199 -0.0673
12183W        W28367   9.899   6.294   3.348 -0.2877 -0.0574  0.1954
12184W        W28368  15.957  15.157   1.755  0.0790 -0.3077 -0.1363
12185W        W28369  11.341  17.548   3.674 -0.0585  0.0923 -0.2822
12186W        W28370   3.281  12.870   4.611 -0.2604 -0.1865 -0.0871
12187W        W28371   6.412  11.958  12.708 -0.0360 -0.2525  0.0312
12188W        W28372  13.754   8.733   3.406 -0.0940  0.2236 -0.1766
12189W        W28373  14.115  12.989   3.818  0.1446 -0.0204  0.1132
12190W        W28374  16.035  10.812   2.607 -0.0652 -0.0206  0.1489
12191W        W28375   5.359  16.523  10.496 -0.2400 -0.2287  0.1099
12192W        W28376  16.144  16.185  13.269 -0.1304  0.0824  0.2328
12193W        W28377  14.707  16.407  14.515  0.1608 -0.3488  0.0039
12194W        W28378  10.340  12.985  12.795 -0.0033  0.1621  0.2833
12195W        W28379   6.307   6.716   1.057  0.2701 -0.0296 -0.0958
12196W        W28380   2.425  13.800  10.916 -0.0116  0.1268  0.1596
12197W        W28381  17.404   0.105   0.292 -0.0906  0.0168 -0.2595
12198W        W28382   8.799  11.540   2.360 -0.0132  0.0050 -0.0624
12199W        W28383   8.544   3.899  11.197  0.1760 -0.0356 -0.0246
12200W        W28384  10.338  16.111  13.036  0.0582 -0.0436 -0.1124
12201W        W28385   7.369  14.152  11.249 -0.1390 -0.1510 -0.2494
12202W        W28386   0.476  10.460   4.498  0.4354  0.2816 -0.2076
12203W        W28387   8.628   4.559  13.864  0.0563  0.0559 -0.3051
12204W        W28388   6.459  10.131   5.106  0.0043  0.3351 -0.0751
12205W        W28389   0.313  14.027   1.378 -0.0213  0.3338 -0.1085
12206W        W28390   8.899  18.215  11.429  0.2565  0.4300  0.1364
12207W        W28391  18.375   8.261  14.147 -0.0264  0.2306  0.1129
12208W        W28392  13.114   1.621  11.732  0.0592  0.3865 -0.0333
12209W        W28393   4.188   1.328   3.913  0.2392  0.0312 -0.1292
12210W        W28394  17.992   0.048   2.578 -0.0883  0.2452  0.0058
12211W        W28395   2.804   4.816   4.948 -0.0702 -0.4109 -0.0725
12212W        W28396   3.552  12.214  13.137  0.0651 -0.2053  0.2296
12213W        W28397  11.242   0.621   0.730 -0.0902  0.1995  0.0282
12214W        W28398  16.101  18.197  14.793 -0.1573 -0.0127 -0.1717
12215W        W28399   8.419   0.771  14.346  0.0734  0.0892 -0.1506
12216W        W28400  14.722   8.275   0.057 -0.0370 -0.2253  0.0614
12217W        W28401   7.445  15.170  14.301 -0.0476 -0.0736  0.0702
12218W        W28402   4.369  14.759   4.638  0.1021 -0.1096 -0.3056
12219W        W28403   0.568   3.322   9.920 -0.0215  0.0034 -0.0945
12220W        W28404  11.329   3.083  13.784 -0.1238  0.0276  0.1804
12221W        W28405  13.184  12.203  12.970 -0.0740 -0.2975  0.4475
12222W        W28406   7.092  16.337  12.165 -0.0137  0.0263  0.2555
12223W        W28407   4.332  12.832   3.562 -0.0719  0.0360 -0.2100
12224W        W28408   7.644  11.694   4.716  0.0100  0.0466  0.0965
12225W        W28409  13.697   3.823   0.600 -0.0184 -0.0724 -0.1180
12226W        W28410   4.067   5.397   0.038 -0.3398  0.1552  0.0543
12227W        W28411  15.969   5.443   2.786 -0.1826  0.0288 -0.2072
12228W        W28412   0.393  13.467  12.775  0.2010  0.0113 -0.0096
12229W        W28413   8.687  14.939  12.157  0.0802  0.2860 -0.4404
12230W        W28414   0.486  18.214  10.851 -0.1268  0.3370 -0.3710
12231W        W28415  15.472  13.612  15.755 -0.1419 -0.0149  0.1916
12232W        W28416   5.195  10.928   0.113  0.2689 -0.2132  0.0507
12233W        W28417  15.871   9.811  15.674  0.0621 -0.2550 -0.0392
12234W        W28418  14.494   5.263  15.835 -0.1211  0.0741 -0.2038
12235W        W28419   7.085   3.498   0.513 -0.0727  0.0249  0.0639
12236W        W28420   2.967  12.648  14.530  0.0399  0.1850 -0.2442
12237W        W28421   7.518   0.823  16.104  0.3487 -0.1165 -0.1407
12238W        W28422  15.397   1.694   3.442  0.1731 -0.0151 -0.2509
12239W        W28423   4.475  15.217  13.815  0.1881  0.2665 -0.2295
12240W        W28424  10.595   2.454   0.743 -0.3567  0.0097 -0.1923
12241W        W28425  16.285   8.690   2.169  0.0484  0.1544 -0.3140
12242W        W28426  12.219  15.942  14.969 -0.3406 -0.1196 -0.1176
12243W        W28427   0.488   7.443   0.407 -0.1313  0.4090 -0.3388
12244W        W28428  13.691   3.294  15.477 -0.3157 -0.2717 -0.1876
12245W        W28429  11.351   7.676  12.788  0.0075  0.2149  0.0379
12246W        W28430   4.728   9.781   0.169 -0.1099 -0.1366  0.0077
12247W        W28431   0.968  15.084   2.677  0.1985  0.2747  0.0001
12248W        W28432   8.453  11.448   2.715 -0.0539  0.1559  0.0276
12249W        W28433  12.541  10.953   6.140 -0.1414 -0.5047 -0.1243
12250W        W28434   3.029  16.643  11.095  0.0983  0.0291 -0.0919
12251W        W28435   7.868  15.936  13.547  0.1952  0.1065 -0.0944
12252W        W28436   3.747  11.524   1.541 -0.2267  0.1711  0.2682
12253W        W28437   5.324   4.907  15.348  0.3506  0.0277  0.0304
12254W        W28438  15.469  18.483   2.893 -0.0029  0.1544 -0.1521
12255W        W28439  12.680   6.175  13.023  0.0477  0.0598  0.2686
12256W        W28440   0.806  14.373  12.639  0.0047  0.0037 -0.2007
12257W        W28441  13.425  18.178   2.937 -0.0181 -0.0792  0.1879
12258W        W28442   5.836  17.535  11.974 -0.0240 -0.1827 -0.1424
12259W        W28443   5.743   2.882   3.134  0.0899 -0.0075 -0.3567
12260W        W28444   8.045   5.455  12.611 -0.2747  0.3215  0.1782
12261W        W28445   5.794  15.669  13.034 -0.2590  0.1270 -0.0659
12262W        W28446  18.115  11.640   2.222 -0.0586 -0.0710  0.1424
12263W        W28447  16.749  11.858  15.017 -0.3229 -0.1085  0.0764
12264W        W28448   8.132  13.734  12.454 -0.0560  0.0377  0.1169
12265W        W28449  11.974   6.308  14.747 -0.1431  0.1312 -0.4387
12266W        W28450  15.409  15.915   4.806 -0.3208 -0.3894  0.5323
12267W        W28451   6.738   1.382  12.945 -0.0843  0.0408  0.0672
12268W        W28452   1.591  17.086   4.579 -0.1586  0.1994 -0.1647
12269W        W28453   1.448   0.353   2.500  0.0606  0.4263 -0.4446
12270W        W28454   2.848   7.415  11.992 -0.2723  0.0825 -0.2766
12271W        W28455  13.787   3.753  11.797 -0.4090 -0.0065  0.0234
12272W        W28456  10.040  13.729  13.518  0.3837 -0.1387  0.2863
12273W        W28457   8.187  10.743  12.557 -0.1638 -0.2950  0.3230
12274W        W28458  18.125   2.771   3.393  0.0959  0.3172 -0.5495
12275W        W28459   0.144  13.853  16.080  0.2115  0.2040 -0.2492
12276W        W28460   9.370   2.555  14.542  0.1778  0.4824 -0.0227
12277W        W28461   6.175  13.497  11.544 -0.1743 -0.0404  0.1575
12278W        W28462   2.983   0.476  12.082  0.0074  0.2110  0.2522
12279W        W28463   8.013  10.475  13.380  0.0537 -0.5052 -0.1149
12280W        W28464   9.694   3.293  15.127 -0.1178 -0.1049 -0.1983
12281W        W28465  11.947  15.444  13.041  0.0100  0.3980 -0.0015
12282W        W28466   9.956   2.926  15.344  0.0442  0.0446  0.1075
12283W        W28467  10.432  11.552   0.487  0.1217  0.1739 -0.2084
12284W        W28468   1.397   2.679  15.807 -0.0552 -0.0755  0.1366
12285W        W28469   5.997   0.315   2.500  0.2069 -0.1656  0.2498
12286W        W28470   6.572  11.109  15.811  0.3287  0.0004  0.1339
12287W        W28471  10.426   3.594   3.740 -0.0676 -0.2461  0.2305
12288W        W28472   2.319  16.163  14.831  0.4250  0.0725  0.0599
12289W        W28473  13.389   9.799  12.644 -0.0842 -0.0542 -0.0409
12290W        W28474   5.409   4.019  11.830  0.2119 -0.0400  0.1225
12291W        W28475  17.810  10.864  15.257 -0.1461 -0.0818  0.0279
12292W        W28476  17.908   1.999   1.269 -0.3073  0.0733 -0.0522
12293W        W28477  17.157  11.842  12.871 -0.2761 -0.1835  0.1937
12294W        W28478  16.723   2.971  13.802 -0.1648  0.1003  0.1465
12295W        W28479   8.820   7.547  14.331 -0.0347  0.3501  0.1852
12296W        W28480  12.612   7.651   4.381  0.1155 -0.1141  0.3524
12297W        W28481   8.943   7.210   2.992  0.1383  0.0450  0.0770
12298W        W28482  14.709   6.547  14.554  0.1586  0.0545 -0.3202
12299W        W28483  16.653  11.375  14.980  0.0214  0.2497  0.1112
12300W        W28484   6.879  15.456  14.951  0.0658 -0.1380  0.0425
12301W        W28485   0.542  12.523   0.704  0.2719  0.0005 -0.0755
12302W        W28486  12.666   9.074   2.084  0.2240 -0.0167 -0.1226
12303W        W28487  13.984   7.411   5.406  0.1701  0.0730  0.0473
12304W        W28488   1.670   2.478  13.752 -0.0208  0.2501 -0.2080
12305W        W28489   4.148  14.748   3.759 -0.3381 -0.2916 -0.1057
12306W        W28490   3.675   8.063   3.285  0.3270  0.0578 -0.1186
12307W        W28491   4.563  16.453  11.287  0.1824  0.3381 -0.1560
12308W        W28492   9.620  15.571  13.853  0.0932 -0.1036  0.0143
12309W        W28493   7.140  14.849  11.993  0.0663  0.0736  0.0853
12310W        W28494   2.437   3.771   4.061 -0.1318 -0.0154  0.0051
12311W        W28495   3.738  11.244   0.361  0.0103  0.0601  0.1743
12312W        W28496   6.409   7.640   4.204  0.1289  0.0105 -0.1716
12313W        W28497  18.081   5.390  11.683  0.2501 -0.0813 -0.0551
12314W        W28498  13.204  16.765   3.063 -0.0825 -0.2501  0.1538
12315W        W28499   1.237  11.509  12.170  0.1777 -0.0774  0.0597
12316W        W28500   9.214  11.073  13.908 -0.3570 -0.1443 -0.1954
12317W        W28501   4.672   1.218  13.858  0.2116  0.2065 -0.1400
12318W        W28502  11.993  12.327   3.041 -0.0041 -0.1788 -0.0625
12319W        W28503  12.733   3.891   3.082 -0.2173  0.3435  0.2774
12320W        W28504  17.685   8.605   3.672 -0.2876  0.0148  0.1914
12321W        W28505  13.641  12.932   1.861 -0.1927 -0.0184  0.1756
12322W        W28506   6.947   0.912  11.509 -0.2997  0.0344 -0.1288
12323W        W28507  14.207  13.322  13.064 -0.1606  0.1008  0.2343
12324W        W28508   8.906  17.562   0.030 -0.4603  0.0514  0.1082
12325W        W28509  10.472   7.953  12.284  0.1930  0.2759  0.2815
12326W        W28510   6.771  10.480   4.226  0.0293 -0.2125 -0.3215
12327W        W28511   3.497  13.605  12.384 -0.0702 -0.2003  0.0237
12328W        W28512  15.823  15.642   4.799 -0.1130  0.2210 -0.0883
12329W        W28513   6.027   5.266   4.603  0.2283 -0.1716  0.2390
12330W        W28514   2.470   2.403   0.180  0.0772  0.3667 -0.0875
12331W        W28515  13.825  14.414   2.101 -0.3061  0.1838  0.1913
12332W        W28516  11.168   7.077  14.111 -0.1107 -0.0967 -0.0124
12333W        W28517  16.314   6.534   5.033  0.2964  0.2702 -0.2055
12334W        W28518   8.373  17.070  11.572 -0.2210 -0.0970  0.3111
12335W        W28519   7.287   9.225  14.185  0.1167  0.1514  0.0043
12336W        W28520  15.585  16.822   2.255 -0.0933 -0.1813  0.1887
12337W        W28521   4.414  11.666  12.653 -0.4395  0.2086  0.0664
12338W        W28522   2.963   1.450  15.474 -0.0323 -0.2523 -0.1471
12339W        W28523  11.931  15.068   2.292 -0.1393 -0.3389 -0.3149
12340W        W28524   1.119   8.129  13.894  0.4260 -0.0286 -0.0984
12341W        W28525   6.411  12.586  15.178  0.0038  0.1442 -0.3430
12342W        W28526   0.138  11.188   2.821  0.2723 -0.2080  0.0261
12343W        W28527   7.202   8.582  15.293 -0.0181  0.0277  0.0857
12344W        W28528  13.126   8.236  13.069  0.0582 -0.1572  0.0492
12345W        W28529   2.896   8.600   2.817 -0.2235  0.1387 -0.1694
12346W        W28530   1.349   6.398   4.420  0.1480 -0.0504  0.1737
12347W        W28531   0.363  10.140  13.831  0.1091  0.0186 -0.0082
12348W        W28532  15.335   2.925  13.137  0.2936  0.1150  0.4489
12349W        W28533  17.533  17.898   0.181 -0.1535 -0.3102 -0.0677
12350W        W28534   9.188  13.018  14.482 -0.2356 -0.0102  0.1532
12351W        W28535  16.346   0.249   1.602  0.1594 -0.1405 -0.0596
12352W        W28536  10.682  15.683   5.071  0.4187  0.1380  0.1605
12353W        W28537   3.120   2.878  14.599 -0.0093 -0.6075 -0.1678
12354W        W28538   1.186  13.032   0.399 -0.1663  0.3133  0.2029
12355W        W28539   6.610  16.873   5.997  0.2499  0.1783 -0.2613
12356W        W28540  18.191   4.906  14.748 -0.0828  0.2186  0.0919
12357W        W28541   6.338   0.185  15.437 -0.0760 -0.0305 -0.3184
12358W        W28542  15.671  14.364   3.808 -0.3248 -0.1886 -0.1010
12359W        W28543  16.719   4.899  11.671  0.2146  0.2727  0.0502
12360W        W28544   1.028   5.520   2.622  0.0999 -0.0633 -0.0073
12361W        W28545  17.026   0.794  13.648 -0.1323 -0.1137  0.1825
12362W        W28546  12.922  18.384  11.328  0.0813 -0.0730 -0.1328
12363W        W28547  18.130   4.641   2.700 -0.3556 -0.0742 -0.0033
12364W        W28548  13.741  11.331   1.629 -0.3627  0.2888 -0.1384
12365W        W28549  11.219   7.598   3.831 -0.0854  0.0025  0.1333
12366W        W28550   5.178   5.412   3.121 -0.0850 -0.0007  0.2258
12367W        W28551  10.286   5.655  10.820 -0.1528 -0.0437  0.1686
12368W        W28552   3.458   1.381  15.658 -0.0349  0.2939 -0.1163
12369W        W28553   4.566  18.240   2.277  0.1315  0.1915 -0.3316
12370W        W28554  11.874   6.243   5.210 -0.3772 -0.1179 -0.0173
12371W        W28555   3.328   5.704  12.634  0.1342 -0.1739 -0.3204
12372W        W28556   8.517  17.360  13.596  0.0150  0.0981 -0.1912
12373W        W28557   5.833  15.421   3.732  0.2840  0.0068 -0.3206
12374W        W28558   9.271   1.259  12.007 -0.1131  0.0431  0.1441
12375W        W28559  10.055   4.167  15.158  0.0310 -0.3300 -0.0674
12376W        W28560   1.073   7.417  13.366 -0.0932 -0.0427 -0.2317
12377W        W28561   8.638   3.413  13.838 -0.0280 -0.3531 -0.1024
12378W        W28562   7.951   7.332   4.784 -0.0594  0.1212  0.2040
12379W        W28563   5.438   8.502  13.814  0.3884 -0.2802 -0.0206
12380W        W28564  17.192   2.803  11.549 -0.0383 -0.0015  0.1060
12381W        W28565  15.924  17.761  11.304  0.3639 -0.1233  0.3479
12382W        W28566  17.670  10.084   5.146 -0.4120  0.1161 -0.0560
12383W        W28567  16.074  18.007  15.245  0.1186  0.0083  0.1268
12384W        W28568   1.582   4.236  11.075 -0.0290 -0.0082  0.2203
12385W        W28569   6.271   4.069  12.216  0.1402 -0.0654 -0.4295
12386W        W28570   2.646  14.280   5.394  0.3823  0.0106 -0.0341
12387W        W28571  10.253  17.701   0.187  0.1245 -0.2830  0.3266
12388W        W28572   5.142   8.595  14.233 -0.0636 -0.1059 -0.0805
12389W        W28573   8.389  18.357  13.841  0.2560  0.0757 -0.1703
12390W        W28574   6.328  10.823   4.238 -0.4314  0.4827 -0.3658
12391W        W28575  13.856  18.249  15.135 -0.0059 -0.1471 -0.1384
12392W        W28576  18.112   0.133  10.653  0.0057  0.1175  0.0852
12393W        W28577  14.787   6.901  12.159  0.0843 -0.1610 -0.4203
12394W        W28578   3.932   4.569   0.653  0.1833 -0.0227  0.2498
12395W        W28579  16.186  17.162  15.146 -0.1273  0.3078 -0.3356
12396W        W28580   6.788  17.225   2.270 -0.2244 -0.1908  0.0809
12397W        W28581   9.428  14.021  14.176 -0.0250 -0.2068 -0.1368
12398W        W28582   9.222  10.457   1.608  0.1883  0.1426 -0.2395
12399W        W28583   1.466  18.006  12.338  0.2256 -0.0933  0.0821
12400W        W28584  15.441   1.633   0.665  0.1222 -0.2753  0.2492
12401W        W28585  12.439   6.514  14.448 -0.2243  0.1921 -0.1458
12402W        W28586   1.882   1.974  11.426 -0.1848  0.2216 -0.0619
12403W        W28587   4.933   6.552  11.855 -0.1968  0.1533 -0.1778
12404W        W28588   6.823   9.252  11.986  0.2539 -0.4669  0.1485
12405W        W28589  16.852   7.752  12.159  0.0752 -0.0500 -0.0177
12406W        W28590  11.910  15.971   0.739  0.2085 -0.1536 -0.0131
12407W        W28591  10.593  11.099   5.624  0.1730  0.1980 -0.1081
12408W        W28592  18.124  12.115   5.944  0.2076 -0.1986 -0.1712
12409W        W28593   0.061   2.402  12.766 -0.0393  0.0819  0.1876
12410W        W28594  11.658   6.703  10.930  0.0220 -0.1154 -0.6467
12411W        W28595   3.097   7.344   1.677  0.1203  0.1303  0.1553
12412W        W28596  17.557  10.965   3.162 -0.0359 -0.2822  0.3880
12413W        W28597  18.280   9.956   4.199  0.3161 -0.1588 -0.2304
12414W        W28598   2.121   7.042  12.584  0.1883  0.4161  0.0402
12415W        W28599  15.008  16.006   3.924 -0.2297  0.1607 -0.0724
12416W        W28600  13.314  17.602   4.254 -0.3723 -0.0109  0.0257
12417W        W28601  16.247  10.938   1.675  0.3510  0.1493 -0.2466
12418W        W28602   9.245  10.273  13.605  0.0856  0.2078 -0.0615
12419W        W28603  17.460  10.795   1.442  0.1916 -0.1025 -0.1933
12420W        W28604  16.403   7.461  10.920  0.0399  0.1595 -0.5410
12421W        W28605   5.814  17.519  15.932  0.1119 -0.1782  0.0550
12422W        W28606  16.752   3.238   2.901 -0.1101 -0.1102 -0.1169
12423W        W28607  16.470   9.703   0.175  0.4415 -0.0467 -0.2018
12424W        W28608   6.237   1.190   4.437 -0.3645  0.3096  0.1808
12425W        W28609  16.833  16.335   2.240 -0.1934  0.2460 -0.2052
12426W        W28610  14.848   1.810  12.727 -0.0012  0.1515 -0.0419
12427W        W28611   0.215   9.921   0.236  0.1834 -0.0865 -0.0961
12428W        W28612  16.236   2.413   2.606  0.3047  0.0230 -0.0594
12429W        W28613   3.310  15.649  15.405  0.0190  0.2378 -0.0445
12430W        W28614   2.038  14.737   4.090  0.1963  0.3755  0.2171
12431W        W28615   7.229   3.345   5.029 -0.2153 -0.1149 -0.0985
12432W        W28616  18.155  10.328   1.588 -0.1300 -0.1218 -0.0124
12433W        W28617   9.638  11.151  16.040 -0.0211  0.1436  0.1212
12434W        W28618  18.466  14.579   0.732 -0.1742  0.2089 -0.1669
12435W        W28619  12.621  14.047  11.396 -0.3186 -0.1519 -0.2364
12436W        W28620   4.798  16.710   3.314  0.0365 -0.4219  0.0731
12437W        W28621   1.781   0.793  13.864  0.0521 -0.1851 -0.0128
12438W        W28622  18.278   8.306   5.449  0.2267 -0.0071  0.0596
12439W        W28623  17.180   1.143   0.911  0.5808 -0.0772  0.2027
12440W        W28624   9.151  12.112  15.262  0.1759  0.2996  0.4677
12441W        W28625   3.914  13.131  15.776  0.0833 -0.1363  0.0382
12442W        W28626   2.756   9.419   1.553  0.3987 -0.3620  0.0078
12443W        W28627   8.923   8.535  14.189  0.1071 -0.0419  0.1606
12444W        W28628   5.903  14.065  10.744 -0.1058  0.1828 -0.1309
12445W        W28629  13.132  18.250   1.843  0.3437 -0.0910  0.2803
12446W        W28630   0.087  14.289  15.809  0.0529 -0.1393  0.1209
12447W        W28631  10.960   9.479   3.316  0.2201 -0.1194 -0.0244
12448W        W28632  15.886  12.397  13.088 -0.0257  0.0558  0.1312
12449W        W28633  10.203  10.731   2.140  0.1533 -0.3176  0.1453
12450W        W28634   1.937  11.903   4.943 -0.0889 -0.1113 -0.1203
12451W        W28635   3.017   4.043   0.109 -0.2766 -0.2374 -0.2504
12452W        W28636   7.951   1.115  13.659 -0.0059  0.0427 -0.0526
12453W        W28637   8.888   7.789  15.725  0.2212  0.0567  0.4070
12454W        W28638   4.840  12.868   5.312  0.1217 -0.0554 -0.0212
12455W        W28639   0.610  16.132   0.813  0.0367 -0.0303 -0.2966
12456W        W28640   1.018   2.428  11.642  0.1301 -0.0345 -0.2554
12457W        W28641   6.224   4.734  12.748 -0.2211 -0.3422 -0.0586
12458W        W28642  17.602  13.729  12.533  0.1594 -0.0512 -0.1009
12459W        W28643   3.071   5.737   5.061 -0.3013 -0.0541 -0.0366
12460W        W28644   8.275   7.488   1.959  0.3514 -0.1660 -0.0611
12461W        W28645  18.504   9.918  14.209  0.0978 -0.0398  0.0031
12462W        W28646   6.419   7.135   3.261 -0.1603 -0.2359  0.2930
12463W        W28647   5.942  18.238   1.193 -0.0988  0.3116 -0.0209
12464W        W28648   1.699   6.863   4.561 -0.3290 -0.0817 -0.1695
12465W        W28649   9.616  17.041   3.711 -0.0570 -0.1680  0.2135
12466W        W28650   5.950   7.477   4.445 -0.0401 -0.0494  0.2469
12467W        W28651   2.006   4.524  11.193  0.1824  0.3875  0.3224
12468W        W28652  15.812  17.837  10.415 -0.0934  0.0380  0.0153
12469W        W28653  14.846  14.934   2.629  0.6668 -0.0964 -0.0420
12470W        W28654   4.855   1.915  15.373 -0.0328  0.1725  0.1993
12471W        W28655   6.265  16.661   1.939  0.0600 -0.1804  0.0484
12472W        W28656  15.205   7.600   0.555 -0.1508  0.0905  0.0448
12473W        W28657   9.750  10.561   1.658  0.0695  0.5890  0.2420
12474W        W28658   8.315  12.266  13.434 -0.0559  0.1015 -0.3223
12475W        W28659   5.767  12.298   1.113 -0.1670 -0.3915  0.0772
12476W        W28660   4.438  10.557   1.232 -0.0076 -0.3196  0.1607
12477W        W28661   4.068   1.672  14.388 -0.1417  0.0029 -0.0244
12478W        W28662  11.448  14.930   6.011  0.1312  0.2318 -0.0645
12479W        W28663   3.546   1.359   1.929  0.2569 -0.2242  0.3297
12480W        W28664   4.525   3.983   3.299  0.2843 -0.2141 -0.2046
12481W        W28665   8.727  10.432  15.179  0.1542 -0.3769 -0.0613
12482W        W28666  10.983   5.969   3.499 -0.0234 -0.0462  0.0211
12483W        W28667   4.389   3.936  15.025  0.1340  0.0607  0.0534
12484W        W28668   2.183   6.481  11.349 -0.1279  0.1089  0.0458
12485W        W28669  10.318  11.307   2.131  0.1561  0.1398  0.0954
12486W        W28670  11.684  14.160   3.572 -0.1521 -0.0118 -0.0685
12487W        W28671   6.485   5.862  11.685  0.0891  0.0486  0.0932
12488W        W28672  13.000   5.701   3.428 -0.3543  0.1290  0.0105
12489W        W28673   4.651   0.089  14.392  0.2646 -0.1244 -0.0401
12490W        W28674  17.622  14.107  11.367  0.2184  0.0431 -0.1427
12491W        W28675   9.070  10.778   2.021  0.0115 -0.1859  0.2825
12492W        W28676  12.404   1.646  12.263  0.2530 -0.0558 -0.0603
12493W        W28677  14.089  17.282  13.722 -0.0659  0.0458 -0.1759
12494W        W28678   9.240   9.049   5.760  0.1845  0.2930  0.1445
12495W        W28679   5.649   4.549   4.092  0.0342 -0.1030  0.2220
12496W        W28680  12.809   4.347   2.863  0.1401 -0.2662  0.0960
12497W        W28681   1.466  12.274  11.374 -0.3028  0.1029  0.1166
12498W        W28682   9.156   0.497  11.996  0.1420 -0.1831 -0.3395
12499W        W28683   9.441   6.574   3.295 -0.1344 -0.0240  0.1503
12500W        W28684   7.029  14.322  11.789 -0.0616 -0.4698 -0.0107
12501W        W28685   3.671  16.059   2.803  0.3543 -0.1608  0.3421
12502W        W28686  18.158  13.143  14.608 -0.0759 -0.0531 -0.0605
12503W        W28687  14.008   3.537  15.739 -0.1538  0.0612 -0.2748
12504W        W28688   9.631   3.546   1.895 -0.4279  0.2379 -0.1696
12505W        W28689  13.927   2.095   0.194  0.0945  0.0710  0.0434
12506W        W28690  15.875   7.246   3.121 -0.1524  0.1977  0.1334
12507W        W28691  13.037  13.495   0.081 -0.0079 -0.1942  0.1010
12508W        W28692  18.226  13.771   4.363  0.2833  0.1179 -0.2171
12509W        W28693   7.887  12.402  12.556 -0.0168 -0.2022 -0.1573
12510W        W28694  18.522  12.081   0.928 -0.3104 -0.0882  0.2306
12511W        W28695  14.370  13.292  15.187 -0.2638  0.3098 -0.0884
12512W        W28696   6.437   0.322   4.876 -0.2743  0.2802 -0.4140
12513W        W28697  12.585  13.098   3.101 -0.2438 -0.1442  0.1385
12514W        W28698   0.288  16.856   3.397 -0.0199  0.0824 -0.1491
12515W        W28699  15.860   3.533   1.510  0.2917 -0.0874 -0.1140
12516W        W28700  11.292   7.869  13.242  0.0977  0.0109  0.0051
12517W        W28701  11.677  17.317   5.253  0.2412 -0.1176 -0.0073
12518W        W28702   8.135   2.486   4.111  0.0163  0.1855 -0.1765
12519W        W28703   4.767  10.174  12.556 -0.2355 -0.1454 -0.1940
12520W        W28704  16.224   2.189   5.541  0.0089  0.0370  0.0272
12521W        W28705   9.451   9.758   5.212  0.3593  0.0848 -0.1225
12522W        W28706   1.139  16.934   4.890  0.3246 -0.1684 -0.4028
12523W        W28707   6.479  13.632   4.271  0.0255 -0.1184  0.2008
12524W        W28708  10.563   9.617  13.800  0.1055 -0.1632 -0.0538
12525W        W28709   8.026  15.251   1.508  0.1915 -0.0193  0.1369
12526W        W28710   7.039   5.130   0.428 -0.0416 -0.2112 -0.1339
12527W        W28711   9.903  16.419  16.142 -0.0050  0.3192 -0.0954
12528W        W28712  14.703  15.429   1.219 -0.1174 -0.0231 -0.0248
12529W        W28713  17.599  12.440  14.824 -0.0664 -0.2483  0.0476
12530W        W28714   6.077  15.745   0.455 -0.0308  0.1524  0.0589
12531W        W28715  15.614   2.964   5.168  0.0346  0.0386  0.2083
12532W        W28716  12.729  18.094  12.145 -0.1049  0.1104 -0.1131
12533W        W28717  17.565   4.871   2.748 -0.2195 -0.0180  0.0414
12534W        W28718  10.203   5.555   3.188  0.0901  0.0006 -0.4122
12535W        W28719  13.739   5.195   2.415  0.4032 -0.0387 -0.1675
12536W        W28720   3.757   8.950   0.777 -0.1408  0.2285  0.0596
12537W        W28721  10.948   7.146   2.857  0.0275 -0.2288  0.0851
12538W        W28722  13.120   8.628  11.211 -0.2624 -0.0758  0.1633
12539W        W28723  16.083  10.432   1.323  0.1577 -0.0078 -0.3879
12540W        W28724   2.330  15.303   0.821  0.1151  0.1243  0.0151
12541W        W28725   3.475  12.484  11.242 -0.1347  0.2013  0.0814
12542W        W28726  13.563   7.236  12.246  0.1890 -0.0196 -0.0368
12543W        W28727  13.961  15.732  13.235  0.3160 -0.2319 -0.3821
12544W        W28728   4.235   6.049   5.885 -0.3224 -0.2302 -0.1218
12545W        W28729  15.160  14.378  11.277 -0.0876 -0.0855  0.1329
12546W        W28730  13.190   8.630   4.344  0.1514  0.1950 -0.0825
12547W        W28731   4.827  13.351  13.296 -0.3084  0.0504  0.3499
12548W        W28732  14.720   7.757  12.403 -0.1370 -0.1224  0.1655
12549W        W28733  18.282   0.738  13.149  0.1030 -0.2349  0.4145
12550W        W28734  16.659   8.440   2.330  0.1133 -0.0638 -0.3770
12551W        W28735  14.296  13.898  15.815 -0.0642  0.1435  0.0425
12552W        W28736   3.497  14.919  16.021  0.1659  0.2024  0.0459
12553W        W28737  13.797  13.154  12.177 -0.2536  0.1693  0.1797
12554W        W28738  17.089  17.208   1.139 -0.0919 -0.3228  0.0243
12555W        W28739   7.808   8.600  13.177  0.2696 -0.2264 -0.0341
12556W        W28740   1.022  14.290   5.507 -0.1879  0.2662  0.1051
12557W        W28741   7.304   3.085  15.410 -0.3855  0.3781  0.0054
12558W        W28742  13.194  16.519  12.824  0.2054 -0.2494  0.3077
12559W        W28743   3.405   0.208  12.133  0.0123 -0.0758 -0.0158
12560W        W28744   7.594   8.762  11.846 -0.0494 -0.3055 -0.0116
12561W        W28745  14.141   9.405  11.666 -0.1572 -0.0191 -0.3277
12562W        W28746  18.417  15.990   0.063  0.0494 -0.0052  0.0204
12563W        W28747   9.204  11.191  11.849  0.1195 -0.0410  0.0134
12564W        W28748  13.694  12.836  14.204 -0.1593 -0.0713  0.0341
12565W        W28749   3.844  12.210  14.014 -0.2253 -0.0192  0.2152
12566W        W28750   4.891  13.354  12.102 -0.0350 -0.1090 -0.0988
12567W        W28751  17.818   2.104  11.483  0.1755 -0.1224  0.1499
12568W        W28752   7.050  12.576   4.235 -0.1055  0.2500 -0.1492
12569W        W28753   2.807  12.772  15.237 -0.1650  0.1035 -0.0776
12570W        W28754   2.885   7.700  15.305 -0.0313 -0.0949  0.0948
12571W        W28755  11.290  14.446   4.407 -0.0594 -0.2978 -0.5884
12572W        W28756   2.140  10.497   6.123  0.0137  0.4101  0.1027
12573W        W28757   5.147   6.112   4.394 -0.0882 -0.3155  0.3172
12574W        W28758   5.190  12.983   3.561  0.2002  0.1274  0.0161
12575W        W28759   2.512   3.743   5.002  0.0363  0.1250 -0.2547
12576W        W28760   5.978   3.019  14.810 -0.1716  0.2837  0.2615
12577W        W28761  16.798  15.955   3.134  0.0326  0.0675 -0.1543
12578W        W28762  13.047  10.815  15.776 -0.1681  0.0520 -0.0448
12579W        W28763   6.903   0.072   2.589  0.1366  0.0187 -0.1940
12580W        W28764  12.911   6.754  14.867  0.0821  0.2716 -0.1329
12581W        W28765   2.180   9.510  13.302 -0.1085  0.1110 -0.1160
12582W        W28766   6.175  17.499  11.447 -0.0109  0.1012  0.1224
12583W        W28767  15.089   5.065   1.074  0.1055  0.3365 -0.2650
12584W        W28768   7.533   9.615  12.206 -0.1063  0.0732 -0.3297
12585W        W28769  12.856  11.582   2.239  0.2063  0.1184  0.0156
12586W        W28770  12.756  11.415   3.684 -0.1633 -0.0963  0.2427
12587W        W28771   0.679  15.188  15.908 -0.0210  0.0360  0.0053
12588W        W28772  15.031  17.442  16.037 -0.0505  0.4288 -0.2095
12589W        W28773   8.457  13.000  13.102 -0.5364 -0.4670 -0.2268
12590W        W28774   8.562   4.915  15.215 -0.3382  0.0133 -0.3098
12591W        W28775  14.122   3.269   2.207 -0.1986 -0.2003  0.1734
12592W        W28776   0.975   7.369   2.075  0.0522  0.0503 -0.2738
12593W        W28777   8.052  11.685   1.913 -0.1977  0.2566 -0.2316
12594W        W28778  14.530  10.570   5.047 -0.0061  0.0991 -0.2675
12595W        W28779   0.908  14.091  11.072  0.2216  0.1431 -0.0017
12596W        W28780   3.618   6.894   4.399  0.1737 -0.5242 -0.0468
12597W        W28781   2.694   7.863   4.304 -0.0096  0.1980  0.0389
12598W        W28782  12.298  11.480   2.885 -0.2040  0.1190 -0.2911
12599W        W28783  13.882   1.723   1.217 -0.1927 -0.4099 -0.0592
12600W        W28784   9.025  14.589  12.277  0.0585 -0.1635  0.1762
12601W        W28785   1.789  14.492   0.837  0.0691  0.0511 -0.1144
12602W        W28786  16.427   2.070   3.476  0.1981  0.1624  0.0469
12603W        W28787  13.775   5.776  15.823  0.1657  0.1221 -0.0364
12604W        W28788   0.454   7.302   2.025 -0.1313  0.3482 -0.0543
12605W        W28789   1.517   4.565  13.769  0.3343 -0.0452  0.0691
12606W        W28790  18.474   4.750   0.626 -0.0848 -0.0036  0.2178
12607W        W28791  16.025  16.108  13.836 -0.1612  0.2234  0.3825
12608W        W28792  17.779   0.356   4.293  0.2920 -0.0756 -0.2729
12609W        W28793   4.390  13.768  15.024 -0.1562  0.1232 -0.1511
12610W        W28794   4.332   0.109   3.940  0.1472 -0.1697  0.1156
12611W        W28795   8.809  15.323  15.562 -0.1494 -0.0836 -0.1315
12612W        W28796   6.881   7.190   1.965 -0.0520 -0.1370 -0.2150
12613W        W28797   8.126   7.165   3.669 -0.3078  0.0667  0.0139
12614W        W28798   3.065  13.199   0.518  0.0362  0.1661 -0.1536
12615W        W28799   8.824   5.969   1.022 -0.0242  0.3191 -0.0977
12616W        W28800  12.146   8.008   1.171  0.0097 -0.2597 -0.0007
12617W        W28801   0.604   2.704   4.447 -0.0897 -0.3128 -0.1311
12618W        W28802   1.061  13.558   4.727  0.0540 -0.2286 -0.0090
12619W        W28803   8.365  11.849  14.699 -0.2822  0.2846 -0.1874
12620W        W28804  18.048   1.859  12.266  0.0619 -0.0886  0.1250
12621W        W28805  15.905  14.207   1.685 -0.3629 -0.2691  0.0360
12622W        W28806   0.228  16.054  11.599  0.2244  0.1032 -0.0866
12623W        W28807  11.521  18.378   3.081 -0.1947  0.1294  0.0569
12624W        W28808  14.095  10.906   2.450 -0.1090 -0.1201 -0.1382
12625W        W28809  10.108   2.402   0.648 -0.2791 -0.2194  0.0860
12626W        W28810  14.171   5.958   0.445 -0.2151  0.1728  0.0008
12627W        W28811   6.176   9.700   3.805 -0.0165  0.2431 -0.0807
12628W        W28812  11.844   4.201   1.965  0.1494 -0.3259 -0.0533
12629W        W28813   3.089   1.044  15.903  0.0663 -0.0988  0.3733
12630W        W28814   6.579  14.312   5.472  0.1805  0.0899 -0.0557
12631W        W28815  18.398   5.059  13.801  0.2397 -0.0352  0.1791
12632W        W28816  12.967  12.683  12.642  0.1754  0.1319 -0.0410
12633W        W28817   1.696   0.983  15.235  0.0147  0.0758 -0.1946
12634W        W28818   1.325   5.426   0.872  0.0899  0.0789 -0.0225
12635W        W28819  15.042   3.427   0.847  0.0431 -0.0277  0.1407
12636W        W28820   3.613  18.409   5.072 -0.0211 -0.1142 -0.0411
12637W        W28821   5.008  15.679  15.276  0.0831 -0.1615 -0.0210
12638W        W28822   0.927   6.233   5.515  0.3760 -0.1045 -0.1190
12639W        W28823   2.220  17.159   3.409  0.0964 -0.2006  0.0878
12640W        W28824   1.463  13.455  13.585 -0.0048 -0.1377 -0.0760
12641W        W28825   9.300   7.282   2.545  0.0127 -0.0383 -0.2681
12642W        W28826  10.549  13.864  16.136 -0.1028  0.1467 -0.1545
12643W        W28827  14.516  11.029   3.428  0.1850 -0.1595 -0.1515
12644W        W28828  11.966   4.337   2.417 -0.0918  0.1496 -0.0270
12645W        W28829   2.521  12.649   0.209  0.0209 -0.0486  0.1623
12646W        W28830  12.084   9.574  13.709 -0.1220 -0.0609  0.3167
12647W        W28831   6.823  10.564  15.058  0.1625  0.2750 -0.0892
12648W        W28832   9.835   4.941   5.419  0.1493  0.1933 -0.0030
12649W        W28833   1.198   9.795   3.484  0.1105  0.0729  0.3275
12650W        W28834  10.276   5.864  13.587 -0.3849 -0.1294 -0.1280
12651W        W28835   7.657  14.802  13.297 -0.0814 -0.1882 -0.2069
12652W        W28836  12.511   3.187  12.604  0.2439  0.0969  0.1254
12653W        W28837   1.712  12.757   1.213 -0.0894 -0.1372  0.0237
12654W        W28838   3.243   2.065   0.752  0.0238  0.1709 -0.0214
12655W        W28839  12.542   3.988   6.037  0.1289  0.3330 -0.1299
12656W        W28840   1.011  17.740  14.880 -0.1420  0.0177 -0.0419
12657W        W28841  10.809  16.271   5.045 -0.0622 -0.0660  0.1691
12658W        W28842   9.078   5.893   4.761  0.1200 -0.1487  0.0493
12659W        W28843   4.998   7.268   0.471 -0.0593 -0.2303  0.0985
12660W        W28844   3.033  12.346  10.907  0.0092 -0.2171 -0.2173
12661W        W28845  10.547   0.915   2.035  0.0813 -0.0192  0.0686
12662W        W28846   8.963   2.949   0.684 -0.2212  0.0562 -0.1157
12663W        W28847   2.240  16.075  12.982  0.2734  0.0874  0.1784
12664W        W28848   7.339  13.027   4.486  0.0856 -0.2018  0.0844
12665W        W28849   8.148  12.359  15.750  0.3227  0.0299  0.1419
12666W        W28850   8.930   4.334   2.661 -0.1219 -0.0780  0.2256
12667W        W28851  17.910   5.397   1.461 -0.2160 -0.0923 -0.1304
12668W        W28852   1.470   0.993  14.768  0.2185  0.1087 -0.1601
12669W        W28853   4.704  15.134   4.055  0.1841  0.4338  0.0481
12670W        W28854  11.065   2.890   4.492 -0.0299  0.0623  0.0176
12671W        W28855   4.844   1.957   3.037 -0.0933  0.1237 -0.0473
12672W        W28856  15.755   9.130  13.193  0.0880 -0.3060 -0.2525
12673W        W28857   8.345   5.108   3.310 -0.2301  0.3755 -0.1209
12674W        W28858   2.528   0.316  12.418 -0.1007 -0.1338  0.1543
12675W        W28859   3.107   4.210   2.819  0.1177  0.1432  0.0676
12676W        W28860  16.297   4.060   3.044  0.2024  0.1254 -0.0697
12677W        W28861  14.756   4.378   3.091 -0.0515 -0.1878  0.2115
12678W        W28862   6.628  13.838  15.074  0.2632  0.0752  0.3521
12679W        W28863   5.452   3.089   1.191 -0.1160  0.0350  0.0000
12680W        W28864  14.050   3.684   4.295 -0.1033  0.0270 -0.1533
12681W        W28865   7.718   0.586  15.480 -0.0997 -0.0173 -0.1108
12682W        W28866  15.243  12.442   1.994  0.4116  0.3342 -0.2041
12683W        W28867  17.332   3.131  15.077 -0.3068  0.1486  0.0283
12684W        W28868   8.301   8.637   4.703  0.1155 -0.2380 -0.1087
12685W        W28869   9.354   7.068  12.755 -0.1830  0.1804  0.2961
12686W        W28870   3.431   1.160  14.822  0.0646 -0.1411 -0.2718
12687W        W28871  16.616  11.021  14.569  0.1499 -0.1402  0.1176
12688W        W28872   0.336  13.848  15.633 -0.1352 -0.1086 -0.1015
12689W        W28873  13.741   1.525  15.533 -0.0413  0.3150 -0.1096
12690W        W28874  13.697   2.753   1.475  0.0905  0.1206 -0.1671
12691W        W28875   1.518  11.202   5.925 -0.3438  0.0190  0.0770
12692W        W28876   6.388   4.517  14.414 -0.1251  0.0539 -0.0377
12693W        W28877   5.160   3.061   0.385  0.0867  0.0847  0.0849
12694W        W28878  13.275  15.002   0.963 -0.3214  0.2112 -0.2997
12695W        W28879  18.445   9.410  11.171 -0.2756 -0.1535 -0.1406
12696W        W28880   7.170  10.509  11.274  0.2175 -0.0570 -0.1493
12697W        W28881   1.392   4.898   0.636 -0.1742 -0.1288  0.0313
12698W        W28882  16.857   8.694  13.238  0.2480  0.1072  0.1945
12699W        W28883   5.339  13.568  13.228 -0.0751 -0.0311 -0.0979
12700W        W28884   7.218   0.325  15.759  0.2015  0.4304  0.1731
12701W        W28885  12.519  18.356  11.702  0.0092 -0.1545  0.1159
12702W        W28886  17.376   2.825   4.097 -0.0090  0.1034 -0.0381
12703W        W28887   1.211  11.795   4.221  0.0382 -0.2447 -0.0061
12704W        W28888  18.488   9.079   3.641  0.0405  0.0968  0.0807
12705W        W28889   5.657   7.215  13.583  0.2858  0.0449 -0.0509
12706W        W28890  13.722  11.965   0.837  0.2791  0.0218  0.0456
12707W        W28891   6.765  11.385   5.291  0.0527 -0.2036 -0.3419
12708W        W28892  15.558   8.585   3.232 -0.2937 -0.2955 -0.2430
12709W        W28893  13.812   4.079   3.366 -0.0635  0.0266 -0.0114
12710W        W28894   1.532   0.814  11.809 -0.1029 -0.2103  0.3636
12711W        W28895   6.329   4.855   4.654  0.0690 -0.1297 -0.0845
12712W        W28896   7.004  15.493   3.426 -0.3128 -0.1090  0.2548
12713W        W28897  14.367  11.159   1.025 -0.0176 -0.3782 -0.1935
12714W        W28898   5.415  17.536   4.661  0.4816  0.1403  0.1136
12715W        W28899  18.266  10.049  10.669 -0.2142 -0.4095 -0.0276
12716W        W28900   0.667  13.848  12.033  0.1742  0.3615  0.0176
12717W        W28901  13.693   9.379  15.444 -0.2433  0.1116 -0.1789
12718W        W28902  13.329   0.896   5.117  0.0149  0.1571  0.1178
12719W        W28903   5.474   9.014  13.911 -0.0778  0.1379  0.0995
12720W        W28904  16.107  17.428   3.801 -0.0866 -0.1024  0.1605
12721W        W28905  15.690  10.480   6.078 -0.2188 -0.0242  0.3833
12722W        W28906   6.525  12.092  11.776  0.1492  0.4235  0.1033
12723W        W28907   4.595  11.407   5.175  0.1722  0.0895  0.0060
12724W        W28908   6.488   0.987  13.373  0.4048 -0.1520 -0.0839
12725W        W28909  12.128  10.624  13.770  0.1740  0.1788  0.1558
12726W        W28910  12.190   6.717  11.307 -0.1089 -0.2361 -0.1107
12727W        W28911  15.759   9.783   3.369  0.0646  0.2080 -0.0309
12728W        W28912   4.363   6.755   1.986 -0.0369  0.1523  0.0219
12729W        W28913  14.250  10.907  10.934 -0.1590 -0.3368 -0.0614
12730W        W28914   5.235   8.475   2.789 -0.0203 -0.1088 -0.2040
12731W        W28915   9.407  14.088   0.261  0.0957  0.1588  0.1056
12732W        W28916  13.480   5.593   1.081  0.2641  0.0025 -0.3170
12733W        W28917   7.833  11.066   0.175 -0.0625  0.1997 -0.0141
12734W        W28918   6.893  15.155   0.697 -0.1120  0.1079  0.0760
12735W        W28919   9.693   5.650   1.489 -0.1471  0.1508  0.0564
12736W        W28920   9.443  10.382   2.619  0.0101  0.0202  0.0995
12737W        W28921   7.629  11.483  12.271  0.1651  0.1460  0.1825
12738W        W28922  11.225  10.874   1.342  0.1150 -0.1716  0.1507
12739W        W28923   3.986   1.621   1.083  0.1786 -0.1373  0.1034
12740W        W28924   2.746   8.097  11.816  0.0701  0.1892  0.1161
12741W        W28925   1.113   6.909  14.088  0.3354  0.1336  0.2010
12742W        W28926  12.091   9.751  14.711 -0.0503  0.2425 -0.0435
12743W        W28927   3.969  17.213   5.187  0.0753  0.0853  0.1745
12744W        W28928   3.437   8.844   3.664  0.0001 -0.0201  0.0776
12745W        W28929  16.625   1.214   3.031 -0.0167 -0.0721 -0.1026
12746W        W28930  16.851  13.136   2.271 -0.0142 -0.1119 -0.0626
12747W        W28931   0.180   2.377   0.926  0.1810 -0.1982 -0.1999
12748W        W28932   4.210   6.626  12.746 -0.0485 -0.5170 -0.1510
12749W        W28933  15.535  15.071  16.003  0.1028 -0.0778  0.1586
12750W        W28934  12.449   2.064  12.562  0.0935 -0.1093 -0.0642
12751W        W28935  15.073   5.885  15.177  0.3359  0.3807  0.0608
12752W        W28936   5.188   9.490   1.346 -0.1285 -0.3989  0.3095
12753W        W28937  13.632   2.423   5.802 -0.0181  0.2124 -0.0541
12754W        W28938   4.239  14.587  16.073  0.0831 -0.1018 -0.0033
12755W        W28939   7.280   9.103   5.410  0.1485 -0.2092  0.2004
12756W        W28940  17.109   3.851   4.876 -0.0527  0.1061  0.0098
12757W        W28941   9.769   9.665   1.767 -0.2276 -0.0509  0.0803
12758W        W28942   1.948  11.185   0.210 -0.0315  0.0142  0.5711
12759W        W28943   6.222  12.880  13.407  0.3010  0.0241  0.0547
12760W        W28944   3.312  16.274   0.136  0.3793  0.1144 -0.0316
12761W        W28945  12.016  15.011   0.556  0.0741  0.1616 -0.2701
12762W        W28946  11.806   4.780   3.410 -0.0454  0.3581  0.0440
12763W        W28947  16.562   5.676  11.941  0.1557  0.0893 -0.0718
12764W        W28948   3.476  13.941  15.177 -0.0964 -0.0870  0.0663
12765W        W28949  16.088   4.468   0.028 -0.2932  0.1816  0.1820
12766W        W28950   8.515  12.452   0.303  0.2080 -0.4544  0.0625
12767W        W28951  13.149  18.210  15.870  0.0440  0.1077 -0.0257
12768W        W28952   8.164  17.274   5.052 -0.1200 -0.0353 -0.0760
12769W        W28953  16.811  11.933   0.775  0.2489  0.1961 -0.0500
12770W        W28954   0.855  12.748   1.251 -0.1435  0.0161 -0.3086
12771W        W28955   5.464   2.647  16.009 -0.0823  0.0356 -0.0033
12772W        W28956   7.601   9.863   0.833 -0.0715  0.0802 -0.1702
12773W        W28957  11.655   8.382  15.566  0.0522 -0.0184  0.0128
12774W        W28958   6.863   2.263  12.828 -0.1696 -0.1265 -0.1527
12775W        W28959  14.780   4.852  13.893 -0.0044 -0.2538 -0.1444
12776W        W28960   5.908   5.707   0.064  0.1407  0.0706  0.2956
12777W        W28961   4.528   8.055   2.819  0.4437 -0.0312 -0.0839
12778W        W28962  14.064  16.192   3.789 -0.6633 -0.1219  0.0709
12779W        W28963   5.444  14.462   4.352 -0.0097 -0.3495  0.0893
12780W        W28964  12.948   6.183  12.427  0.1360 -0.1939  0.1421
12781W        W28965   3.729   0.504   0.945 -0.1712 -0.2685  0.1572
12782W        W28966   1.275   9.260  14.391 -0.1187  0.2316  0.0234
12783W        W28967  12.738   8.924   4.230  0.2970  0.2137  0.0979
12784W        W28968   9.490   2.658  13.116 -0.1319  0.1235 -0.0369
12785W        W28969   1.154  10.168  12.967  0.1081  0.3104 -0.2012
12786W        W28970   3.489  16.796  12.738 -0.0081  0.0854  0.2828
12787W        W28971  15.112  14.110   4.506 -0.1305 -0.0024 -0.1631
12788W        W28972   0.836  11.469   2.344 -0.1331  0.0019 -0.0067
12789W        W28973  17.159  14.043   0.315  0.3660 -0.3544 -0.1789
12790W        W28974   5.659   9.734   4.018 -0.0006 -0.0803 -0.1817
12791W        W28975  14.925   4.741  12.048  0.1089  0.0932  0.2199
12792W        W28976   5.160   4.867   2.702  0.1629  0.0615 -0.2506
12793W        W28977  18.235  12.703  14.839 -0.2242  0.0318 -0.1936
12794W        W28978  10.589   7.281  14.200 -0.1639 -0.1036 -0.0846
12795W        W28979  17.629   6.484  13.442 -0.1362  0.0670  0.1418
12796W        W28980  11.067  11.739   3.241  0.2741  0.1509  0.0724
12797W        W28981  11.770   6.300   3.341  0.0820  0.0681 -0.1058
12798W        W28982  11.392   4.499  11.603 -0.1638  0.0334 -0.1826
12799W        W28983  10.638   8.563  13.784 -0.0423 -0.2531 -0.2121
12800W        W28984   7.793  10.197   5.570  0.2316  0.1743 -0.1216
12801W        W28985   7.395  12.455   5.748 -0.0820  0.1149 -0.0344
12802W        W28986  14.704   8.391   2.697 -0.1371 -0.0184 -0.2264
12803W        W28987  10.785  14.518  11.927  0.0994  0.1109  0.1872
12804W        W28988   3.149  15.083  11.535 -0.0687  0.0664 -0.1863
12805W        W28989  17.354  13.462  13.803  0.2132  0.0186  0.0035
12806W        W28990  10.849   7.549  13.430 -0.1171 -0.0977 -0.0436
12807W        W28991  16.211  18.347   1.394  0.0199 -0.3067 -0.1828
12808W        W28992   3.605   7.517  13.864 -0.0699 -0.2230  0.1883
12809W        W28993  12.565   4.149  12.573 -0.1045 -0.0724 -0.1603
12810W        W28994  13.500  10.481  11.359 -0.0055  0.3100  0.0256
12811W        W28995   0.562  10.013   2.775  0.4208  0.1973 -0.0246
12812W        W28996  16.121   6.915  14.944 -0.0560 -0.0208 -0.1507
12813W        W28997  17.771   2.536  10.537 -0.1121  0.0735  0.2247
12814W        W28998   4.580  12.285   1.381  0.2333  0.0165  0.2051
12815W        W28999   5.996  12.556   3.611  0.0268 -0.0914 -0.0764
12816W        W29000  14.596   0.548  15.001  0.1498 -0.0738 -0.2625
12817W        W29001   3.270  11.882   5.060  0.1421 -0.0827 -0.0733
12818W        W29002   6.621  16.454  11.896  0.1948 -0.1519 -0.1037
12819W        W29003  17.320  11.639  13.841  0.1424 -0.0046 -0.1379
12820W        W29004  12.584  15.188   3.911 -0.1466 -0.0479  0.0385
12821W        W29005  13.201   4.191  15.519  0.0627 -0.1210  0.0176
12822W        W29006  14.446   8.305  15.080 -0.0184  0.2373  0.0785
12823W        W29007   9.849   2.756   3.464 -0.3096 -0.1498 -0.1402
12824W        W29008   3.977   7.904  14.773 -0.0751  0.1582  0.0929
12825W        W29009  12.507  12.187   3.002  0.0704  0.4181 -0.4587
12826W        W29010   4.846   6.854   1.405 -0.1138  0.3347  0.0741
12827W        W29011   1.012   1.625   1.499  0.0549 -0.1571 -0.1488
12828W        W29012  15.227   7.814  14.282  0.0589 -0.1423 -0.2747
12829W        W29013   8.486  14.999   0.696  0.0441 -0.2967  0.1353
12830W        W29014   6.912   9.637  12.843  0.2259 -0.0981 -0.0979
12831W        W29015  18.505   8.902   4.840  0.1187 -0.0259  0.0128
12832W        W29016   0.355  10.243   3.624 -0.4158  0.3021 -0.0129
12833W        W29017   7.881  12.173   4.488 -0.1847 -0.2947 -0.3097
12834W        W29018   6.606  13.754   0.795 -0.0920 -0.1113 -0.0888
12835W        W29019   2.319   5.229  11.683 -0.0227 -0.2467  0.0917
12836W        W29020  15.965   9.904  14.231 -0.2571  0.1277  0.1078
12837W        W29021  14.638  17.279  14.371  0.0658  0.1216 -0.3152
12838W        W29022  18.131  14.647   1.087 -0.0444  0.0630  0.1658
12839W        W29023  13.276  16.743  14.371  0.2939 -0.0229  0.2120
12840W        W29024   3.648  15.032  11.733  0.0927  0.1878 -0.0386
12841W        W29025  15.026   0.942   1.687 -0.3335  0.0877 -0.1519
12842W        W29026   4.081   2.697   1.051  0.0051 -0.2493  0.2118
12843W        W29027  17.247  17.781   5.175  0.2454  0.0628 -0.1252
12844W        W29028  12.934  16.277   2.703 -0.0516 -0.2258 -0.2941
12845W        W29029  16.268   1.083   1.096  0.1483  0.0448  0.3100
12846W        W29030   4.344  18.251  15.121  0.0304  0.0101  0.0260
12847W        W29031   6.694  17.421   6.223  0.1231 -0.4049 -0.2518
12848W        W29032  13.017  17.227   1.578 -0.0544 -0.2752  0.0347
12849W        W29033  10.157  15.347   0.022 -0.1854 -0.0579  0.1982
12850W        W29034  11.936  14.553  15.873  0.0726  0.0250 -0.1896
12851W        W29035  17.668  17.572   5.412 -0.1869  0.0469 -0.0764
12852W        W29036  13.994  15.649   4.928  0.0246 -0.0421  0.0661
12853W        W29037  12.502   8.114   3.024  0.1078  0.0164 -0.0507
12854W        W29038   1.321   4.916   1.140  0.0074  0.1865  0.0214
12855W        W29039   0.523  18.167  11.501 -0.1784 -0.1166 -0.1289
12856W        W29040  10.715   9.941  15.942 -0.2318 -0.1159  0.0338
12857W        W29041  11.492  12.198   1.424  0.1607 -0.0036  0.2225
12858W        W29042   7.686   9.282  11.904 -0.0573 -0.0333  0.0801
12859W        W29043  15.204   5.487   0.769 -0.3242  0.2084  0.4814
12860W        W29044   7.377   4.919   3.366  0.0117 -0.4445 -0.1603
12861W        W29045   4.017   1.278   5.348 -0.1773 -0.1327 -0.0616
12862W        W29046  11.845  13.088  14.989  0.1034 -0.2335  0.0122
12863W        W29047  10.523  12.912   2.210  0.0799 -0.0037  0.0024
12864W        W29048  18.117  12.250   2.591 -0.0051  0.0261  0.1286
12865W        W29049   7.384   8.813  12.955 -0.3012 -0.0982 -0.1517
12866W        W29050   6.116   4.961  11.905  0.0830  0.2003  0.3155
12867W        W29051  10.417   8.008   4.341  0.1257 -0.2773  0.1483
12868W        W29052   0.708   1.444  15.107 -0.2847 -0.1431  0.3715
12869W        W29053  13.757   3.751  13.546 -0.2122  0.0759 -0.4281
12870W        W29054  16.629   8.397   4.601 -0.0730 -0.2475  0.1329
12871W        W29055  13.528   7.827  14.316  0.0505 -0.3703 -0.1141
12872W        W29056  12.769   2.957  13.047  0.1824  0.0432 -0.2449
12873W        W29057   7.935   2.321  12.572 -0.0887 -0.1179  0.1548
12874W        W29058  13.612  11.304  14.168  0.1435 -0.3062  0.1932
12875W        W29059  17.866   1.953  16.048 -0.3955 -0.0577  0.1110
12876W        W29060   6.477   2.045  15.191 -0.3008 -0.2006 -0.0887
12877W        W29061  12.164  16.303  10.699 -0.0018  0.1617  0.0288
12878W        W29062  10.034   6.611   3.823 -0.0440  0.2065  0.1248
12879W        W29063  16.258  13.402   0.829  0.0334 -0.4490  0.0865
12880W        W29064  18.057   4.887   1.140  0.2185 -0.0544 -0.0171
12881W        W29065   6.432   2.008   0.577 -0.2813 -0.2157 -0.1116
12882W        W29066   7.069  13.137   0.678  0.0143 -0.0477  0.1386
12883W        W29067  11.843   8.464  11.418 -0.0157  0.4370 -0.1572
12884W        W29068   4.181   3.364  15.413  0.2246 -0.1020  0.0782
12885W        W29069  11.313   4.300   0.485 -0.0041  0.0311 -0.0950
12886W        W29070   2.795   7.527   5.129  0.1849 -0.1427  0.0940
12887W        W29071  15.774   7.394  15.791 -0.1123 -0.0419  0.1754
12888W        W29072   8.494   9.274   3.176 -0.1054  0.3366  0.0579
12889W        W29073   3.139  17.097  12.447 -0.1675  0.4165  0.0183
12890W        W29074   8.977   3.965  12.920  0.0909  0.0557 -0.4474
12891W        W29075  10.778  10.830   3.648 -0.2580 -0.1521  0.1901
12892W        W29076  17.364  18.023  13.569  0.0988 -0.1019  0.0886
12893W        W29077   5.468  14.908   0.302  0.0748 -0.0687 -0.0857
12894W        W29078   6.326   2.547  11.238 -0.0758 -0.0471 -0.0195
12895W        W29079   1.018  18.227   1.217 -0.0277  0.0636 -0.1092
12896W        W29080   1.870  11.115  13.942  0.0970 -0.0272  0.4514
12897W        W29081   7.777   2.349   1.347  0.0086  0.2855  0.0103
12898W        W29082   9.199  18.083   2.093  0.0834  0.3451  0.0562
12899W        W29083   1.349  17.307  14.089  0.1389 -0.3457  0.1493
12900W        W29084   4.601  17.206   5.460  0.0292  0.0654 -0.0581
12901W        W29085   2.813   0.408   0.647 -0.1523  0.2672 -0.0524
12902W        W29086  17.844  15.420  11.893 -0.3114  0.1726 -0.1704
12903W        W29087  17.254  18.189  10.475  0.0607  0.2208  0.0401
12904W        W29088  12.289  11.588   4.302  0.0003 -0.3733 -0.1621
12905W        W29089   1.487   6.145   2.412 -0.1613 -0.1599 -0.0323
12906W        W29090   9.914  13.696   3.472  0.4795  0.1853  0.0218
12907W        W29091  10.968   8.608  14.869  0.2391  0.1275 -0.0082
12908W        W29092  18.475  10.230   1.142  0.0861 -0.2202 -0.0377
12909W        W29093   8.804  15.598   4.061 -0.2821 -0.3615  0.1028
12910W        W29094  18.147  14.540  14.056  0.2546  0.2165 -0.1224
12911W        W29095   6.392  10.032  14.217 -0.0671 -0.1381 -0.1100
12912W        W29096  18.058  18.478   0.868 -0.1014  0.1942 -0.0379
12913W        W29097   0.091  16.499   0.101 -0.1135  0.2521  0.1811
12914W        W29098   7.984  15.661  15.301 -0.5398 -0.0980 -0.0962
12915W        W29099  10.578   4.744  13.530 -0.1383 -0.0676  0.4412
12916W        W29100   3.807   3.116   1.685  0.0137  0.4015  0.0236
12917W        W29101   2.673   2.870   3.808 -0.3455 -0.2472  0.0200
12918W        W29102  11.574  15.244   2.998 -0.1463  0.1553 -0.0544
12919W        W29103   9.390   6.517   0.195 -0.1453 -0.0835 -0.1802
12920W        W29104   6.580   3.470  11.413 -0.2145  0.1220  0.0214
12921W        W29105   8.299  16.800  14.932 -0.3314 -0.0374  0.2424
12922W        W29106  16.489   4.718   6.364  0.1661  0.1951 -0.1432
12923W        W29107  11.010  16.038   1.410  0.1898  0.1415  0.0285
12924W        W29108   7.780   1.903   1.062  0.1491 -0.1188  0.2085
12925W        W29109   5.353   8.481   5.508  0.1196 -0.2166 -0.2394
12926W        W29110  17.529   4.032  12.914  0.2604  0.1367 -0.2146
12927W        W29111   4.050   8.053   0.087  0.1336  0.3970  0.2013
12928W        W29112  11.208  11.105  11.539  0.0513 -0.1051 -0.2747
12929W        W29113  17.086   2.980   9.930  0.1245  0.1731  0.0027
12930W        W29114   4.365  11.484  14.699 -0.1123  0.1522  0.0051
12931W        W29115  15.053  18.083  15.970 -0.0669 -0.0030  0.2653
12932W        W29116  15.005  12.790  11.590  0.0144  0.2726 -0.1953
12933W        W29117  15.246   3.822   4.891 -0.3786  0.1383 -0.1367
12934W        W29118   8.312  10.165   0.514 -0.0803  0.1416  0.0741
12935W        W29119  18.187   2.668  15.754  0.0154 -0.0291  0.1913
12936W        W29120   9.174   4.763   0.682 -0.1344  0.0836  0.1115
12937W        W29121  15.037  11.689   3.596 -0.1033  0.0613 -0.0151
12938W        W29122   6.217  14.439   1.230  0.0712  0.1075 -0.2179
12939W        W29123  15.453   4.093  14.110 -0.1495  0.4086 -0.3389
12940W        W29124  18.112   2.532  12.986  0.2350 -0.1971  0.3070
12941W        W29125  13.941   6.885   3.419 -0.0807 -0.0556 -0.4921
12942W        W29126  18.046  13.227   5.501 -0.1179 -0.3082 -0.2024
12943W        W29127   1.687  11.469  16.053 -0.0262 -0.0768 -0.1134
12944W        W29128  13.981   1.150   3.163 -0.0894  0.1087  0.0481
12945W        W29129  16.543  12.145  12.629 -0.3999  0.2752 -0.1467
12946W        W29130  15.518  12.828   1.000 -0.0654  0.1994  0.0389
12947W        W29131   8.354   3.157   3.542 -0.0703 -0.2900 -0.0764
12948W        W29132  10.202   0.688   5.088  0.1156 -0.3199 -0.0985
12949W        W29133   7.455   5.396   4.425 -0.3046 -0.1928 -0.1213
12950W        W29134  10.134   6.971  13.700 -0.0309 -0.1956 -0.2559
12951W        W29135  11.241  11.613  15.092  0.0827  0.1937 -0.1080
12952W        W29136   9.526   8.960  15.743  0.0825  0.2565  0.1320
12953W        W29137  10.429  13.632   1.341  0.1947 -0.2893 -0.0631
12954W        W29138  15.099   2.430   2.449 -0.0094  0.0350 -0.1090
12955W        W29139   4.989   3.875   4.312 -0.0242  0.0343  0.0460
12956W        W29140   1.704  17.363   1.168 -0.2817 -0.1681 -0.2728
12957W        W29141   3.114  16.104   1.441 -0.3380  0.1170  0.2101
12958W        W29142   8.168   1.772   0.734 -0.2703 -0.1904 -0.0835
12959W        W29143   5.470   0.444   1.362  0.1414  0.1303  0.0793
12960W        W29144  13.238   3.144   1.669 -0.3255 -0.1697 -0.3648
12961W        W29145  16.576  11.868  12.089  0.1272  0.1325 -0.0401
12962W        W29146   7.788  13.268  14.845  0.0818 -0.3001  0.1605
12963W        W29147  17.735  10.197   3.343  0.0774 -0.1424  0.1245
12964W        W29148   3.620   0.976  14.409  0.0450  0.2320  0.2779
12965W        W29149  10.285  11.308  15.144  0.0847 -0.2705  0.1514
12966W        W29150  11.741  12.019   5.382  0.1598 -0.3774  0.0761
12967W        W29151  18.413   1.779  10.499 -0.0248  0.2291  0.1090
12968W        W29152  11.974  12.377  15.960 -0.1937  0.2053 -0.1641
12969W        W29153  15.344   2.864  11.684 -0.0339  0.1548 -0.0482
12970W        W29154  18.029   0.970  12.300 -0.4215 -0.1183 -0.3223
12971W        W29155  12.828   7.476   0.794 -0.4502 -0.1266  0.1788
12972W        W29156   1.016  15.620  11.509  0.4528  0.0861  0.0507
12973W        W29157   8.701   7.086   1.407  0.0255  0.1006  0.1652
12974W        W29158   1.864   8.988   2.780 -0.2073 -0.0125 -0.0223
12975W        W29159  11.605   1.423   0.317 -0.3072 -0.0995 -0.0415
12976W        W29160   1.808   6.816   0.052  0.3338  0.1185  0.0659
12977W        W29161   8.162  15.837   0.479 -0.1184 -0.2450 -0.1209
12978W        W29162  15.598   3.204  10.996  0.1069 -0.2113 -0.0609
12979W        W29163   1.442   0.415  12.731  0.3247  0.5481  0.2208
12980W        W29164   6.803   5.149   2.197 -0.3129 -0.0414 -0.0505
12981W        W29165   7.886   8.745   4.433 -0.1920  0.0516  0.0788
12982W        W29166  13.485  13.669  14.848  0.1305 -0.1049  0.1563
12983W        W29167  12.327  12.840  13.056 -0.1030  0.4841 -0.0959
12984W        W29168  12.840  13.051   0.096 -0.1399  0.0648  0.1940
12985W        W29169   2.835   8.210   1.640  0.1043 -0.1977 -0.0025
12986W        W29170  13.850   7.428   3.353 -0.0665  0.5559  0.1480
12987W        W29171   1.142  11.405  14.445 -0.3789 -0.1672  0.2059
12988W        W29172  15.744   2.337  15.491 -0.0944 -0.0331  0.1473
12989W        W29173  14.876   1.108  14.598  0.4296 -0.0389  0.0853
12990W        W29174   1.087   9.804   4.458 -0.0682  0.0519 -0.0427
12991W        W29175  15.271   2.475  15.808  0.1104 -0.3535  0.2127
12992W        W29176  12.993  12.250   4.170 -0.0878  0.0977  0.2353
12993W        W29177  10.756  12.278  15.046  0.0714  0.1293 -0.2409
12994W        W29178   3.790   8.516  15.309  0.2628 -0.2048 -0.2807
12995W        W29179   4.808  10.836   0.916 -0.0726  0.1243 -0.0565
12996W        W29180  16.029  15.824  10.057 -0.0687 -0.0857 -0.0289
12997W        W29181   2.143  10.210  14.563  0.1890  0.0416  0.1329
12998W        W29182   9.400   8.368   1.250 -0.1010  0.1760 -0.1248
12999W        W29183  15.082   7.773   1.577 -0.1880 -0.1943 -0.1995
13000W        W29184  11.971   4.007  14.696 -0.1055 -0.2441 -0.0916
13001W        W29185   6.381   6.308  11.397 -0.1885  0.2900  0.0679
13002W        W29186   6.667   5.690   0.928 -0.2056 -0.1108 -0.0131
13003W        W29187   6.766   2.625   3.846 -0.0830  0.2006  0.0546
13004W        W29188  14.111   1.613   2.037  0.0866  0.0675  0.3069
13005W        W29189   1.826   0.172   0.806 -0.1500 -0.0911 -0.2298
13006W        W29190   6.554  15.360   3.579 -0.1887 -0.0403  0.0298
13007W        W29191   1.960   1.941   5.835  0.2437 -0.0228  0.0663
13008W        W29192   1.544  13.521  11.329  0.1436 -0.0066  0.0023
13009W        W29193  12.255   6.191  11.369 -0.2752 -0.2874 -0.0705
13010W        W29194   2.302  14.718   1.924  0.2643  0.0516 -0.3132
13011W        W29195  14.445  10.024   5.189 -0.1048 -0.0977 -0.2723
13012W        W29196   1.492  15.898  11.467 -0.0442  0.0823 -0.0757
13013W        W29197  15.935   1.087  13.391 -0.2057 -0.1520  0.1548
13014W        W29198   5.981   0.826   0.754 -0.0532 -0.3568 -0.1060
13015W        W29199  14.252   6.465   0.552  0.2644 -0.4783  0.1968
13016W        W29200   5.809  10.109  12.328 -0.1987 -0.3727 -0.1321
13017W        W29201  13.365  14.125   2.829  0.0734 -0.0837  0.0192
13018W        W29202  16.503  13.744  15.511 -0.1223  0.1499  0.2426
13019W        W29203  17.874   1.260   2.233 -0.2300  0.0508 -0.6112
13020W        W29204   2.671  10.634   1.176 -0.1029 -0.1496  0.1128
13021W        W29205   1.106   4.174  16.097 -0.1920  0.3747  0.2890
13022W        W29206   6.168  15.502   3.363  0.2013 -0.3131 -0.0012
13023W        W29207   1.613   7.905  11.305 -0.1567 -0.3711  0.1070
13024W        W29208  17.954  16.488  10.939 -0.0417 -0.0627  0.1434
13025W        W29209  16.652  15.595  15.980  0.1483  0.0072 -0.2030
13026W        W29210   1.907   7.956   1.193 -0.5249 -0.0363 -0.0367
13027W        W29211  18.269  17.172  13.495  0.0472 -0.0450  0.1248
13028W        W29212   4.662  16.865   0.356  0.0400  0.2130  0.0000
13029W        W29213   1.231  10.970  15.243 -0.0933  0.1035  0.1643
13030W        W29214   7.572  12.738  16.013 -0.0908 -0.3369  0.0824
13031W        W29215   3.654  17.447   2.862 -0.1132 -0.0193  0.1395
13032W        W29216  13.006  10.904   0.243 -0.0659  0.0878  0.0181
13033W        W29217  12.968  15.591   3.263  0.3060 -0.2940 -0.0309
13034W        W29218   4.548   3.917   4.034 -0.0582 -0.0056  0.0666
13035W        W29219  13.877  16.287   2.701 -0.1225  0.0093  0.0420
13036W        W29220   0.457  13.317  14.952  0.0295 -0.1031 -0.0303
13037W        W29221  15.301  10.480   0.617 -0.0280  0.0502  0.0872
13038W        W29222  17.100  15.343   4.723 -0.2165 -0.1352 -0.1280
13039W        W29223  11.170  16.178   4.657  0.0792 -0.0355 -0.0800
13040W        W29224  10.673   0.730  14.937 -0.1469 -0.0947 -0.4880
13041W        W29225   0.021  11.930  15.748  0.1067  0.2133 -0.0065
13042W        W29226  15.060   1.707  13.715  0.0110  0.2358 -0.0528
13043W        W29227   1.502  11.384  11.672 -0.3756 -0.0562  0.0566
13044W        W29228   3.348  14.249  11.196 -0.2964  0.0485  0.2160
13045W        W29229  15.956   3.764   3.243  0.2088 -0.0564  0.3895
13046W        W29230   8.524   4.652   6.378  0.2688  0.1935  0.2991
13047W        W29231  14.196   1.860   3.407 -0.1945 -0.2208 -0.2153
13048W        W29232   6.959  10.438  13.622  0.2603  0.1415  0.1990
13049W        W29233   1.861  17.683  15.336 -0.1876 -0.1366  0.0203
13050W        W29234   1.625   4.993  15.519 -0.6482  0.0647 -0.0775
13051W        W29235   8.427  16.243   3.035 -0.0150  0.0268 -0.0894
13052W        W29236   8.572   5.520   1.036 -0.1401 -0.2520  0.1827
13053W        W29237   0.099  10.004   1.573  0.0138 -0.2027 -0.0048
13054W        W29238  14.925   9.141  13.575 -0.0296 -0.0914 -0.1934
13055W        W29239   7.930  17.678  15.302  0.0546 -0.0767 -0.1068
13056W        W29240   6.437  18.305   4.702 -0.1067 -0.1984  0.2799
13057W        W29241   6.967  12.126   2.880 -0.1646  0.0458  0.2275
13058W        W29242   6.774   4.659   0.142 -0.0595  0.0240  0.0193
13059W        W29243   8.627   5.641  12.816  0.2242  0.2360  0.3392
13060W        W29244  17.867   9.224  14.751 -0.1350 -0.3723  0.1107
13061W        W29245  13.525   7.554  11.707 -0.0055 -0.1338  0.1324
13062W        W29246   3.186   6.930   5.736  0.1932  0.1397 -0.5097
13063W        W29247  15.853   0.111  14.900  0.1810 -0.0766 -0.0890
13064W        W29248   6.959  18.056  14.897 -0.0114 -0.3412 -0.2782
13065W        W29249  13.370   8.248   3.716  0.0786 -0.0532  0.3539
13066W        W29250   9.634  13.065  11.321 -0.5437  0.2043 -0.2377
13067W        W29251   7.731   6.321  15.485 -0.0715 -0.4836 -0.2913
13068W        W29252  18.333  11.843   3.495  0.0115  0.0823 -0.0283
13069W        W29253   2.153   8.088   2.043  0.0279  0.0238  0.0063
13070W        W29254  15.506   0.606   2.903 -0.0257  0.2315 -0.3442
13071W        W29255  12.306  16.799   2.098 -0.0445  0.1022 -0.0444
13072W        W29256  10.409   1.790  14.857 -0.1215  0.0243  0.1107
13073W        W29257   1.243  11.675   3.741 -0.0860  0.0324 -0.2718
13074W        W29258   2.556  17.041   1.417  0.1304  0.2564  0.1119
13075W        W29259   1.063   0.248  13.014  0.0222 -0.0322 -0.0363
13076W        W29260   9.181   0.651   4.942  0.0302 -0.2331  0.0948
13077W        W29261   7.110   9.018   3.777 -0.1393  0.0785 -0.0791
13078W        W29262  14.485   1.860   5.055  0.2362 -0.0366  0.1561
13079W        W29263   0.986   5.800   1.457  0.2552  0.0885 -0.1349
13080W        W29264   0.119  14.745   3.125 -0.1165 -0.3378  0.0826
13081W        W29265   8.301   3.208   4.954  0.0338 -0.0416  0.0881
13082W        W29266   5.995   0.626  13.550  0.0760  0.2898 -0.1325
13083W        W29267   7.772  17.605   3.236  0.2282 -0.1971  0.0849
13084W        W29268   2.521  14.374  14.077 -0.0893 -0.1035 -0.0146
13085W        W29269   8.220  15.994   4.113  0.0704  0.0864 -0.2504
13086W        W29270   2.778  10.325  13.921  0.1507 -0.1906 -0.2972
13087W        W29271  13.450  17.018  13.823 -0.1276 -0.1845 -0.0699
13088W        W29272  15.419   8.120   0.365  0.2938  0.0551  0.0204
13089W        W29273  14.206   5.131   1.100 -0.3142  0.1636 -0.3610
13090W        W29274   6.202   0.408  14.938  0.1272 -0.0242  0.1666
13091W        W29275  12.809   7.391   1.290  0.1476 -0.1085 -0.1118
13092W        W29276   0.490   4.466   1.938 -0.0919  0.0711 -0.2188
13093W        W29277   3.981  10.869  12.918  0.0694  0.2303  0.1120
13094W        W29278  13.768   2.270   5.366  0.1125  0.0657  0.1358
13095W        W29279  10.281  16.932  13.322  0.2704 -0.0267 -0.0300
13096W        W29280   5.743  15.898   0.857 -0.2806  0.2499 -0.2904
13097W        W29281   8.523  16.908   2.259 -0.1065 -0.3801 -0.1807
13098W        W29282  13.747  17.843  12.080  0.4004  0.0133 -0.3520
13099W        W29283   9.415  15.464  12.422 -0.3173  0.0164  0.0643
13100W        W29284   9.460   4.724   1.602  0.2225 -0.1049  0.5965
13101W        W29285  12.546  10.692   2.469  0.0422  0.0947  0.0276
13102W        W29286   9.912  13.281   4.760  0.0737 -0.1055  0.2159
13103W        W29287   8.587   8.203  13.120  0.3035 -0.0229  0.0420
13104W        W29288   7.872   7.954  15.712 -0.1743 -0.1963 -0.2715
13105W        W29289  10.336  13.671   0.439 -0.2611  0.0017  0.0733
13106W        W29290  15.291   0.154  14.407  0.0234  0.1267 -0.1127
13107W        W29291  11.931   9.559   4.329  0.0848 -0.0231 -0.2561
13108W        W29292   6.940  18.401  11.550  0.0718  0.2616  0.0859
13109W        W29293  14.922   9.188   1.148  0.0289  0.0634 -0.2107
13110W        W29294   7.646  11.518   0.298 -0.0653 -0.1293  0.1466
13111W        W29295   3.375   5.152  13.569 -0.0335  0.0733  0.3626
13112W        W29296  13.580  16.863   2.680  0.1212  0.0152 -0.0848
13113W        W29297  16.795   8.720  14.823  0.1292  0.0009  0.0174
13114W        W29298   9.555   4.974   3.957 -0.0556 -0.1563  0.0244
13115W        W29299  12.333  12.426   1.946  0.2908  0.1604 -0.2379
13116W        W29300   9.870  13.085  12.875  0.0069  0.0390 -0.0298
13117W        W29301  10.872  11.682  14.755  0.0469  0.4946  0.0009
13118W        W29302   2.531   3.271   0.035 -0.2014 -0.1081  0.0309
13119W        W29303   5.156   9.720   3.765 -0.0262 -0.1008  0.0434
13120W        W29304  11.754   2.867  14.994 -0.6196 -0.1281  0.2175
13121W        W29305   0.293  16.858  13.988  0.0037  0.4909  0.1871
13122W        W29306  16.615   1.099  14.069 -0.0199 -0.0009  0.1497
13123W        W29307  12.524   8.332  15.445  0.2948 -0.1704  0.0617
13124W        W29308  13.919  14.099  13.109 -0.1797  0.1870  0.0032
13125W        W29309  10.879  13.893   0.404  0.0422  0.0870  0.2632
13126W        W29310  10.308   2.634  13.183 -0.0170  0.0789  0.0350
13127W        W29311  17.474  11.478  12.916 -0.0405  0.1694 -0.2508
13128W        W29312  17.763   5.057   4.902  0.1803 -0.0191 -0.3940
13129W        W29313   3.632  10.784  13.441  0.0032 -0.0282 -0.4015
13130W        W29314   4.490   7.327   0.555 -0.3388 -0.2604 -0.2447
13131W        W29315   9.460   4.992  12.723 -0.0461  0.0513  0.1685
13132W        W29316  17.299   4.756   5.271 -0.0219  0.1826 -0.3124
13133W        W29317  11.924   7.954  10.369  0.0871 -0.0279 -0.0719
13134W        W29318   0.629  16.059   2.642  0.0067 -0.0226  0.0552
13135W        W29319   5.246  12.490   5.989 -0.1762  0.1867 -0.1034
13136W        W29320  17.289   8.889  14.825  0.1561  0.1079  0.1810
13137W        W29321   5.630   5.752  14.855  0.0070 -0.2579  0.3007
13138W        W29322   6.793   0.670  13.216 -0.1643  0.1601 -0.0455
13139W        W29323   2.543  13.976   2.730  0.0756  0.2250  0.1198
13140W        W29324   0.859   2.032  11.142  0.2002 -0.0603  0.2658
13141W        W29325   0.686   5.301  14.075 -0.4029  0.1499  0.0504
13142W        W29326   0.684   5.383   1.745 -0.0773  0.0857  0.0622
13143W        W29327  13.326  12.098   3.641  0.1946  0.2149  0.0993
13144W        W29328   6.830   5.621   0.452  0.1507 -0.1025 -0.0812
13145W        W29329  10.747  10.905   1.435  0.0262 -0.0727  0.1496
13146W        W29330   3.240   6.215   2.330  0.2309  0.0984 -0.0967
13147W        W29331   4.553  14.594   0.821  0.0771 -0.2141 -0.0440
13148W        W29332  14.983  15.962  14.156 -0.1211 -0.2271 -0.0915
13149W        W29333   1.494   6.375   1.953  0.2657  0.2011 -0.1749
13150W        W29334  16.810  14.595   3.954 -0.0193 -0.0756  0.1972
13151W        W29335   9.242  18.220  15.440 -0.0746  0.1166 -0.1103
13152W        W29336   6.911   3.826   4.482  0.1276 -0.0735  0.0455
13153W        W29337   1.110   6.312  16.010 -0.0540 -0.0728  0.0630
13154W        W29338   4.803  14.617  13.074 -0.0018 -0.1140  0.0823
13155W        W29339   1.398   5.018   3.082  0.0014  0.0372  0.0756
13156W        W29340   8.705   4.414   1.626 -0.1926 -0.1247  0.0273
13157W        W29341  14.842   3.937   2.112 -0.0715 -0.0159  0.2800
13158W        W29342   8.121   4.712  13.213 -0.1181 -0.0264  0.3728
13159W        W29343   8.519  17.573   4.869 -0.1416 -0.4423  0.0744
13160W        W29344   9.284   7.120  11.363 -0.2071 -0.0154 -0.0752
13161W        W29345   3.584  10.673  10.961 -0.0191 -0.0231 -0.2427
13162W        W29346  13.217   8.265   2.424 -0.1408  0.1565 -0.1230
13163W        W29347   5.047  10.523  13.924  0.0813 -0.1771 -0.1149
13164W        W29348  10.584  16.518  11.638  0.2795 -0.0602 -0.1452
13165W        W29349  17.991  12.033   3.127 -0.3994 -0.0139 -0.0020
13166W        W29350   3.235   9.447   5.698  0.1075 -0.3290 -0.2696
13167W        W29351  13.606  11.692  13.516  0.1050  0.0841  0.1370
13168W        W29352   9.157  15.108   0.215 -0.0107  0.1170  0.2308
13169W        W29353  17.470   3.860  15.334 -0.0109  0.0026 -0.0340
13170W        W29354  11.806   1.047   3.760  0.2224 -0.0335  0.0071
13171W        W29355   9.869   1.121  15.551  0.0545  0.0198 -0.2583
13172W        W29356   8.470   2.033  10.446 -0.1448  0.1235  0.3362
13173W        W29357  18.006   3.923  11.154  0.2365  0.0388  0.0932
13174W        W29358  14.162  16.069   4.322 -0.0994 -0.0608 -0.1767
13175W        W29359  17.522   3.745  16.046 -0.3151  0.0196  0.2327
13176W        W29360   3.459  12.039  10.986 -0.2890  0.4257 -0.1023
13177W        W29361   6.373  14.631   2.747  0.0641 -0.0609  0.0997
13178W        W29362   4.980   4.269  15.975 -0.0286 -0.1660  0.0176
13179W        W29363  13.101  15.537   2.163  0.2746  0.0621  0.0505
13180W        W29364  12.899  11.714  14.554 -0.0439 -0.0226  0.0567
13181W        W29365   1.173   7.446  14.182  0.0164  0.3271 -0.3816
13182W        W29366   2.835   7.560   2.653 -0.0426  0.1526  0.0615
13183W        W29367   3.437   1.353   3.323  0.1446  0.1314  0.0196
13184W        W29368   7.889  16.205   3.012  0.0796 -0.1795 -0.1781
13185W        W29369  14.477   9.691  13.495  0.3095 -0.2780  0.0785
13186W        W29370   2.685  16.711  11.446  0.1233  0.0121 -0.0253
13187W        W29371  10.777   2.787   1.131 -0.3792  0.0947  0.0315
13188W        W29372  11.127   4.187   5.302 -0.2016  0.3803 -0.0745
13189W        W29373  13.467   5.625   3.036 -0.0846 -0.1084 -0.1498
13190W        W29374   7.858  11.529  11.820 -0.0968  0.4062 -0.1585
13191W        W29375  14.241   0.358   1.279  0.0282  0.0990  0.1359
13192W        W29376   4.988  13.801   1.675 -0.0983  0.0146 -0.3537
13193W        W29377   3.594  14.928  15.056 -0.1367  0.0123  0.0861
13194W        W29378   8.027   8.248  15.107  0.1642  0.0113 -0.0997
13195W        W29379   9.736  11.340  13.758  0.0471  0.0170 -0.1200
13196W        W29380   4.450  13.872   3.347  0.1698 -0.3609  0.1221
13197W        W29381   4.681  16.538   1.825  0.0825 -0.0509 -0.1451
13198W        W29382   3.970  10.471  13.848  0.0464 -0.0686  0.1099
13199W        W29383  10.190   0.052  11.322 -0.5189  0.2210  0.2385
13200W        W29384  10.313   6.097   4.263  0.0962 -0.1740 -0.1104
13201W        W29385   5.985  16.629   5.372  0.1814  0.1652  0.1638
13202W        W29386  13.016   9.494   1.876 -0.2596 -0.2469 -0.1715
13203W        W29387   1.329   5.531   4.131 -0.1396  0.0334 -0.0425
13204W        W29388   8.338   1.596  11.543  0.1553  0.1184 -0.3028
13205W        W29389   8.685   5.059  13.825 -0.0133  0.1028 -0.2487
13206W        W29390  15.701   2.291   5.640 -0.0508 -0.3635 -0.1507
13207W        W29391   9.675  10.550   6.015  0.1539 -0.1306 -0.1393
13208W        W29392   4.787  17.084  10.907  0.1313 -0.0378 -0.1610
13209W        W29393   8.585  13.816   1.091  0.0944 -0.3397 -0.0348
13210W        W29394   9.337  17.007  13.703 -0.1608 -0.1439 -0.0630
13211W        W29395  10.521  14.783  16.100 -0.3264  0.0826 -0.2399
13212W        W29396   0.507  15.624  12.170 -0.0200 -0.1213 -0.4293
13213W        W29397   4.843   5.690   5.196  0.0887 -0.3418  0.4876
13214W        W29398  16.793   1.773  12.989 -0.2024 -0.2022  0.0890
13215W        W29399   5.790   4.677   3.316  0.0829  0.2702 -0.0959
13216W        W29400   9.464  18.329   3.201 -0.2465 -0.1764  0.2082
13217W        W29401   4.441  12.049   0.427  0.0412  0.0691 -0.1266
13218W        W29402   8.662  14.621   1.642 -0.0361 -0.3520 -0.1558
13219W        W29403   4.644   3.960  11.303  0.1177  0.2665 -0.2088
13220W        W29404  14.242  10.821   5.331  0.0488  0.0313  0.3013
13221W        W29405   3.443   1.244  12.083 -0.1249 -0.1619  0.1487
13222W        W29406   4.285  12.957   2.011  0.2443  0.0309  0.0142
13223W        W29407   9.453   1.246   3.379 -0.1688  0.0621  0.2334
13224W        W29408  12.586   4.055   4.389  0.6359  0.2656 -0.0233
13225W        W29409  15.965   6.000   2.770  0.1935  0.0483  0.3416
13226W        W29410  12.299  12.083   5.580 -0.2259  0.1026 -0.2788
13227W        W29411   1.943   5.543   5.903  0.1347 -0.0312  0.1059
13228W        W29412   8.616   6.593   2.041 -0.1221  0.0639  0.3222
13229W        W29413  14.799   3.544   5.030  0.0788 -0.0158 -0.2828
13230W        W29414   6.714   2.638  13.534 -0.0806 -0.2466 -0.2540
13231W        W29415   4.350   8.954  13.498 -0.1601 -0.3366  0.1568
13232W        W29416  11.391   9.972  12.962 -0.3349  0.0525  0.2140
13233W        W29417   0.471  17.906   3.448  0.0458  0.1718  0.1597
13234W        W29418   0.346   7.599  15.548  0.0231  0.1894 -0.0901
13235W        W29419  12.938   5.929   4.786  0.0377  0.3956  0.3213
13236W        W29420  16.764   9.971  13.288  0.0850 -0.1707 -0.2026
13237W        W29421   0.314   0.345  14.779  0.0988 -0.4480 -0.0268
13238W        W29422   5.120   8.886   1.466 -0.3496 -0.3173  0.1391
13239W        W29423   2.936  15.972  15.375  0.2737  0.0892 -0.0512
13240W        W29424   4.343   2.583   0.195 -0.3223  0.0665  0.1055
13241W        W29425  10.101  15.430  13.995  0.1701 -0.1159 -0.1461
13242W        W29426   5.437   2.668  15.449 -0.0678  0.0138 -0.1311
13243W        W29427  13.550  14.586  14.956 -0.0264  0.1133  0.2740
13244W        W29428  11.930   1.832   2.389  0.0507 -0.0446  0.1552
13245W        W29429   7.866  12.523   2.783 -0.1409  0.2254 -0.0615
13246W        W29430   7.325  10.136  13.849 -0.0454 -0.0945 -0.0406
13247W        W29431   7.202  13.445   0.122  0.0189  0.1240 -0.1805
13248W        W29432   1.008  13.286   4.158  0.0397 -0.0658  0.1474
13249W        W29433  12.967  17.406  15.073  0.3525  0.2144 -0.0120
13250W        W29434  17.730   9.397  14.206  0.1809  0.0187 -0.1869
13251W        W29435  13.834  18.297  13.576 -0.4418  0.0021  0.0604
13252W        W29436  14.069   4.556  11.840  0.1588 -0.0865 -0.0437
13253W        W29437   1.489  16.423  13.633 -0.3428 -0.1655  0.1314
13254W        W29438  10.348  10.993  13.147 -0.0851  0.1709 -0.1347
13255W        W29439   1.049  15.102  11.280  0.3063  0.3593 -0.0380
13256W        W29440   9.269  16.923  14.609  0.0630 -0.1126  0.2312
13257W        W29441  15.804  15.994  15.754  0.0155 -0.1297 -0.0835
13258W        W29442  13.878  12.608   1.122 -0.1561  0.1689 -0.0806
13259W        W29443  12.094  16.468  13.310 -0.1373 -0.0474  0.3142
13260W        W29444   1.527   0.925  13.415  0.2813  0.1701  0.0938
13261W        W29445   7.371   7.060   1.697  0.3772 -0.0762 -0.2462
13262W        W29446   3.143  11.608   2.690 -0.0271 -0.3290  0.2441
13263W        W29447   6.061  15.512  12.450 -0.0492 -0.3092 -0.0860
13264W        W29448   0.731   6.292  14.216  0.1560 -0.2384  0.0336
13265W        W29449   6.527   0.319  12.238  0.0043  0.1891 -0.2487
13266W        W29450   0.992   9.669   5.409  0.0104 -0.3139 -0.2854
13267W        W29451  13.753   7.966   3.955 -0.2196  0.1131 -0.1265
13268W        W29452  11.043   0.046   1.843  0.0913 -0.0237 -0.1978
13269W        W29453  17.839  14.933  11.823 -0.1922  0.1317 -0.0414
13270W        W29454   2.855   5.136  11.524  0.2864  0.0175 -0.1287
13271W        W29455  12.486  13.326  15.212 -0.2036 -0.0482  0.0616
13272W        W29456  10.911   6.742   5.371 -0.1691  0.1230  0.0697
13273W        W29457  11.705   4.423   0.164 -0.3036  0.1367 -0.1490
13274W        W29458   7.332   8.583   5.245  0.0613 -0.1295 -0.0671
13275W        W29459   7.275   6.260   5.861  0.0935 -0.0017 -0.3498
13276W        W29460   7.050   3.431  13.536 -0.0853  0.3485  0.4366
13277W        W29461  11.623   2.293   1.003 -0.2569 -0.1374  0.0789
13278W        W29462   5.221   3.995   0.694  0.0369  0.2722  0.0611
13279W        W29463   4.520  16.589  12.134  0.1183 -0.3765  0.1012
13280W        W29464  17.626  18.200  12.670  0.0598 -0.2929  0.4774
13281W        W29465  14.971  12.100   2.791  0.2173 -0.2426 -0.2716
13282W        W29466   3.290  11.191  15.537  0.2336 -0.1667 -0.0155
13283W        W29467   1.811  16.559  10.784 -0.2888  0.1116 -0.2426
13284W        W29468   0.924  11.079  14.757  0.0832 -0.0231 -0.1644
13285W        W29469   3.296   2.210  15.958  0.1013 -0.0449 -0.0830
13286W        W29470   7.868  14.377  11.878  0.0687 -0.0982 -0.1267
13287W        W29471  15.468   1.549  15.557 -0.0493 -0.0232  0.0150
13288W        W29472  12.636   1.532   4.818 -0.0580 -0.0516  0.0521
13289W        W29473  10.616   8.461   4.138 -0.0855  0.2054 -0.0399
13290W        W29474  10.593   3.923  11.292 -0.0742 -0.0319  0.0638
13291W        W29475  11.913   5.609  15.545 -0.0825  0.0542  0.0384
13292W        W29476   3.916   0.616  13.920 -0.3071 -0.0989 -0.5297
13293W        W29477   2.897   2.058   1.940 -0.0150 -0.3078  0.2806
13294W        W29478  16.721  13.594  14.037 -0.0787 -0.3503  0.2331
13295W        W29479  13.399   2.070  11.030 -0.0181 -0.3039  0.2606
13296W        W29480   1.963  10.958   6.157  0.0002 -0.0906  0.1955
13297W        W29481   7.078   6.695   5.702 -0.1469 -0.1560  0.1657
13298W        W29482   1.677  17.347  13.658  0.0460 -0.3503  0.0013
13299W        W29483   1.646   3.666  14.751  0.2193 -0.0659 -0.0439
13300W        W29484   3.197  15.538  14.329 -0.0534  0.1068  0.1857
13301W        W29485  10.009   4.177  14.434  0.0952  0.1885  0.2364
13302W        W29486   9.476   5.387  12.429 -0.2265  0.4793  0.1277
13303W        W29487  16.178   3.037   1.482 -0.0451  0.1961 -0.0287
13304W        W29488   3.377  12.879  10.959 -0.0105  0.0504  0.1153
13305W        W29489   9.411   3.814  11.628  0.1112  0.1008 -0.1084
13306W        W29490  10.831   0.300   4.631 -0.0844 -0.1642 -0.0290
13307W        W29491  10.918  12.440   2.742  0.4113  0.1641 -0.0591
13308W        W29492   5.172   8.838   4.384 -0.0165 -0.1251 -0.1964
13309W        W29493   1.870  15.061   2.611  0.2308 -0.1376  0.1248
13310W        W29494  12.183   6.050   4.758 -0.2079  0.3093  0.0048
13311W        W29495  14.044  11.262   4.531 -0.1805  0.0330 -0.1096
13312W        W29496  12.952   3.469  13.177 -0.0017  0.0589 -0.1043
13313W        W29497   8.620   5.285   4.007  0.0451 -0.1151  0.2394
13314W        W29498  11.863  13.834  14.504 -0.0974  0.1798 -0.0190
13315W        W29499   2.843   9.938   1.911 -0.0106  0.0987  0.1503
13316W        W29500   4.236   6.496  13.587  0.0329  0.0519 -0.1286
13317W        W29501  17.299   2.481   0.533  0.1134 -0.0189  0.0811
13318W        W29502   3.503   7.037  15.225  0.0537 -0.1031 -0.0089
13319W        W29503   1.432   4.238  11.629 -0.0277 -0.1188 -0.0478
13320W        W29504  16.243  17.558  13.742 -0.0928 -0.2336  0.0889
13321W        W29505   0.616  13.046  15.635 -0.2311 -0.0589  0.1219
13322W        W29506   3.880   8.182   4.581 -0.2723  0.0834  0.2741
13323W        W29507   5.196  12.824   2.482  0.0507  0.0203 -0.0287
13324W        W29508  12.074   4.694  15.625  0.0134 -0.0314 -0.0938
13325W        W29509   3.896   0.015  12.220  0.0184 -0.0804  0.0063
13326W        W29510  11.622  15.148   1.575 -0.1902 -0.1415  0.0820
13327W        W29511   2.913  16.489   3.049  0.1842  0.0412 -0.1786
13328W        W29512   5.323   2.969  11.295  0.3768 -0.1527  0.0010
13329W        W29513  17.241   5.434   1.590 -0.1352 -0.0488 -0.0498
13330W        W29514  15.686  11.928  15.307 -0.3617 -0.1301  0.1891
13331W        W29515   6.103   9.487  15.272  0.1562 -0.0859 -0.1394
13332W        W29516   2.106  10.962  12.158 -0.2664  0.1499 -0.0269
13333W        W29517  11.193   0.162   1.028  0.2829 -0.0542  0.1397
13334W        W29518   6.016   7.741  11.263  0.1171 -0.0906 -0.4215
13335W        W29519  11.665   6.657   1.503  0.0278  0.4039 -0.0868
13336W        W29520   3.235  10.035   1.491  0.3235  0.1585  0.1009
13337W        W29521  16.724   5.206   3.372  0.0334  0.3313  0.0431
13338W        W29522   9.112   2.716  15.390  0.0219  0.1980 -0.0420
13339W        W29523  17.200   9.054  13.926  0.1993 -0.0225 -0.2390
13340W        W29524   5.792   0.795  12.475  0.0117 -0.1380  0.2489
13341W        W29525  13.892  14.810  15.268 -0.0353  0.0270 -0.0209
13342W        W29526  17.627   9.576   3.203  0.2137 -0.0241  0.2199
13343W        W29527   3.158   8.627   4.043  0.0925  0.0504 -0.1779
13344W        W29528   0.955  17.850  15.378  0.2171  0.0204 -0.2634
13345W        W29529  10.850  12.921  14.174 -0.1582 -0.0625 -0.2119
13346W        W29530   3.453   6.208  14.123 -0.1661 -0.3913 -0.0606
13347W        W29531  12.977   8.168   1.438 -0.2231  0.0974 -0.2318
13348W        W29532  14.922   9.729   2.509 -0.0083  0.2280  0.0072
13349W        W29533  11.782  16.910   0.247  0.1733 -0.1329 -0.2240
13350W        W29534  13.770  17.296   0.588 -0.1971 -0.1607  0.1231
13351W        W29535   3.934  13.562   1.441 -0.3966 -0.1306  0.1138
13352W        W29536  17.524   0.366   2.362  0.4569 -0.3717 -0.0897
13353W        W29537  14.574  12.305  15.244 -0.0803  0.0289 -0.2371
13354W        W29538   5.770  10.552  12.986  0.0129  0.2846 -0.1187
13355W        W29539  11.624  11.456  15.952 -0.0192 -0.0360  0.0304
13356W        W29540   3.465  15.257   3.555  0.3044  0.2120  0.1467
13357W        W29541  13.626  11.917  15.298 -0.1539  0.0765 -0.0359
13358W        W29542   0.399   2.730  15.186  0.4533 -0.0432 -0.2332
13359W        W29543  10.872   2.156  12.947 -0.1022  0.0552  0.4214
13360W        W29544  12.211   6.600  12.268  0.0080  0.0558  0.0215
13361W        W29545  15.838   5.945  14.883 -0.0240  0.3545  0.0305
13362W        W29546   1.917  15.265  14.094 -0.2927 -0.0558  0.1482
13363W        W29547   2.568   4.943   2.779  0.3098  0.1618 -0.0501
13364W        W29548   1.149   8.982   3.928  0.0494  0.1918  0.1478
13365W        W29549   2.566   7.103  14.772 -0.0471 -0.1730 -0.0647
13366W        W29550  18.151   9.443   1.089  0.0434 -0.0231  0.0482
13367W        W29551   7.684   3.873   2.052 -0.2406 -0.1677 -0.0770
13368W        W29552  16.973   5.370   4.744  0.0946  0.0567  0.0658
13369W        W29553   6.966   8.589  11.396  0.3033 -0.1832 -0.2772
13370W        W29554   4.222   7.571  11.519  0.0571 -0.4277 -0.0098
13371W        W29555   5.864   5.738   2.653 -0.0419  0.2342 -0.2169
13372W        W29556   8.645   5.893  15.704  0.1134 -0.0491  0.3714
13373W        W29557  10.964   4.399   1.092 -0.2789  0.2298 -0.0698
13374W        W29558   1.409   8.367  12.363 -0.0515  0.2267 -0.2647
13375W        W29559  14.443   8.923  14.130  0.2897 -0.1879  0.0797
13376W        W29560  11.391   1.064  11.426 -0.1421  0.0720  0.0725
13377W        W29561   5.500  18.056   2.602 -0.1058  0.2419 -0.2384
13378W        W29562   3.099  12.242   2.864 -0.0047  0.1893  0.1759
13379W        W29563   5.374  18.279  10.428  0.2415  0.0484  0.0705
13380W        W29564   6.708   9.708   3.693 -0.2013 -0.0532  0.0815
13381W        W29565  15.236  14.225   2.321  0.0200 -0.0870  0.1298
13382W        W29566  10.124   2.018   3.968 -0.1900  0.0968 -0.1959
13383W        W29567   4.550   6.596  13.153 -0.1986 -0.2874 -0.1973
13384W        W29568   5.467   0.661  10.681 -0.2556 -0.0526 -0.1570
13385W        W29569  11.006  16.213   0.100  0.1724  0.0047  0.0556
13386W        W29570  15.738   7.595   4.765  0.1398 -0.3078 -0.1994
13387W        W29571  13.262  14.493   0.739 -0.2319  0.0589 -0.3032
13388W        W29572  15.458  12.737  12.325 -0.1466 -0.0340 -0.1192
13389W        W29573   4.733  10.681   2.910 -0.3456 -0.1444  0.0906
13390W        W29574   9.678  15.711  15.324 -0.4633 -0.1149 -0.0141
13391W        W29575   8.807   8.180   2.912 -0.1474 -0.2095  0.2186
13392W        W29576  11.313   1.427   0.784 -0.0776 -0.3493  0.2024
13393W        W29577   5.041  10.455  14.420 -0.3181  0.2230 -0.0526
13394W        W29578  10.620  13.670  11.707 -0.0477  0.2029  0.1490
13395W        W29579   1.970   6.934   3.388 -0.0073  0.1691  0.3113
13396W        W29580  13.771  14.259   3.365  0.0389 -0.0475 -0.1034
13397W        W29581  17.649  13.255  16.010  0.0227 -0.1557 -0.0818
13398W        W29582   4.291   9.009  16.069 -0.2197  0.2891  0.0652
13399W        W29583   2.819   7.137  15.239  0.1227  0.0008  0.2537
13400W        W29584   7.533  16.466   2.558  0.3713 -0.1858  0.0994
13401W        W29585  17.277   4.563   1.399  0.0004  0.0091  0.0968
13402W        W29586  18.160  18.331  13.478  0.1781  0.1085  0.1963
13403W        W29587   8.334  11.555  15.479  0.1321  0.0536  0.1563
13404W        W29588   4.937  13.600   5.075 -0.2058  0.2582 -0.1457
13405W        W29589  10.027  12.624   4.755  0.1385 -0.0728  0.3557
13406W        W29590   6.609  12.145  15.399  0.1260  0.1647  0.3643
13407W        W29591  10.321   5.325   1.240  0.0090 -0.1926  0.1892
13408W        W29592   2.112  15.989  15.291  0.3023 -0.1149  0.2446
13409W        W29593  18.060  14.907   0.529 -0.0999 -0.0237 -0.3365
13410W        W29594   3.285   1.223   0.394 -0.0089 -0.5265  0.0340
13411W        W29595  10.781  14.160   2.363  0.1630 -0.0898  0.0325
13412W        W29596   0.759  12.384  14.571  0.2312 -0.2323  0.1119
13413W        W29597  14.104  14.995   0.726 -0.0139 -0.3980  0.1578
13414W        W29598   8.776  14.782  14.088  0.0947  0.1810 -0.1319
13415W        W29599  13.596  10.734  12.153  0.5495 -0.1227 -0.4674
13416W        W29600  16.605  17.243   5.048  0.0815  0.0916 -0.0640
13417W        W29601  14.773   2.303  15.580 -0.2622  0.0776 -0.0395
13418W        W29602   9.160   3.541   1.676  0.3957  0.1677  0.0512
13419W        W29603   0.222   2.699  12.396 -0.1513 -0.1277  0.2252
13420W        W29604   4.775   7.673   2.222 -0.4460  0.2653  0.0731
13421W        W29605   6.592   3.793   3.087 -0.2257  0.2881 -0.0204
13422W        W29606   0.198   2.125  11.990  0.0845 -0.0243  0.2442
13423W        W29607   6.739  15.332  15.848 -0.1505 -0.1116 -0.2887
13424W        W29608  15.397  15.285   3.107  0.0184  0.0532  0.1991
13425W        W29609  11.873  15.119  14.872 -0.1050 -0.2160  0.3484
13426W        W29610  13.892  13.801  13.719  0.0245 -0.2002  0.0082
13427W        W29611  14.057  17.472  13.283  0.2246 -0.0212 -0.0610
13428W        W29612   0.136  13.527   4.963 -0.0375  0.0540  0.0989
13429W        W29613  11.926  16.299  12.600  0.0551  0.0954 -0.0850
13430W        W29614  15.314   6.725  15.266 -0.0384 -0.3814 -0.3275
13431W        W29615   3.428  16.418  10.361 -0.0459 -0.0483  0.0462
13432W        W29616  10.454   5.062  12.568  0.0816 -0.3625 -0.0922
13433W        W29617   5.297   7.360  13.060  0.1826 -0.2493  0.1164
13434W        W29618  18.514  12.265  11.816  0.0028 -0.1603  0.0340
13435W        W29619  12.073  17.275   2.229 -0.2233  0.0147 -0.1054
13436W        W29620   7.358   0.120  11.543  0.1484 -0.2590  0.1372
13437W        W29621  16.399  15.056  14.302 -0.1519  0.2079  0.0429
13438W        W29622   0.648   8.350  11.237 -0.0962  0.3054  0.0522
13439W        W29623  17.740  11.560   3.074 -0.0576 -0.2988  0.0231
13440W        W29624   8.289   1.495   0.348 -0.2707  0.1016  0.1384
13441W        W29625   8.115  13.826  15.522  0.0708 -0.1146  0.0879
13442W        W29626   6.952   2.654   5.453 -0.0900 -0.0294  0.1109
13443W        W29627  11.517   2.830   0.363  0.1709 -0.1160 -0.0921
13444W        W29628   1.882   8.508  15.076  0.1823  0.2615 -0.1309
13445W        W29629   6.529   7.951  15.532  0.0821  0.3186 -0.0439
13446W        W29630  17.944   4.088  13.620  0.0867  0.1417 -0.3297
13447W        W29631  11.837  13.651   5.312  0.1221  0.2101 -0.0771
13448W        W29632  10.528   8.774  12.113 -0.3785 -0.1080 -0.2300
13449W        W29633   3.607  11.741   0.062  0.0979 -0.2061  0.0906
13450W        W29634   8.554   6.993  14.911 -0.1308 -0.0610  0.1835
13451W        W29635   7.304   4.786  14.997 -0.0902  0.2585 -0.0161
13452W        W29636   3.551  12.762  12.100 -0.0029 -0.0644 -0.1909
13453W        W29637   5.856   7.071   1.215 -0.0958  0.0685  0.1339
13454W        W29638  14.223  14.009  14.689  0.1196 -0.1820 -0.0583
13455W        W29639   1.832  16.843  13.673 -0.4210  0.0109  0.0203
13456W        W29640   2.269  17.922   9.793  0.1622  0.0547  0.1077
13457W        W29641  11.722   2.015  11.208 -0.2749  0.2747  0.1819
13458W        W29642  10.626  12.069   1.833  0.0109  0.0331 -0.4796
13459W        W29643   5.923   6.706   5.184  0.2491  0.1365 -0.3084
13460W        W29644   6.479  16.401   0.433 -0.6860  0.3345 -0.0490
13461W        W29645  13.181   4.380  12.004 -0.1309  0.0725  0.0404
13462W        W29646   4.578   5.285  14.226  0.0166 -0.1279 -0.3984
13463W        W29647  16.671   4.458   1.729 -0.0281 -0.1998  0.3159
13464W        W29648  14.013  13.437   4.230  0.1969 -0.0916 -0.0482
13465W        W29649   3.785   7.195  13.442 -0.0809  0.4476 -0.2747
13466W        W29650   8.582  10.506   4.436  0.3472 -0.0699 -0.1044
13467W        W29651   1.256   1.653   4.425 -0.0918  0.1439 -0.1720
13468W        W29652  17.141   9.804   5.786 -0.1897  0.3447 -0.0813
13469W        W29653   5.157  17.230  15.264  0.0873  0.0218 -0.0110
13470W        W29654  15.319   4.220   1.346  0.0930  0.0051 -0.0173
13471W        W29655   0.112  17.121  12.215  0.1724  0.0353  0.3476
13472W        W29656   5.548   7.975   1.284 -0.2271  0.0391 -0.3522
13473W        W29657   2.571   6.286  10.930 -0.1329 -0.1245 -0.1708
13474W        W29658  17.267  14.333  11.664  0.1276  0.4574  0.3655
13475W        W29659  17.806  15.739  11.439  0.0274 -0.0706 -0.0643
13476W        W29660   0.931   0.483   1.941 -0.0881 -0.1090  0.2720
13477W        W29661  12.252   2.132   2.878  0.0632 -0.1204  0.3674
13478W        W29662   5.387  10.696   1.596 -0.2678 -0.0619 -0.5794
13479W        W29663  13.219  10.274   4.465 -0.1599 -0.0954 -0.1852
13480W        W29664  10.005   2.869   4.859  0.1467 -0.1333 -0.0250
13481W        W29665  14.537   9.185   1.778  0.1642  0.1805 -0.2951
13482W        W29666   3.150  18.441  11.162 -0.0202 -0.3032  0.1221
13483W        W29667  11.254   4.524  14.133 -0.0889  0.1342 -0.0750
13484W        W29668  14.836  16.179   3.477 -0.2497 -0.2219  0.0909
13485W        W29669  15.036  18.192  12.658  0.1189  0.2843  0.5534
13486W        W29670  11.719  10.165  12.614 -0.3341 -0.0353 -0.0830
13487W        W29671  10.115   1.961   2.562  0.1117  0.2425 -0.1154
13488W        W29672  17.145   9.334   4.841 -0.0413  0.3938 -0.2791
13489W        W29673  17.372  15.704   1.784  0.5153  0.3022 -0.1494
13490W        W29674   2.921   2.543   2.675 -0.0015 -0.0633 -0.0888
13491W        W29675   7.254   1.696   5.985 -0.1521 -0.2944 -0.1311
13492W        W29676   5.120  12.452  12.683 -0.4075  0.0213 -0.0469
13493W        W29677   4.494   8.549   4.945  0.1070 -0.0894 -0.0290
13494W        W29678  14.674  17.756  12.013  0.0446 -0.1429  0.0337
13495W        W29679  14.334  16.947   5.093  0.3375  0.0762  0.1575
13496W        W29680   9.778   2.796   2.572  0.3753  0.0918  0.4227
13497W        W29681   0.534  15.405   4.646  0.1264 -0.0224  0.2149
13498W        W29682  18.378   1.389   2.830  0.0634  0.0090  0.0462
13499W        W29683   3.942  16.440   2.914 -0.1459 -0.3723 -0.0197
13500W        W29684  15.937  15.903  14.252 -0.2111 -0.1112  0.2347
13501W        W29685  13.400   6.764  12.242 -0.0081 -0.6351  0.0436
13502W        W29686   4.865   5.856   3.443 -0.0403  0.4443 -0.2891
13503W        W29687  14.405   5.991  13.030 -0.1798  0.0305  0.2979
13504W        W29688   1.143   1.334  14.273 -0.2017 -0.4106 -0.1651
13505W        W29689  13.704   8.655  11.185  0.0384 -0.0682  0.1643
13506W        W29690  14.968   4.837   2.266  0.2971  0.0607  0.1541
13507W        W29691  17.443   5.885   3.720  0.1621 -0.0558  0.2792
13508W        W29692   4.405   8.992  12.463 -0.1377  0.1783  0.1402
13509W        W29693   3.901  13.048  12.878 -0.1458  0.2313 -0.1344
13510W        W29694  12.767  15.785  12.587  0.0431  0.0311  0.0151
13511W        W29695  16.101   2.024  12.261  0.0056 -0.1824 -0.2147
13512W        W29696  18.187  12.498  12.803 -0.1748 -0.0782 -0.0907
13513W        W29697  10.649   0.832   3.424  0.0228 -0.0080 -0.3378
13514W        W29698  13.342  10.049   3.438 -0.0993 -0.2583 -0.2617
13515W        W29699   6.168  15.937   3.634  0.1336 -0.1035  0.1042
13516W        W29700  15.885   0.596  13.917 -0.3744  0.5056  0.1586
13517W        W29701   3.823   6.565   4.024 -0.0869  0.1992  0.3174
13518W        W29702  14.009  11.571   4.145  0.0737 -0.1512  0.1232
13519W        W29703   0.814  16.131   0.305 -0.0665  0.0223  0.0753
13520W        W29704   6.991   0.424  11.380  0.1492 -0.0008 -0.1005
13521W        W29705   9.224  13.357   6.112  0.0408 -0.1382 -0.2637
13522W        W29706  11.026   7.404   5.726  0.2410 -0.2493 -0.3297
13523W        W29707   8.103   3.854  14.611 -0.2550  0.2440  0.0321
13524W        W29708  10.143  18.284   2.304  0.0179  0.1283  0.0775
13525W        W29709   0.879   6.252   5.026  0.1699  0.2331  0.3691
13526W        W29710  14.427  14.005  11.992  0.3405 -0.0998  0.0218
13527W        W29711   5.644  11.570   4.770 -0.1867 -0.3295  0.0199
13528W        W29712  18.503   6.555   4.005 -0.0377  0.1879 -0.1427
13529W        W29713  15.065  13.757   1.295 -0.1071  0.2141  0.1790
13530W        W29714  15.033   1.301  15.428  0.2462 -0.2871 -0.2187
13531W        W29715  10.282   4.475  14.152  0.0935 -0.4034 -0.0600
13532W        W29716  12.571   6.545  15.548 -0.1227  0.2568 -0.1077
13533W        W29717   2.836  14.421  15.309  0.0448 -0.0432  0.1547
13534W        W29718   7.082   1.400   2.959 -0.1504 -0.0430 -0.0177
13535W        W29719   7.680   4.925  15.356 -0.0121  0.0162 -0.2667
13536W        W29720  15.969  14.250   2.920  0.1435  0.1516  0.2316
13537W        W29721  12.913   6.742  13.734  0.0257  0.2340 -0.0273
13538W        W29722  14.499  12.715   6.418 -0.0077 -0.0853  0.4995
13539W        W29723   8.020  17.642   2.761 -0.1789  0.5492 -0.2755
13540W        W29724   7.859   8.766   1.375 -0.1006  0.1412  0.2566
13541W        W29725   0.424  12.631  15.662 -0.1961 -0.1445  0.0210
13542W        W29726   8.840  11.528   4.013 -0.1871  0.0094  0.1585
13543W        W29727   0.539   3.131  14.184  0.0368 -0.1450  0.1274
13544W        W29728   4.536  11.621  11.259 -0.0881 -0.2623  0.4518
13545W        W29729   3.272   8.312   1.359  0.3221  0.2504  0.0885
13546W        W29730   1.208  11.641  11.295  0.2503 -0.2188  0.3031
13547W        W29731   5.681   3.202   4.695 -0.2363  0.1543  0.0711
13548W        W29732  17.935  18.205   3.884 -0.2697  0.1105  0.2813
13549W        W29733   5.039  18.055  14.643  0.0763 -0.0468  0.0926
13550W        W29734   0.686  15.578  14.423  0.1331 -0.1982  0.0467
13551W        W29735  13.730   6.431   0.462 -0.1718  0.3360 -0.0437
13552W        W29736   3.028  11.694   2.126 -0.1302  0.1533  0.1740
13553W        W29737  10.721  13.405  15.301  0.1748 -0.1783  0.2263
13554W        W29738  12.556  15.599  14.371 -0.1731  0.0441 -0.2665
13555W        W29739  13.515   4.281   0.337 -0.0057 -0.4940  0.1153
13556W        W29740   8.548  11.913   2.621 -0.2584  0.1955  0.1565
13557W        W29741  11.672  14.608   5.176 -0.0001 -0.1740 -0.1006
13558W        W29742   7.528   6.306   0.619 -0.3307 -0.1155 -0.1403
13559W        W29743   4.127  12.750   0.224  0.1050  0.2122 -0.0731
13560W        W29744  12.022   7.775   4.298  0.0383 -0.1935 -0.3557
13561W        W29745  17.634  13.251   5.197 -0.1028  0.0796 -0.2307
13562W        W29746  18.211   0.922   3.607 -0.1691 -0.2500  0.0273
13563W        W29747   3.980   1.910   1.796 -0.3327  0.0322 -0.2913
13564W        W29748   4.516  16.685   4.760 -0.0480 -0.0729  0.1630
13565W        W29749  13.154   3.039   5.377 -0.0860 -0.2206 -0.2196
13566W        W29750   6.778  11.619   2.469  0.1334  0.1784  0.1896
13567W        W29751   2.817   9.972  12.805  0.3466 -0.0149 -0.3691
13568W        W29752  12.460   2.056   0.582  0.2048  0.1596  0.4190
13569W        W29753   8.868  11.335  14.119  0.3611  0.0173 -0.1604
13570W        W29754   2.345   8.033  12.701  0.1441  0.4060 -0.2387
13571W        W29755   3.502   8.530   4.614 -0.1908 -0.2389 -0.0932
13572W        W29756  14.117  13.237  11.282 -0.3113  0.2668  0.1015
13573W        W29757   6.095  12.664   4.093  0.1806  0.0897  0.2119
13574W        W29758   5.537   1.786  12.002  0.1656 -0.0140  0.0924
13575W        W29759   7.661   8.153  13.393 -0.0763 -0.2800 -0.0487
13576W        W29760   7.953   2.213   0.026 -0.0341  0.0222 -0.2626
13577W        W29761   1.986  15.515  13.479 -0.1615  0.1972 -0.2741
13578W        W29762  12.666  11.782   5.493  0.2596 -0.2263  0.0700
13579W        W29763  12.578   5.111  15.421  0.0031  0.1497  0.0555
13580W        W29764  12.037  10.467  11.660 -0.0328 -0.1267 -0.1198
13581W        W29765  15.988   6.610   3.961  0.1509  0.3704  0.1570
13582W        W29766   8.589  13.721   4.394 -0.0687  0.1883  0.2218
13583W        W29767   4.826   5.686  10.168  0.3158  0.0600 -0.1402
13584W        W29768  14.815  11.634  12.828  0.2736  0.0668  0.1967
13585W        W29769   2.029   8.031  15.869 -0.2920  0.0390 -0.1325
13586W        W29770   5.610   1.588  13.086  0.1709  0.5609  0.4043
13587W        W29771  10.596  14.515   2.033 -0.0843 -0.4490 -0.3330
13588W        W29772  17.557  15.635   4.766 -0.1674  0.2150 -0.0723
13589W        W29773   3.917   6.881   1.159 -0.0776  0.2569  0.2012
13590W        W29774  17.881   5.873  11.749  0.0757 -0.5406  0.1322
13591W        W29775   3.482   5.895  14.513  0.0713 -0.0859  0.3435
13592W        W29776  17.149  17.190  12.095 -0.1613 -0.2456 -0.3357
13593W        W29777  12.957  13.901  10.333  0.1799 -0.1306  0.1778
13594W        W29778  14.487   0.906   1.385  0.3209 -0.2759 -0.1509
13595W        W29779   9.217  14.117  15.159 -0.3310 -0.1461  0.0518
13596W        W29780  17.823   9.074   1.353 -0.1023 -0.3483 -0.0988
13597W        W29781   9.081  15.905  12.584  0.0929  0.0814  0.2859
13598W        W29782   2.166   1.822  14.307 -0.1438  0.0109 -0.0913
13599W        W29783  17.474  15.011  13.478 -0.2591  0.0941  0.2902
13600W        W29784  11.897   3.919  15.743 -0.2049  0.1170  0.3108
13601W        W29785   8.986  12.032  11.979 -0.1916 -0.2041  0.0032
13602W        W29786   1.922  15.733  12.051 -0.3418 -0.2171  0.0371
13603W        W29787   1.866   2.262  13.126  0.2377  0.0728  0.1590
13604W        W29788   3.101   7.213   3.897 -0.2536  0.2315  0.0486
13605W        W29789  14.103  13.945   5.551  0.0322 -0.0044  0.2511
13606W        W29790  13.623  15.641   2.181  0.1316 -0.0567 -0.1959
13607W        W29791  15.553   5.861  15.577 -0.0389  0.2463  0.0801
13608W        W29792  16.123   9.863  12.693 -0.2651  0.0791  0.2779
13609W        W29793   2.618   9.883  13.675 -0.0007  0.0083 -0.0127
13610W        W29794  15.403   9.115  12.139 -0.2446  0.0159 -0.0900
13611W        W29795   5.715   8.086  15.859  0.3789 -0.1375 -0.1383
13612W        W29796   8.759   3.703   3.130 -0.0825  0.2435  0.2971
13613W        W29797   7.880   7.529   2.391  0.0977  0.3993 -0.1459
13614W        W29798   8.125   3.741  12.761 -0.1490 -0.1831 -0.1605
13615W        W29799   9.257  10.245   5.928  0.1134 -0.0762 -0.1107
13616W        W29800   6.897  12.114   2.188 -0.0874  0.2383 -0.0266
13617W        W29801  13.209   6.075   4.376  0.0594 -0.2725  0.0234
13618W        W29802   6.451   4.118   2.677 -0.1369  0.0037 -0.4180
13619W        W29803   5.288   3.454  15.788 -0.1062  0.0271 -0.0404
13620W        W29804  10.795  18.001  12.551 -0.0922 -0.1012 -0.1971
13621W        W29805  12.766  10.302   2.729 -0.1218 -0.0329 -0.1130
13622W        W29806   6.024  10.021  10.582 -0.0137 -0.1258  0.0648
13623W        W29807  12.805   9.067  12.544  0.4567  0.2517  0.2274
13624W        W29808   5.050   3.790  11.566  0.1961  0.0199  0.4850
13625W        W29809  16.946   2.868  14.665  0.0589 -0.1624 -0.0049
13626W        W29810   6.965  10.931   4.482 -0.0736  0.1892  0.2182
13627W        W29811   5.126  11.844   4.431 -0.2963  0.0238 -0.1100
13628W        W29812   9.525   6.582  13.960 -0.3890  0.0938  0.1884
13629W        W29813   7.109  16.279  14.805 -0.1064  0.1781 -0.0575
13630W        W29814  18.145   7.418   1.019  0.4483 -0.0185 -0.0951
13631W        W29815   8.506   1.176  13.470  0.1412  0.4357  0.0743
13632W        W29816  17.363   5.408   5.053 -0.4824 -0.0611  0.0023
13633W        W29817   0.786   2.596   1.684 -0.1145  0.0641  0.0057
13634W        W29818   3.730  15.637   3.136  0.1163 -0.0057  0.3672
13635W        W29819  17.724   0.845   2.466  0.0681 -0.0455  0.3075
13636W        W29820  13.134   0.339   3.636  0.0259 -0.1935  0.0025
13637W        W29821   5.263   0.829   1.633  0.0456 -0.2314  0.1753
13638W        W29822   5.984  11.091   1.887 -0.0257 -0.0002  0.1932
13639W        W29823   2.127   5.551  13.177  0.1274 -0.1467  0.1018
13640W        W29824  16.505   7.588  12.845  0.0391  0.0827  0.0943
13641W        W29825  13.974   8.142  14.213 -0.0954  0.2386 -0.2095
13642W        W29826   4.833   0.801  11.880  0.0956  0.3379 -0.0273
13643W        W29827  13.416  16.251   0.382 -0.4596 -0.3282 -0.3244
13644W        W29828  16.500   0.146   5.550  0.0397  0.1536 -0.1658
13645W        W29829   9.216   2.793   1.301  0.2030  0.0645 -0.0294
13646W        W29830  16.910  16.804   4.265  0.1557 -0.0128  0.3687
13647W        W29831   1.751  13.909   3.892 -0.2470 -0.1219 -0.4275
13648W        W29832  14.079  15.855  12.282 -0.0718 -0.0283  0.0438
13649W        W29833  11.322   7.722   4.535  0.0479 -0.1008 -0.1705
13650W        W29834  10.277   6.506   1.457 -0.1312  0.2346 -0.3094
13651W        W29835  11.657  16.730  13.569  0.0724  0.0553 -0.3832
13652W        W29836   3.193  15.795   1.023  0.1845  0.2530  0.0621
13653W        W29837  17.767  14.564   2.792 -0.1758  0.0832  0.0641
13654W        W29838   9.283   2.832  15.888 -0.0722 -0.1043  0.3663
13655W        W29839   3.114   0.331  12.967 -0.2331  0.3007  0.0043
13656W        W29840   9.092  17.506   1.067  0.3854  0.0597  0.0260
13657W        W29841  10.761   0.055   0.201  0.1656  0.0104  0.1094
13658W        W29842   0.691  10.215   0.247 -0.1744  0.1517  0.0682
13659W        W29843  14.475  13.292   3.814 -0.1055 -0.0329  0.0468
13660W        W29844   8.437  18.154   2.859  0.0501  0.0587  0.1062
13661W        W29845  11.480  11.718  11.735  0.0645  0.0372  0.0275
13662W        W29846   5.243  11.660  15.758  0.3312  0.2038  0.2397
13663W        W29847  12.032  13.726  13.262  0.1354  0.0801 -0.2945
13664W        W29848  13.890   6.480  14.823 -0.1432 -0.3172 -0.0642
13665W        W29849  17.889  17.302  14.737 -0.1915  0.1158  0.0714
13666W        W29850  11.992   8.401   2.131 -0.2691  0.2215 -0.1223
13667W        W29851   1.481   3.481   1.553  0.2878  0.0900 -0.2226
13668W        W29852   2.570  16.110  14.444  0.1038 -0.1838  0.2376
13669W        W29853   4.551  17.322   0.605  0.2861 -0.1820  0.2779
13670W        W29854   8.254  10.728  11.638 -0.0192 -0.1217  0.1948
13671W        W29855  13.077   2.215   1.574 -0.0678  0.0863  0.4850
13672W        W29856  12.806  16.611   0.014 -0.0848 -0.2723 -0.2881
13673W        W29857  18.307   5.768   0.931  0.1675 -0.1615  0.2888
13674W        W29858   4.344   3.864   2.722 -0.1664  0.0513  0.6369
13675W        W29859  16.652  14.160  15.143 -0.1603 -0.0364 -0.0751
13676W        W29860  17.260  13.890  13.253  0.1749 -0.0374 -0.1249
13677W        W29861  17.024   7.361  13.621  0.0022 -0.0044  0.1014
13678W        W29862   2.043  11.412   1.267  0.2927 -0.1489  0.2212
13679W        W29863  18.315  16.354  14.789  0.1720  0.3402  0.2219
13680W        W29864   8.537   5.016   0.525  0.4841 -0.0758  0.1384
13681W        W29865   9.092   1.598  15.006 -0.2562 -0.0385  0.0135
13682W        W29866  13.570  17.951   1.234  0.1724 -0.0051  0.2934
13683W        W29867   7.170   6.904  16.060  0.0278 -0.5456  0.0885
13684W        W29868   0.306  11.526  15.759 -0.1141 -0.1409  0.0235
13685W        W29869  13.189   3.049   3.543  0.0894  0.4012 -0.1136
13686W        W29870  18.089  12.210   5.039  0.3501 -0.1043  0.0824
13687W        W29871   0.232   2.677  10.872  0.2609 -0.0524 -0.2782
13688W        W29872   2.743  15.886   0.721 -0.1148 -0.1820 -0.3117
13689W        W29873  11.226  14.176  15.142 -0.0507 -0.1895  0.0892
13690W        W29874  12.263   8.349  13.351  0.0632 -0.1584  0.1661
13691W        W29875  13.495  17.356   0.029 -0.0144 -0.0602 -0.0179
13692W        W29876   8.124   4.188  15.907 -0.3084  0.0297 -0.0093
13693W        W29877   8.217   2.648   1.183 -0.2582  0.0250  0.0511
13694W        W29878   0.623  14.018   4.743  0.1136 -0.1835 -0.1423
13695W        W29879  11.228   5.441  13.619  0.1489  0.1332  0.1102
13696W        W29880  14.707   6.452   2.734  0.0801  0.0477  0.0478
13697W        W29881  14.262   9.767  15.757 -0.0315 -0.1942  0.0018
13698W        W29882  10.537   1.093   1.565 -0.2793  0.0576 -0.2886
13699W        W29883  10.727   0.430  15.984 -0.3210 -0.2027 -0.0587
13700W        W29884  16.408   8.498   4.133 -0.0899 -0.2621  0.0909
13701W        W29885   9.877   1.365  14.288  0.0916  0.2258 -0.0081
13702W        W29886   0.947   2.840   5.227  0.0335 -0.0879 -0.2103
13703W        W29887   2.852  11.631  12.635  0.0528 -0.1157 -0.0464
13704W        W29888  11.957   9.967   2.227  0.1435  0.3186 -0.0063
13705W        W29889  11.719  14.905  12.796  0.0581 -0.0644 -0.0497
13706W        W29890  14.607   8.042   0.535  0.1365  0.0754  0.0855
13707W        W29891   0.517   5.541  12.735  0.0684 -0.0204  0.2060
13708W        W29892   5.444  13.506  15.420  0.2796  0.1046 -0.1636
13709W        W29893   9.796  15.342   6.506 -0.0160 -0.5347 -0.0703
13710W        W29894  14.118   9.631   2.776  0.3084  0.1809 -0.0787
13711W        W29895   0.092  16.775  13.527 -0.3832 -0.2295  0.1625
13712W        W29896   5.667   6.107   1.067  0.1497 -0.1406 -0.0657
13713W        W29897  13.327   8.925  12.848 -0.1403  0.1426 -0.2296
13714W        W29898   9.045  17.539   0.571  0.0821 -0.2599  0.0553
13715W        W29899  10.280   8.620   1.594  0.2252  0.0985  0.2004
13716W        W29900   9.160   7.784   2.677  0.0086  0.2654  0.4686
13717W        W29901   2.210  17.421   1.410  0.2416 -0.2091  0.3329
13718W        W29902   7.859   8.710   4.926  0.0022 -0.0020  0.2117
13719W        W29903  11.339  16.730   0.968  0.3377  0.1501 -0.1477
13720W        W29904  15.093  10.061   2.192  0.2977 -0.1064  0.0150
13721W        W29905  18.264   9.321  14.323  0.0939 -0.3758 -0.2046
13722W        W29906  16.398  18.054  13.388 -0.0001 -0.0184 -0.3232
13723W        W29907  10.712   3.618  11.699 -0.0912  0.1653  0.2111
13724W        W29908  13.168   2.769  14.882 -0.2672 -0.0192 -0.0138
13725W        W29909   9.092  13.820   0.985 -0.1334  0.0478  0.0284
13726W        W29910   1.732  14.387   4.251 -0.1058  0.0664 -0.0294
13727W        W29911  17.710   2.657   2.345 -0.0324 -0.2014  0.0568
13728W        W29912   1.710   7.624   2.682 -0.0863 -0.1286 -0.2480
13729W        W29913   9.393   2.909   5.090  0.1562  0.1903  0.0521
13730W        W29914   8.725  12.344   2.809  0.0746 -0.2332 -0.1436
13731W        W29915   5.792  13.022  16.092  0.2163  0.1477  0.1905
13732W        W29916   9.195  16.114  14.178 -0.2955  0.1056  0.1993
13733W        W29917  13.926   9.427  15.925  0.0626 -0.1510  0.0662
13734W        W29918   0.540  12.997  12.580  0.2037 -0.0615  0.0963
13735W        W29919   2.203  10.312  15.522  0.1394 -0.0573 -0.1373
13736W        W29920   0.459  14.693   4.609 -0.0121 -0.3324  0.0115
13737W        W29921   7.165  13.192   2.019  0.1779 -0.2122 -0.1453
13738W        W29922  12.972  15.407   0.076  0.1308 -0.1272  0.0265
13739W        W29923   2.570  11.640  14.752  0.2077  0.1566 -0.0820
13740W        W29924   9.414  17.779  15.627 -0.0126 -0.1698  0.0544
13741W        W29925  13.620   6.250  15.710  0.0621  0.1533 -0.1270
13742W        W29926  17.027  15.285  15.705  0.2592 -0.1602 -0.1971
13743W        W29927  14.371   2.765  16.019 -0.0819 -0.1045 -0.0436
13744W        W29928  17.279  15.800   4.345  0.4468 -0.0381 -0.4827
13745W        W29929  12.841  15.438  12.123 -0.2912 -0.1331  0.0339
13746W        W29930  10.394   7.754   0.588  0.0311 -0.3428  0.1654
13747W        W29931   1.325  16.335   4.842 -0.0667  0.1134  0.0449
13748W        W29932   4.996   8.343  13.381 -0.0642  0.3849  0.0087
13749W        W29933  15.388   7.327  13.916  0.0146 -0.1787  0.3253
13750W        W29934  13.569   9.726   3.798 -0.0669  0.2385 -0.2744
13751W        W29935   4.145   4.403   4.824  0.0528 -0.0657 -0.1547
13752W        W29936   3.072   2.139  10.846  0.0933 -0.3107 -0.2237
13753W        W29937  18.149   8.324   2.549 -0.0603  0.0635 -0.5292
13754W        W29938   3.282  13.612  12.963  0.3370  0.1572 -0.1501
13755W        W29939   6.845   9.245   0.952  0.2076  0.3116 -0.1225
13756W        W29940   2.116   7.620  12.644  0.2212 -0.1538  0.2971
13757W        W29941   8.114   8.982   3.049 -0.0635 -0.1019 -0.0762
13758W        W29942  14.779   2.047   2.529  0.1459 -0.0909  0.0832
13759W        W29943  13.615  10.362  15.259 -0.4372  0.2599  0.1469
13760W        W29944  12.279  10.089   1.878 -0.1938  0.0734  0.1079
13761W        W29945  14.035   8.889  16.122  0.1462  0.1512  0.1670
13762W        W29946  11.798  13.345   1.249 -0.0386  0.0866 -0.1673
13763W        W29947  15.965   2.626  13.218  0.0515  0.1035  0.1718
13764W        W29948  16.362   5.979   2.046 -0.0737 -0.0367 -0.1190
13765W        W29949   8.936  14.675  13.000  0.3071  0.2581 -0.1522
13766W        W29950   8.150  13.973   1.888 -0.2934  0.0483  0.1788
13767W        W29951  16.127  16.912  15.689  0.0913  0.1429 -0.0686
13768W        W29952  14.146   1.162  12.465  0.1769  0.0052  0.1159
13769W        W29953  12.363   4.181   4.945 -0.2290  0.0474  0.2089
13770W        W29954  11.121   3.094  11.408 -0.0800  0.1088  0.0204
13771W        W29955   4.365   3.458  15.951 -0.2083  0.0494 -0.0578
13772W        W29956  10.115  15.599   1.509  0.0912  0.0764 -0.2488
13773W        W29957   8.458  16.437   4.140 -0.1047  0.0350 -0.0779
13774W        W29958   6.410   3.474   0.471  0.0460 -0.1407 -0.1426
13775W        W29959  15.614   7.878  14.744 -0.1265  0.0934 -0.0219
13776W        W29960  15.220  13.246   1.372 -0.0485 -0.2249 -0.1522
13777W        W29961   8.847   5.735  11.840 -0.2583  0.4400  0.0137
13778W        W29962  11.959   9.557   0.874 -0.4504  0.0186  0.3267
13779W        W29963  12.923   7.669   2.965  0.0686  0.1088 -0.0389
13780W        W29964  17.062  15.234  15.165 -0.1305 -0.2100  0.0367
13781W        W29965   5.075  12.311  13.171 -0.1777 -0.1576 -0.1521
13782W        W29966   3.169   2.785  11.542  0.0919 -0.0186  0.0536
13783W        W29967   9.779   5.576  12.116 -0.2043 -0.3037  0.1049
13784W        W29968   2.177   1.789  14.914 -0.0616  0.0498 -0.1215
13785W        W29969  11.837   9.635  14.212 -0.2983 -0.4116 -0.1460
13786W        W29970  17.700   9.281  12.094 -0.1381  0.0048  0.0931
13787W        W29971   9.027   8.566   2.623  0.1137  0.1256 -0.0142
13788W        W29972   9.488   3.266  13.325  0.0647  0.1183 -0.1107
13789W        W29973  16.839   6.572   2.297 -0.2602 -0.3074 -0.1274
13790W        W29974  12.882   6.670   5.919  0.1274  0.0480  0.2107
13791W        W29975  13.435   7.468  13.233  0.2030 -0.1505  0.0329
13792W        W29976  10.744  12.377  13.756  0.4054  0.0484 -0.1024
13793W        W29977  18.482  12.389  12.311  0.1992 -0.1070 -0.0246
13794W        W29978   8.908   9.879   1.722  0.1948  0.2423 -0.0763
13795W        W29979   5.893  10.076   1.110  0.0437  0.0923  0.2524
13796W        W29980   4.191   5.080   1.488 -0.2643  0.0939  0.2683
13797W        W29981   6.026   8.465   0.462 -0.2408 -0.3675 -0.0021
13798W        W29982  16.328   5.508   3.448  0.0418  0.0372 -0.1810
13799W        W29983  14.815   4.821  15.310 -0.1272  0.1441  0.0838
13800W        W29984   3.049  16.171  13.903  0.0512 -0.2868 -0.1916
13801W        W29985   1.208  17.348   0.041  0.2715 -0.0666 -0.0702
13802W        W29986   9.884  16.709   4.113 -0.0144  0.1967 -0.0653
13803W        W29987   8.513   4.763  12.270 -0.0183  0.1626  0.1766
13804W        W29988  14.307   5.933   3.746 -0.0726  0.2402  0.1950
13805W        W29989   4.547   6.832  15.376 -0.0690 -0.0746  0.2252
13806W        W29990   0.451  18.456   2.457  0.1472 -0.0019 -0.1709
13807W        W29991   4.444  16.335  13.453 -0.0199  0.2375 -0.0813
13808W        W29992  12.052   5.184   1.041 -0.3404  0.0026  0.0479
13809W        W29993   6.711   8.707   2.062  0.1720  0.2205  0.0382
13810W        W29994  11.654   0.033  11.417  0.1763  0.1853  0.0493
13811W        W29995   4.767  12.778   5.815  0.1920 -0.1458  0.0712
13812W        W29996   7.315  12.305   2.039 -0.2954 -0.2327  0.0844
13813W        W29997  12.485  15.447   4.668  0.1074 -0.1442  0.1076
13814W        W29998  17.716  12.589   1.166 -0.2094  0.0394  0.1658
13815W        W29999   3.954  15.320   3.960 -0.0561 -0.1351  0.0363
13816W        W30000   4.660  11.124  11.557  0.0932  0.1336  0.0144
13817W        W30001   8.004  11.800  15.063  0.1310 -0.1611  0.0319
13818W        W30002  15.120   5.443   4.719 -0.2527  0.0619 -0.1397
13819W        W30003  10.699  12.548   3.572 -0.1290 -0.0127  0.0005
13820W        W30004  13.912  11.582  13.099  0.0512 -0.1007 -0.3058
13821W        W30005  10.552  12.141  12.700 -0.0060  0.2469  0.1134
13822W        W30006   7.756   5.229   5.201  0.1858 -0.0230 -0.0959
13823W        W30007   0.405   0.998   0.364  0.0395 -0.2263  0.1229
13824W        W30008   9.444   0.552  14.024 -0.2455  0.0418  0.1753
13825W        W30009   0.177  12.675   4.961 -0.2100 -0.1554 -0.1067
13826W        W30010  13.564  12.896   3.145  0.0022 -0.3300  0.2428
13827W        W30011  14.140  17.986  11.248 -0.0519 -0.3922 -0.2656
13828W        W30012  15.084  10.791   3.812  0.2449 -0.1185  0.3005
13829W        W30013  13.739   2.206   9.999 -0.1888 -0.1473  0.1268
13830W        W30014  12.660   6.619   3.300 -0.0806 -0.1656 -0.0423
13831W        W30015  11.549  13.733  13.308 -0.0143  0.1529 -0.1549
13832W        W30016  17.975  14.153   5.351 -0.0149  0.0732 -0.1048
13833W        W30017   4.298   5.660   0.969 -0.2512  0.3225  0.1246
13834W        W30018   9.818   5.269   4.554  0.5802 -0.0991  0.3040
13835W        W30019  11.606  15.255  14.388 -0.1596  0.1145 -0.0583
13836W        W30020  10.142   2.884   0.804  0.0240 -0.0369  0.1209
13837W        W30021   6.074  14.171   4.893 -0.4101  0.0382 -0.1937
13838W        W30022  11.543   0.964   4.621 -0.2640 -0.1879 -0.3333
13839W        W30023   4.425   1.804   1.553 -0.2820  0.1142 -0.0957
13840W        W30024   8.227  14.800   1.941  0.2789 -0.3715 -0.0994
13841W        W30025   8.519  13.483   4.849  0.1251 -0.2189 -0.0147
13842W        W30026  14.795  10.270  11.434 -0.1365  0.0699 -0.2450
13843W        W30027   3.963   5.684   3.926 -0.2997  0.0009  0.2769
13844W        W30028   7.069   6.971  11.538 -0.1082 -0.0076 -0.2556
13845W        W30029  15.210   4.866  13.678 -0.0929  0.0867  0.2733
13846W        W30030   5.813  11.195  13.697  0.1807 -0.2777 -0.0365
13847W        W30031   4.456   2.278   1.834 -0.0458  0.0175 -0.3013
13848W        W30032   4.392  18.297  13.574 -0.0371  0.3977 -0.0101
13849W        W30033  15.691  10.037  12.505  0.3282 -0.3043  0.0031
13850W        W30034   5.676   7.652  13.224  0.0755  0.0208  0.0072
13851W        W30035   4.081   8.894  13.053 -0.2903  0.1024  0.0460
13852W        W30036  13.504   2.031   2.781  0.0412  0.1080 -0.1182
13853W        W30037   6.270   7.891   0.645 -0.1132  0.0017  0.2397
13854W        W30038   9.318   0.091   1.366 -0.1332 -0.0584 -0.0655
13855W        W30039   6.363   1.954   4.108  0.1539 -0.1529 -0.3902
13856W        W30040  14.965  18.509   2.896  0.2193  0.1966  0.0574
13857W        W30041  10.939   6.166  14.695 -0.1172  0.4340 -0.0689
13858W        W30042   5.219  11.315   3.543  0.0105  0.2957  0.0116
13859W        W30043  15.037   3.408   3.671 -0.0581  0.1510  0.1167
13860W        W30044  16.556   0.613   2.492 -0.2766 -0.1382  0.0088
13861W        W30045   6.709  15.632  12.426 -0.1308 -0.1962 -0.0883
13862W        W30046  16.901  14.822  14.267 -0.0950 -0.0512 -0.4340
13863W        W30047   9.149   2.615  12.063  0.1045 -0.2016  0.3152
13864W        W30048  11.488  11.912  13.473 -0.1275 -0.1045 -0.1821
13865W        W30049   9.527  16.979  15.105  0.1829 -0.0258  0.1883
13866W        W30050  17.758  10.977  11.807 -0.2394 -0.0551  0.2407
13867W        W30051  18.452  12.738  11.791 -0.4668 -0.2510 -0.0803
13868W        W30052  18.358   2.166   4.852 -0.2286  0.3173  0.0889
13869W        W30053  10.265  12.354   3.137 -0.2995 -0.1163 -0.0422
13870W        W30054   6.838  13.965  14.077 -0.0912  0.1623 -0.0085
13871W        W30055  13.824  12.551  14.627  0.1403  0.2040 -0.1853
13872W        W30056   0.143  10.216   5.615  0.1231  0.1178  0.0733
13873W        W30057   9.793  14.839  15.668  0.0462 -0.1628  0.0220
13874W        W30058   5.815   9.089  15.327 -0.0686  0.0383 -0.2102
13875W        W30059  13.913  14.945  14.717  0.0109 -0.1195  0.1275
13876W        W30060   2.732  14.365   3.824 -0.2702  0.0936  0.2230
13877W        W30061   8.283  13.433   1.216 -0.3096 -0.0983 -0.0058
13878W        W30062  15.767   1.437   3.753 -0.2602 -0.2331  0.2661
13879W        W30063   2.457  14.546  13.636  0.1558 -0.1368  0.3091
13880W        W30064  11.995   0.382  14.737 -0.1147 -0.0829 -0.0526
13881W        W30065   2.207  17.117  14.540  0.1943  0.0293 -0.0384
13882W        W30066  16.380  15.959  14.556 -0.0743 -0.2907  0.2050
13883W        W30067  10.684   6.518   1.000 -0.0211  0.0750  0.1400
13884W        W30068   8.402   0.899   2.709  0.2691 -0.1128 -0.1263
13885W        W30069   9.054  10.170   5.438 -0.2294  0.0287 -0.1348
13886W        W30070  14.249  17.392   1.488  0.2569 -0.5323  0.0073
13887W        W30071  16.775  17.690  15.812  0.0477  0.0911  0.2055
13888W        W30072  12.465   4.450   0.846 -0.0435  0.1338  0.0618
13889W        W30073   7.326  15.985   2.556 -0.0125  0.1038 -0.0774
13890W        W30074  10.267  12.274   3.620 -0.2830 -0.2273  0.1641
13891W        W30075  11.168   9.627  11.977  0.0906  0.0239 -0.1521
13892W        W30076  11.225  16.626  16.138  0.0838 -0.3899  0.0802
13893W        W30077  18.392   0.367  12.651 -0.0990  0.0116  0.2220
13894W        W30078   0.332   4.794   2.422  0.1424  0.0321  0.2028
13895W        W30079   9.519   7.544  14.505 -0.2227  0.0115  0.2700
13896W        W30080   5.623  17.157  13.672 -0.0599  0.1000 -0.3206
13897W        W30081  12.694  11.709  15.022 -0.1043  0.0995 -0.0388
13898W        W30082   0.008  13.299   1.232 -0.2472  0.0048  0.2766
13899W        W30083  14.807   0.249  13.540  0.3146 -0.3446  0.1854
13900W        W30084  13.597   7.669  14.861  0.0534  0.0640  0.1366
13901W        W30085  14.771  14.676  13.639 -0.3449  0.0112 -0.1007
13902W        W30086   3.464   9.895  14.689  0.1055 -0.0076 -0.1915
13903W        W30087   7.824  13.856  12.063  0.0466 -0.2226 -0.3893
13904W        W30088   5.722  14.418  12.616  0.1406 -0.2041 -0.2675
13905W        W30089   9.293   1.111  12.523  0.2187 -0.0350  0.1793
13906W        W30090   6.525  11.506   4.841 -0.0835 -0.0585 -0.1239
13907W        W30091   7.120  17.756  11.491 -0.2639  0.0516 -0.0773
13908W        W30092   9.998   9.983  15.403 -0.1367  0.1835  0.0989
13909W        W30093  11.642  10.753  11.504  0.0983 -0.0146 -0.2249
13910W        W30094   8.270   0.016  14.965 -0.0677 -0.1291  0.0987
13911W        W30095  11.379   1.583  13.423 -0.2211 -0.0053  0.3615
13912W        W30096   4.540   4.110  12.243 -0.0879 -0.1207  0.1749
13913W        W30097  16.562  16.743   3.067 -0.0190  0.2031 -0.0754
13914W        W30098   1.005  11.938  14.382  0.0289 -0.3554  0.0667
13915W        W30099  17.496  15.603   2.612 -0.0974 -0.0564  0.1208
13916W        W30100  10.619   3.416   2.247 -0.1307  0.1994 -0.0941
13917W        W30101   7.042   0.083   5.534  0.2593 -0.1607 -0.2715
13918W        W30102  17.193   2.900  12.133  0.1132 -0.1107  0.1287
13919W        W30103  10.726   0.401   5.372 -0.0553 -0.0419 -0.0760
13920W        W30104   8.236   8.394  13.442 -0.3603  0.0928 -0.0752
13921W        W30105  17.085   1.803  10.690  0.0322  0.0124 -0.0221
13922W        W30106   3.858   5.911   1.754  0.0878  0.1077 -0.0249
13923W        W30107  11.114  17.255  14.887  0.0521  0.3027 -0.2697
13924W        W30108  17.231  16.453   3.812  0.1647 -0.0808  0.1021
13925W        W30109  14.016   9.128   3.194 -0.4002  0.1010 -0.1220
13926W        W30110  15.556   3.688  14.950 -0.0176 -0.0772  0.2274
13927W        W30111  15.611  17.455   3.990  0.5352 -0.0598  0.0206
13928W        W30112  14.992   9.257  11.239  0.2107  0.2677 -0.1395
13929W        W30113  11.226  16.567   5.010  0.1134 -0.0295  0.2846
13930W        W30114   3.967  18.135  12.515  0.0004 -0.0152 -0.1665
13931W        W30115  14.140  17.434   2.953  0.3108  0.0487 -0.0334
13932W        W30116   8.210   0.106   1.063  0.2900 -0.1943 -0.1793
13933W        W30117   7.883   5.325  15.785 -0.1634 -0.3982  0.1447
13934W        W30118  18.520   1.337   4.547 -0.3981  0.3930 -0.0804
13935W        W30119   1.755  14.167   2.316  0.3209 -0.1716 -0.0946
13936W        W30120  18.079  13.802  16.135  0.1162 -0.4029  0.1127
13937W        W30121  17.540  17.732  12.037 -0.1520 -0.0811 -0.1314
13938W        W30122  16.628   7.778   3.847 -0.1726 -0.0744  0.2283
13939W        W30123   7.197  17.435   3.839 -0.3370  0.2340  0.0456
13940W        W30124  16.961   3.506  11.152  0.0613 -0.0262  0.0638
13941W        W30125   5.655  13.703   5.498 -0.0033  0.0538 -0.1989
13942W        W30126   7.988   6.767   3.356  0.1188  0.1129 -0.2024
13943W        W30127   8.525   2.597  14.271  0.3277 -0.0935 -0.0617
13944W        W30128  11.908   5.888  15.151 -0.0516  0.0073  0.0063
13945W        W30129  10.696  11.316   4.844 -0.1051 -0.1593  0.1469
13946W        W30130   4.409   0.642  14.810  0.1429  0.2305  0.0582
13947W        W30131   5.478  12.158  15.937  0.1298 -0.0080  0.1284
13948W        W30132  10.281  17.056   2.582 -0.1793 -0.1631  0.0308
13949W        W30133   9.881  15.894   0.922  0.0775  0.2028 -0.1497
13950W        W30134   8.548   1.785   2.745 -0.1480 -0.2125 -0.4082
13951W        W30135   2.761   3.586  11.899 -0.7340 -0.0053  0.0869
13952W        W30136   3.585   6.212  15.356  0.0841  0.0903 -0.0461
13953W        W30137  13.917  10.169  15.817  0.1570  0.1264 -0.0365
13954W        W30138  13.927   7.308   0.880  0.2100  0.0319  0.3971
13955W        W30139   5.546   3.407  15.194 -0.2017  0.2283  0.1117
13956W        W30140   0.034  17.816   0.519 -0.2605  0.0004  0.0354
13957W        W30141   6.770   3.527   5.210 -0.0860 -0.0843 -0.3573
13958W        W30142   5.025   1.542   4.917 -0.2971  0.0208  0.0477
13959W        W30143   4.482  11.097   1.215 -0.1250  0.4933  0.0912
13960W        W30144  11.380  10.152   0.230 -0.1392  0.5306 -0.1136
13961W        W30145   3.684  14.935  12.931  0.0702 -0.2081 -0.1668
13962W        W30146  12.151  10.787   3.284 -0.1227 -0.0741 -0.1570
13963W        W30147  16.730   9.710   4.952 -0.0540 -0.1882 -0.0911
13964W        W30148  10.970   6.125  13.534  0.1351 -0.0304  0.0820
13965W        W30149  17.043  14.880   0.429  0.1110 -0.1301 -0.1470
13966W        W30150  11.392   1.589  11.565  0.1826  0.2175 -0.0515
13967W        W30151   2.014   6.584  15.801 -0.0052 -0.0011 -0.1894
13968W        W30152   0.022   2.427  13.288 -0.0748  0.0241 -0.0765
13969W        W30153   4.808   9.778  12.273 -0.2211 -0.2778 -0.3476
13970W        W30154   7.399  10.988  12.938  0.3760 -0.0543  0.0446
13971W        W30155   1.000   9.207   3.499 -0.2391  0.0357 -0.2938
13972W        W30156  15.446  13.608   1.015 -0.0924 -0.0263 -0.2715
13973W        W30157   8.688  17.106   1.110  0.2294  0.3699  0.0033
13974W        W30158   5.510   9.367   3.554 -0.1512  0.1198 -0.0444
13975W        W30159   3.197  14.475  14.436 -0.0192  0.3855 -0.1545
13976W        W30160  11.003   7.137   0.589 -0.0833  0.0653 -0.1142
13977W        W30161  12.171  14.205  11.910  0.2767 -0.2411 -0.0566
13978W        W30162  10.298  15.783   4.776 -0.0618  0.1159 -0.0519
13979W        W30163  16.679  10.894   6.288  0.1070  0.1690  0.0095
13980W        W30164   0.333   8.091   1.670 -0.2122 -0.0196  0.3616
13981W        W30165  14.814   9.279   3.084  0.3542 -0.1579  0.0412
13982W        W30166  10.054  10.543  15.554 -0.0703 -0.0440  0.1367
13983W        W30167   3.037  11.292   3.644 -0.0478 -0.0334 -0.0603
13984W        W30168  16.864   2.470  12.369 -0.4223 -0.0311 -0.0352
13985W        W30169   4.085   3.711   1.197  0.0563  0.1304 -0.0714
13986W        W30170  17.369   9.936   3.457  0.0949 -0.2162  0.6026
13987W        W30171   7.222  10.887   3.130 -0.4588 -0.1631  0.1986
13988W        W30172   5.311  13.072   5.210  0.0679  0.2382  0.1336
13989W        W30173  14.492   6.722  15.447  0.3496 -0.0048  0.2155
13990W        W30174  16.438   7.162  13.179 -0.3586  0.1059 -0.0476
13991W        W30175  14.509   4.032   0.235  0.1695 -0.1033 -0.0306
13992W        W30176   8.142  10.511   2.834  0.2310  0.0480  0.0645
13993W        W30177   9.050   0.163   5.014  0.2440 -0.2281  0.0286
13994W        W30178   1.527  13.993  12.332 -0.0530 -0.2937 -0.1976
13995W        W30179  13.384   7.873   5.672  0.1706 -0.1726  0.1534
13996W        W30180  13.044   6.016   5.600 -0.2968 -0.0229 -0.1518
13997W        W30181  10.438  14.243   3.942  0.0031 -0.1050  0.3195
13998W        W30182   6.234  17.865  12.239 -0.1085  0.0820  0.0967
13999W        W30183  10.142  14.831   1.813 -0.1763 -0.5123 -0.0454
14000W        W30184   3.621   0.523  11.670 -0.0681 -0.3311  0.2675
14001W        W30185   1.481  14.160   1.685  0.0262 -0.1688  0.1179
14002W        W30186  14.057  17.086   4.188  0.0165  0.0727 -0.4392
14003W        W30187  14.816  10.343  12.329  0.0095  0.0692  0.2657
14004W        W30188   6.103  10.894  13.182  0.1545 -0.2654  0.1648
14005W        W30189   6.532  16.423  10.596  0.0617 -0.0405  0.2116
14006W        W30190   8.146   8.347   5.161  0.1455 -0.2037  0.0890
14007W        W30191  15.660   0.051   1.374 -0.2793  0.2503  0.2736
14008W        W30192   5.748   1.488   3.211  0.0292  0.1700  0.1111
14009W        W30193  15.433   3.236   4.082  0.2190 -0.1281 -0.0660
14010W        W30194   3.834   8.851  12.418  0.3361 -0.2316 -0.0308
14011W        W30195  10.691   4.604  12.543 -0.1429 -0.4950 -0.0652
14012W        W30196  16.838  14.225   1.287 -0.3307  0.3238  0.1823
14013W        W30197   8.604  11.757   4.893 -0.0259 -0.1396 -0.0899
14014W        W30198  13.115   1.320   3.975  0.0452 -0.1378  0.1070
14015W        W30199  12.189  11.276   2.413  0.0389 -0.0077 -0.1841
14016W        W30200   0.725  17.332   1.657  0.4195  0.0272 -0.1314
14017W        W30201  10.298  16.308  11.208 -0.2759 -0.1987 -0.2844
14018W        W30202   1.639   5.001  12.540 -0.0846 -0.0461  0.1222
14019W        W30203   5.299   5.850  15.289  0.0802  0.1419 -0.3773
14020W        W30204  10.313  17.147  15.273  0.0921  0.0317 -0.1884
14021W        W30205   5.748   8.027   4.753 -0.2224  0.1432  0.4263
14022W        W30206  11.289  11.693   5.306  0.0655 -0.1882  0.0644
14023W        W30207   0.761  17.587  14.236 -0.1381  0.1219 -0.0009
14024W        W30208   9.464   5.934   5.104  0.0192 -0.0725  0.0923
14025W        W30209  16.763  11.403  12.081 -0.0895  0.1421 -0.1046
14026W        W30210  14.859   0.398  14.272 -0.1166  0.1877 -0.0445
14027W        W30211  12.214  13.765   2.614  0.0335  0.0583 -0.2826
14028W        W30212  16.629   5.924  15.499  0.1197  0.4151  0.2187
14029W        W30213   1.637   8.205  11.761  0.0289  0.0718  0.0369
14030W        W30214   5.882  16.618  13.778 -0.0525  0.0331  0.0126
14031W        W30215   2.954  11.169  14.282  0.1271 -0.2260 -0.0107
14032W        W30216  16.436   9.721   2.780 -0.3051 -0.3139  0.0448
14033W        W30217   5.108  14.268  11.204 -0.2407 -0.1816  0.2157
14034W        W30218   7.665   8.186   5.130 -0.3976 -0.4378  0.0681
14035W        W30219  12.824  15.795  15.922 -0.2493 -0.2226 -0.0716
14036W        W30220  12.244  13.305  11.894  0.3066  0.0281  0.5047
14037W        W30221  17.249  12.199   1.472  0.2339 -0.3170 -0.2491
14038W        W30222   8.962   2.599   4.601  0.0751  0.0820  0.0079
14039W        W30223  10.136  16.126   3.007  0.2213  0.4868  0.0129
14040W        W30224   8.265  12.792  14.373 -0.0087  0.3669 -0.1422
14041W        W30225  17.950  15.876   2.326 -0.3326 -0.2263  0.0431
14042W        W30226   0.827  10.642  11.450  0.5355  0.2399 -0.4758
14043W        W30227  14.490   6.385   4.838  0.0439 -0.0009  0.1658
14044W        W30228   7.434   5.692   1.145 -0.2249  0.2545 -0.0618
14045W        W30229   4.829  15.604  15.899  0.3367  0.0270  0.1694
14046W        W30230  10.863   7.351  12.994  0.0211 -0.2304  0.5782
14047W        W30231   1.232  15.820   0.283  0.0633 -0.1769  0.2912
14048W        W30232   5.714   9.783  13.125  0.1118  0.0018  0.2733
14049W        W30233  18.232   2.805  12.540  0.2579  0.0586 -0.2963
14050W        W30234  10.060   3.494   4.622 -0.2451 -0.1766  0.2079
14051W        W30235   0.849  16.206   1.522  0.1779 -0.2593  0.0437
14052W        W30236   8.855  16.581   3.713 -0.4440  0.0737 -0.0369
14053W        W30237   0.846  12.530   2.015 -0.1170 -0.0327 -0.1837
14054W        W30238  15.055   7.463   2.572 -0.0647  0.0527 -0.2529
14055W        W30239   5.098  16.210   4.338  0.0417  0.2152  0.0512
14056W        W30240  14.331   8.501   5.745 -0.1197 -0.0574  0.1092
14057W        W30241  13.577   1.666  13.601 -0.3606 -0.0233 -0.1313
14058W        W30242   6.686   7.031   5.026 -0.1154 -0.3318  0.0563
14059W        W30243  14.907  14.112   9.765 -0.0581 -0.1985 -0.0319
14060W        W30244  10.353  10.602   3.589 -0.1700 -0.3235 -0.0610
14061W        W30245   8.511   5.568  13.432 -0.0248 -0.0090 -0.0765
14062W        W30246  11.403  14.447  16.096 -0.3615 -0.1797  0.2153
14063W        W30247   3.959   3.278  13.897  0.0471  0.1632  0.0937
14064W        W30248   4.133  15.982   1.508  0.1556  0.0478  0.0232
14065W        W30249  12.251  16.761  13.730 -0.1324 -0.2180  0.2171
14066W        W30250   3.418  12.723   2.889 -0.0138  0.2079  0.4582
14067W        W30251  10.553   7.661   2.299  0.1228  0.0743  0.1583
14068W        W30252   9.303   6.071   3.328  0.0749 -0.1982 -0.4225
14069W        W30253  15.545  17.340  12.212 -0.0065  0.4910  0.1521
14070W        W30254  12.935   4.979  11.264  0.1668  0.1747  0.1503
14071W        W30255   4.768  18.119  15.636 -0.2306 -0.1814  0.0109
14072W        W30256  13.198   2.630  11.697  0.0756  0.4417 -0.4740
14073W        W30257  11.245   6.856  15.895  0.2405 -0.1819  0.0552
14074W        W30258  14.043  14.132   0.954 -0.0224  0.1503  0.1878
14075W        W30259   3.588  15.128  13.420 -0.2315  0.1019  0.2664
14076W        W30260   4.023   7.762  15.830 -0.0296  0.0020 -0.0416
14077W        W30261   3.536   3.377  11.488  0.0408  0.0239 -0.0327
14078W        W30262   4.650   5.401  12.493 -0.2000 -0.0624  0.0041
14079W        W30263   3.919  10.833   2.538 -0.0510 -0.2091 -0.1347
14080W        W30264  17.110  14.957  13.853 -0.3139 -0.1536 -0.0319
14081W        W30265   7.711   4.792   3.796 -0.0856 -0.3169  0.0300
14082W        W30266   3.767   6.643  12.527 -0.5222 -0.2321 -0.1136
14083W        W30267  14.697  16.213   0.819 -0.0235  0.0764 -0.0872
14084W        W30268   7.854  17.471  12.354 -0.2632  0.1771  0.0454
14085W        W30269   0.008   9.339  12.155 -0.2958  0.1236  0.1710
14086W        W30270  13.282  16.816   3.521  0.1133 -0.0780  0.0881
14087W        W30271   8.433  11.555   3.167  0.1502 -0.0483 -0.0291
14088W        W30272   4.838   2.196  13.993 -0.0369 -0.0364 -0.3077
14089W        W30273  12.571  16.219  11.239 -0.1250  0.1604 -0.0064
14090W        W30274  15.938   2.492  12.163 -0.1485  0.1405  0.3419
14091W        W30275   4.718   9.227  13.891  0.2165  0.0380  0.2219
14092W        W30276   8.610   2.753   1.728 -0.0309 -0.1410  0.0910
14093W        W30277   5.130  11.054  14.205 -0.1732  0.0196  0.1835
14094W        W30278   4.514   7.326  14.739 -0.0037  0.1265  0.1610
14095W        W30279   1.319   1.631  11.247  0.1063 -0.3271 -0.3480
14096W        W30280  14.456   0.448  13.976  0.2376  0.0897 -0.1337
14097W        W30281   0.233  15.685   9.978  0.0583 -0.0839 -0.0131
14098W        W30282  16.885  14.230   2.238  0.1479  0.3386 -0.1803
14099W        W30283   7.008  13.155  12.916 -0.0175  0.0984  0.1678
14100W        W30284   3.099   6.374   1.435  0.0826 -0.2617  0.0615
14101W        W30285  13.577  10.973   3.751 -0.2712 -0.1287 -0.1495
14102W        W30286  11.776  11.103  13.876  0.4177 -0.3640 -0.0166
14103W        W30287  14.885  10.255   5.151  0.3837  0.1036 -0.0164
14104W        W30288   5.223   8.116  16.086  0.0295 -0.1307  0.1593
14105W        W30289  15.950  16.178  12.019 -0.0568 -0.0539 -0.2880
14106W        W30290   7.676  12.514   3.625  0.3376 -0.3783 -0.1036
14107W        W30291   1.676   5.915   4.052  0.2083 -0.0847  0.0855
14108W        W30292   7.237  17.525   2.299  0.1793  0.1515 -0.1972
14109W        W30293  16.024   3.223   3.103  0.2007  0.0195  0.0571
14110W        W30294  11.830   4.154  12.978  0.4634 -0.3350  0.0817
14111W        W30295  11.261   5.781  14.838 -0.1528  0.0949  0.1586
14112W        W30296   2.878   8.045   5.204 -0.1880 -0.2375 -0.0374
14113W        W30297  14.248   3.020  12.024 -0.0132 -0.2737  0.2726
14114W        W30298   5.624   6.428  13.537  0.1837 -0.1803  0.0019
14115W        W30299   8.802   2.114  13.963  0.0290  0.0973  0.3363
14116W        W30300  13.503  12.497   2.115 -0.2529 -0.0673 -0.1238
14117W        W30301   3.815  18.202  11.504  0.0852  0.4155 -0.3611
14118W        W30302   3.430   8.814   2.667  0.3749  0.0760 -0.2519
14119W        W30303  12.996  18.410  11.904 -0.2340  0.1134  0.2302
14120W        W30304  16.687  15.384   0.465  0.1167 -0.0691  0.0594
14121W        W30305  12.282  10.285  15.358 -0.2110 -0.0516  0.1893
14122W        W30306   4.711  17.640   2.568 -0.0269  0.0639 -0.1632
14123W        W30307  11.611  16.848   2.434 -0.3706 -0.0614 -0.1432
14124W        W30308  17.317   1.538  14.367 -0.0381 -0.1280  0.3597
14125W        W30309  18.482  16.842  15.435 -0.5516 -0.0426  0.1022
14126W        W30310  15.045  12.699   2.685  0.2149 -0.0959 -0.1647
14127W        W30311   0.389   8.928   4.539  0.1515  0.1192 -0.3879
14128W        W30312   5.004  17.189  12.560  0.1253 -0.0281 -0.0336
14129W        W30313   1.995   4.698   1.239 -0.1606 -0.0094 -0.1907
14130W        W30314  16.830   7.356   5.117  0.2633 -0.2189 -0.0284
14131W        W30315  17.160   2.293   5.281  0.1950  0.2291 -0.2524
14132W        W30316   3.040  15.542   1.511  0.0280 -0.2691  0.1122
14133W        W30317  10.159   6.854   2.833  0.1532  0.2315  0.0388
14134W        W30318   7.140  12.614  15.705 -0.0316  0.1664  0.2770
14135W        W30319   4.880  13.774   4.589 -0.0538 -0.0081  0.0690
14136W        W30320  16.786   4.766   3.123  0.3463 -0.1212 -0.0284
14137W        W30321  12.760   3.370   3.638 -0.2184  0.3042  0.2075
14138W        W30322  10.254   4.585  12.246 -0.5881  0.2597  0.0813
14139W        W30323   2.495   8.927  13.991  0.0872  0.1450 -0.1613
14140W        W30324  16.241   1.683   2.300 -0.0053 -0.3527  0.0536
14141W        W30325   3.775  10.583  12.300 -0.0601 -0.2237  0.2152
14142W        W30326   4.411   4.297   2.495 -0.0388 -0.0130  0.0596
14143W        W30327   1.720   8.944  15.331 -0.0566 -0.3425 -0.1472
14144W        W30328   9.902  14.462  14.960  0.1922  0.1374  0.0065
14145W        W30329   8.851   1.675  10.043 -0.0480  0.1303  0.0261
14146W        W30330   7.150   1.731   3.856  0.2933  0.0458  0.0609
14147W        W30331   9.415  14.761  13.998 -0.0967 -0.1635  0.0664
14148W        W30332   9.095  11.979  15.779 -0.0141 -0.2909 -0.4111
14149W        W30333  16.906   0.116   0.639  0.3665 -0.0513  0.2769
14150W        W30334   9.359   8.869  14.146  0.2447 -0.0501  0.3253
14151W        W30335   5.155   4.813   4.083 -0.1593  0.1037  0.2580
14152W        W30336  15.309  16.249   1.415  0.1877 -0.0757 -0.0907
14153W        W30337   4.615   6.572   5.072  0.0201  0.1636 -0.0744
14154W        W30338  15.254  11.119  14.778 -0.4020  0.1738  0.1452
14155W        W30339   4.709   9.261   1.246 -0.1732  0.2207  0.0043
14156W        W30340  16.050   0.363   0.519 -0.0445  0.1985  0.0123
14157W        W30341  12.495  16.224  12.595 -0.0618  0.1711 -0.2865
14158W        W30342  10.708  12.511   0.955  0.0990 -0.0807 -0.0480
14159W        W30343  13.182   1.449  12.265  0.0479 -0.0057 -0.0613
14160W        W30344  18.462   9.576   5.325 -0.0118 -0.1507 -0.1805
14161W        W30345  16.528   6.325   3.339  0.0077 -0.3359  0.2712
14162W        W30346   7.760  17.896  12.011  0.0226  0.0553 -0.1371
14163W        W30347   3.346  13.256  14.590 -0.0893 -0.0272 -0.3564
14164W        W30348   5.958   1.269  13.475  0.2053 -0.1055  0.1977
14165W        W30349   5.783   6.978  11.695 -0.0523 -0.1439 -0.0179
14166W        W30350  13.639   4.809  11.246 -0.1374 -0.1219  0.0539
14167W        W30351   1.989   3.162  10.327  0.2862 -0.3098  0.4297
14168W        W30352  13.545   6.802  15.727 -0.0777 -0.3489  0.0198
14169W        W30353  16.345  17.943   3.643  0.4443 -0.1693 -0.1274
14170W        W30354  13.123  13.338   1.028  0.0551  0.0106 -0.0446
14171W        W30355  15.819  15.454   0.979 -0.0026  0.3280 -0.0422
14172W        W30356   7.346   8.117  14.796  0.1426  0.0557  0.0646
14173W        W30357  16.952   8.487   0.636 -0.1004  0.3502  0.2310
14174W        W30358   3.143  13.912   1.449  0.1290 -0.1903  0.1975
14175W        W30359  12.791  12.357   4.646 -0.0380  0.2001  0.2869
14176W        W30360   1.505   3.076  14.622 -0.0046  0.2306  0.2546
14177W        W30361   7.821   0.939   2.048  0.1353  0.0316  0.3683
14178W        W30362   0.069  13.144  11.411  0.1067 -0.0477 -0.0028
14179W        W30363  13.824   0.256  14.554  0.0626  0.3343  0.1305
14180W        W30364  17.371  10.191  12.396 -0.0371 -0.2387  0.3559
14181W        W30365   5.508  13.162  14.557  0.5722 -0.0811 -0.1696
14182W        W30366   6.612   0.257  11.714 -0.0108  0.2071 -0.1828
14183W        W30367   2.940  15.311   2.822 -0.2108 -0.1249  0.0916
14184W        W30368   4.459  12.001   4.360 -0.0486 -0.2902 -0.0303
14185W        W30369   8.832   1.201  14.112 -0.1322  0.2281  0.0070
14186W        W30370  13.103   5.530  11.990  0.1661  0.0780 -0.0476
14187W        W30371  16.077   0.384  15.367  0.2655  0.0131 -0.2844
14188W        W30372   6.908   8.713   2.932  0.2130  0.0682 -0.0132
14189W        W30373   8.779  16.957  15.510 -0.1066 -0.0474 -0.2626
14190W        W30374   1.198   6.401  14.940  0.0613  0.1589 -0.0798
14191W        W30375   8.333   9.564  14.377  0.1801 -0.0090 -0.0600
14192W        W30376   8.164   2.589  15.156  0.1615  0.0584 -0.2554
14193W        W30377   2.763   4.881  14.132 -0.2847 -0.0611  0.3532
14194W        W30378   5.378   2.770   4.495  0.2708  0.0218  0.2174
14195W        W30379   9.710   7.499  11.961 -0.0359  0.3201 -0.4755
14196W        W30380  12.705   3.543   1.358  0.1593  0.1644 -0.0167
14197W        W30381   2.890  16.073   5.098 -0.2964 -0.2615 -0.3402
14198W        W30382   0.432  13.814  15.135  0.2393  0.2165 -0.0408
14199W        W30383  10.653  15.030  12.534 -0.0207 -0.0968 -0.2268
14200W        W30384   8.388  17.966   0.575 -0.0002 -0.0113 -0.2978
14201W        W30385  11.952   5.217   5.311  0.1138 -0.1995 -0.2541
14202W        W30386  15.784   2.633   1.744  0.2190  0.1605  0.1864
14203W        W30387  11.764  11.465   4.468  0.1438 -0.0904 -0.2954
14204W        W30388  13.170  15.737   0.398  0.1019 -0.1394  0.0476
14205W        W30389  13.916  10.988  11.317  0.0559 -0.1174 -0.0470
14206W        W30390  15.036  14.092  12.561 -0.2636  0.1142 -0.0204
14207W        W30391   3.527   4.816  15.416 -0.3767 -0.3007  0.1091
14208W        W30392  10.923  12.658   4.471 -0.1077 -0.0557  0.0423
14209W        W30393   1.604  15.726   2.041  0.1201  0.2305 -0.0064
14210W        W30394   2.407  14.931   2.365  0.2149 -0.4144 -0.1001
14211W        W30395  14.243   0.154  12.556  0.1784  0.1249  0.3269
14212W        W30396  13.550  11.415  15.183  0.1559 -0.1154 -0.1419
14213W        W30397   6.703   2.374  11.857  0.2657  0.1389 -0.1187
14214W        W30398   6.344  16.778  12.509 -0.0785  0.0163  0.1268
14215W        W30399  16.611  14.120   3.542  0.0459  0.0222 -0.1528
14216W        W30400  13.282  15.879  10.223  0.1467 -0.0010  0.1467
14217W        W30401   8.788   4.051  15.590  0.1003 -0.0394 -0.0798
14218W        W30402   8.562  14.666   3.746  0.1582  0.0446 -0.1199
14219W        W30403  15.336  13.062   1.780 -0.0366 -0.0842  0.0007
14220W        W30404  12.877  11.888  10.525  0.2039 -0.0619 -0.2071
14221W        W30405  12.385   3.818  15.061  0.0937 -0.2422 -0.2718
14222W        W30406  16.243   3.695  13.467  0.0419  0.1922 -0.1622
14223W        W30407  17.483  16.501   0.682 -0.2663  0.0843  0.0725
14224W        W30408   5.930   3.531  14.649  0.1598  0.6031  0.0145
14225W        W30409   4.057  11.117  13.331 -0.1595 -0.0210 -0.1614
14226W        W30410   1.497  14.868   0.937  0.2487  0.2328 -0.4551
14227W        W30411   9.555   2.638   1.569 -0.2812 -0.0643 -0.2468
14228W        W30412  14.522  10.673  11.499 -0.0239  0.3606  0.0366
14229W        W30413  10.570  18.124  13.222  0.0392 -0.1705  0.0412
14230W        W30414   0.133  17.951  14.802 -0.0832  0.0006 -0.0793
14231W        W30415   9.667   2.195   1.865 -0.1483  0.1219 -0.2138
14232W        W30416  16.396  15.050  12.412  0.2224 -0.0511 -0.1353
14233W        W30417   5.677   4.268   0.721 -0.0414  0.0147  0.1653
14234W        W30418  14.889   0.640   4.452  0.2007  0.0690  0.1741
14235W        W30419   9.848  15.545  12.166 -0.0767  0.0734 -0.3346
14236W        W30420   6.114  18.072  13.200  0.3225 -0.2859  0.2847
14237W        W30421   1.452   9.180  11.946  0.1164  0.1884  0.0618
14238W        W30422  12.856   0.792  11.705 -0.0160  0.0411 -0.1094
14239W        W30423   5.699   3.995   1.893  0.1535 -0.1156  0.0775
14240W        W30424   5.942   4.277   2.815  0.0416  0.3570  0.1181
14241W        W30425  17.392   2.119   3.762  0.0713 -0.1350 -0.2452
14242W        W30426   3.515  11.050   1.641 -0.0839 -0.3006  0.0634
14243W        W30427  14.370   9.720   2.297  0.0917  0.0047 -0.0207
14244W        W30428   3.480   5.630   5.946  0.2390 -0.0963 -0.1927
14245W        W30429  10.970  12.499   3.980  0.0302 -0.1878 -0.1049
14246W        W30430   5.795   4.227  10.869  0.1393 -0.0818  0.1636
14247W        W30431  12.494   7.021   6.024  0.0632 -0.2122 -0.0391
14248W        W30432   7.024   0.244   3.865  0.2341 -0.0066 -0.1344
14249W        W30433   7.963   8.265   1.344 -0.1172 -0.1682 -0.1183
14250W        W30434   7.419  17.297   3.359 -0.0368 -0.3880 -0.2877
14251W        W30435   9.094   6.122   6.350  0.0661 -0.2811  0.1198
14252W        W30436  12.361  10.468   6.128 -0.2347 -0.1105  0.2541
14253W        W30437   6.209  12.220   0.769  0.0920 -0.2019 -0.2768
14254W        W30438   8.936  15.255  14.183  0.1737 -0.2689  0.0663
14255W        W30439  11.953  16.437   2.940 -0.0800 -0.0054 -0.2046
14256W        W30440   2.219   3.814  11.226 -0.1308 -0.1315 -0.0897
14257W        W30441  10.260  17.291  12.582  0.1096  0.0668 -0.1631
14258W        W30442  16.500   4.184   2.085  0.0663  0.0089  0.2777
14259W        W30443  18.444   7.301   2.130 -0.0190  0.0065  0.2359
14260W        W30444  17.975   4.634  12.368 -0.0099 -0.4583  0.0537
14261W        W30445  17.977   1.213  10.490  0.1530 -0.4149  0.0814
14262W        W30446  16.847   3.047  12.441  0.0632 -0.1096 -0.1292
14263W        W30447   2.605   8.019   3.541 -0.0406  0.1777  0.1309
14264W        W30448   8.259   0.351  11.861 -0.2310  0.1095  0.1788
14265W        W30449  13.112   1.790   4.638  0.0110  0.1296  0.0550
14266W        W30450  14.471  11.541   3.200 -0.0940 -0.2255 -0.1541
14267W        W30451   9.824   3.361  15.686  0.1456  0.0659  0.0194
14268W        W30452   7.401   9.242  13.653  0.0566  0.0546 -0.1613
14269W        W30453  14.922   8.896   2.671 -0.0638  0.0836  0.1842
14270W        W30454  14.236  17.694  15.976 -0.1482  0.2203  0.1518
14271W        W30455   6.151   0.135   0.384  0.1176 -0.1098 -0.1753
14272W        W30456   2.887  10.053   3.906  0.1026  0.1353 -0.3750
14273W        W30457   2.059  15.384   0.416  0.1279  0.1929 -0.1042
14274W        W30458   6.752   0.488   1.269  0.1708  0.2125  0.0606
14275W        W30459  12.948  13.487  12.527  0.0400 -0.1975 -0.1598
14276W        W30460   3.402   4.294  15.857  0.0761  0.1574  0.3294
14277W        W30461   6.670   1.248  14.680 -0.0337  0.1340 -0.0751
14278W        W30462  18.064  11.932   1.071 -0.0167 -0.2283  0.3239
14279W        W30463   4.714  17.233   3.439  0.0132 -0.2141  0.1093
14280W        W30464  15.353  12.285  13.430  0.0962  0.0400 -0.1574
14281W        W30465   9.761   9.404   3.948  0.0460  0.3020 -0.2569
14282W        W30466  15.830   6.082   2.081  0.2989 -0.0292  0.1076
14283W        W30467  14.123  12.241   0.165  0.0758  0.0771 -0.2049
14284W        W30468  14.684  18.233   5.235 -0.0740  0.3310  0.0969
14285W        W30469   5.436   5.377   1.552 -0.0946  0.1685  0.0585
14286W        W30470  11.899   9.313  15.537 -0.1080  0.0380 -0.1668
14287W        W30471   0.218  17.139   3.804 -0.3263  0.3225  0.2392
14288W        W30472   7.546   1.603   1.404 -0.3687 -0.2255  0.1653
14289W        W30473  18.488   9.553   3.818  0.1872  0.2715  0.2622
14290W        W30474   4.141  10.637   5.401  0.1086 -0.3166  0.1291
14291W        W30475   0.027  13.356  13.710 -0.1615  0.0018 -0.0417
14292W        W30476   0.047   1.202  11.228  0.0477 -0.1327  0.1435
14293W        W30477   7.358   7.709  13.259 -0.1547 -0.0245 -0.0703
14294W        W30478   0.565   1.069  12.574  0.0300  0.2904 -0.1869
14295W        W30479   5.883   1.020   3.063 -0.2077 -0.0937 -0.2451
14296W        W30480  10.150  18.443   2.803 -0.1059 -0.1495 -0.1384
14297W        W30481   7.157  18.101   3.932 -0.2525 -0.0574 -0.2039
14298W        W30482   4.589  15.439   5.151  0.1619  0.3943 -0.0509
14299W        W30483   2.153   2.628  13.982 -0.0531 -0.0384  0.0026
14300W        W30484   1.184   9.848   2.430 -0.2404  0.2431  0.1233
14301W        W30485  10.173   7.217   3.640  0.1510 -0.1140  0.1316
14302W        W30486   7.706   8.150   0.894 -0.1533  0.1017 -0.1686
14303W        W30487   1.609  14.332   4.734  0.2013  0.1473  0.0241
14304W        W30488   0.242   8.902  13.659  0.1046 -0.0647 -0.1927
14305W        W30489   9.548   4.492   3.274 -0.0732  0.3130 -0.1183
14306W        W30490   3.694  14.818   0.596 -0.1207  0.4466 -0.1555
14307W        W30491   3.365  17.749   2.302  0.1499  0.0946 -0.3305
14308W        W30492   1.254   7.024   1.814 -0.0691 -0.3288 -0.0590
14309W        W30493  11.558  15.111  12.161  0.0087 -0.2212  0.1292
14310W        W30494  16.916   5.764   1.913 -0.1042 -0.0718  0.1230
14311W        W30495  16.510  18.476   4.499  0.2392  0.2626 -0.2129
14312W        W30496  13.194  16.944  15.282 -0.3709  0.0826 -0.0012
14313W        W30497  12.916  12.195  14.357  0.2511  0.2267 -0.1251
14314W        W30498   4.107   0.469   3.594 -0.4488  0.0234  0.0762
14315W        W30499  15.831  14.424  12.561  0.3249  0.2499 -0.5556
14316W        W30500   0.446  18.034   0.090 -0.1841 -0.0480 -0.0366
14317W        W30501   7.340  12.090   4.580 -0.0083  0.1809  0.0042
14318W        W30502  12.851   0.157   5.720 -0.1759  0.1954  0.0921
14319W        W30503   8.126   5.014   1.064 -0.0177  0.1426 -0.2065
14320W        W30504   3.635   9.916   3.626  0.4455  0.1783 -0.0150
14321W        W30505   1.131  15.699   0.804 -0.0265 -0.4544 -0.0057
14322W        W30506   1.230  16.913   0.369 -0.1978  0.1106 -0.0036
14323W        W30507  14.026  17.198  16.023 -0.2170 -0.0479  0.0873
14324W        W30508  10.216   9.708  12.947 -0.0038 -0.0829  0.2031
14325W        W30509  17.477   2.106   0.127  0.0887  0.0949 -0.0672
14326W        W30510  17.714  15.796   3.511 -0.2948 -0.5149  0.0592
14327W        W30511   1.770  13.878  15.769  0.0981 -0.0888 -0.1693
14328W        W30512   3.809  15.419   5.647 -0.0265 -0.4006  0.0576
14329W        W30513  11.511   1.858  15.015 -0.0051  0.1046 -0.0302
14330W        W30514   6.518   6.333   4.563 -0.0246  0.0939  0.0940
14331W        W30515  12.933   6.643  12.660 -0.0894  0.1362 -0.0492
14332W        W30516  13.057  13.203  11.470 -0.2483 -0.1931  0.0305
14333W        W30517  13.736   9.416  14.321 -0.0403 -0.2219  0.4083
14334W        W30518  18.347  12.062   1.529  0.0107  0.2032 -0.0683
14335W        W30519  15.831  11.650   2.264  0.0558  0.1656  0.2973
14336W        W30520   2.180  17.253  13.865  0.1444 -0.0279  0.1322
14337W        W30521   0.945   2.875  12.016 -0.1559 -0.0940 -0.2462
14338W        W30522  14.578  14.333   2.770  0.0935 -0.0063 -0.0762
14339W        W30523  13.894  10.244   4.316  0.1115  0.0189 -0.0273
14340W        W30524  13.001   2.348   3.842 -0.0355 -0.3072 -0.4206
14341W        W30525   3.515  13.791   5.192  0.2413 -0.2636  0.2215
14342W        W30526  12.404  16.224   2.705 -0.2202  0.0422  0.1542
14343W        W30527  13.685  15.312   4.436 -0.1108 -0.2433 -0.3366
14344W        W30528   5.706  13.458   0.647  0.0537  0.0906 -0.1094
14345W        W30529  14.116  14.167  13.553 -0.1080 -0.1518 -0.2311
14346W        W30530  10.814   8.134  11.048  0.0191 -0.3048  0.2187
14347W        W30531  13.255   4.723   1.448  0.0873 -0.1722  0.0899
14348W        W30532  14.215   3.896  15.959  0.2248  0.1680 -0.1203
14349W        W30533  14.416  11.831   2.208 -0.1005  0.0581 -0.1000
14350W        W30534  16.718  17.474   3.609 -0.0986  0.0349 -0.1972
14351W        W30535   1.033   0.365   4.566  0.2197 -0.1794  0.0998
14352W        W30536   3.673   1.202   2.854 -0.3345  0.0684  0.1348
14353W        W30537  16.001   4.908   2.607  0.0957  0.3141 -0.1100
14354W        W30538   3.912   9.844  12.654 -0.0991 -0.1003  0.3910
14355W        W30539   3.302  13.527   3.901 -0.1276  0.0212  0.2417
14356W        W30540   0.236  12.924   0.492 -0.4473  0.1354  0.0779
14357W        W30541   5.814  12.539   4.561  0.3625 -0.0596  0.0450
14358W        W30542   9.105   3.416   0.819  0.0468  0.0373 -0.2193
14359W        W30543  10.049  11.061   3.575 -0.1207  0.0838 -0.1212
14360W        W30544  15.180   2.062  14.461  0.0083  0.4475 -0.3811
14361W        W30545   2.247   6.159  16.011  0.0830  0.0379 -0.0140
14362W        W30546   1.539  16.817   4.109  0.1902  0.2150 -0.1363
14363W        W30547   1.368   1.654   2.617 -0.0238  0.2512  0.0952
14364W        W30548   2.809  12.180  14.046 -0.0535  0.2110  0.2978
14365W        W30549   0.652  18.068  15.716 -0.0582 -0.1978  0.1062
14366W        W30550   8.764  15.092   2.071  0.1577 -0.1730  0.4192
14367W        W30551  15.728   1.178   3.359  0.1907 -0.2921  0.1395
14368W        W30552   0.267  14.146   5.931 -0.0848 -0.1493  0.1843
14369W        W30553   5.016   2.742   5.170  0.1193 -0.2563 -0.2274
14370W        W30554   4.891   6.916   4.810  0.1379 -0.2288  0.0960
14371W        W30555   9.191  16.811   4.369 -0.0979  0.0074 -0.4443
14372W        W30556  13.043   2.332  12.211 -0.2700  0.0747  0.7508
14373W        W30557   5.492   8.848  12.977 -0.1890  0.3514 -0.3249
14374W        W30558  14.913   5.916  12.956  0.1111 -0.0561  0.2569
14375W        W30559   8.405   6.664   0.359  0.0099 -0.1718 -0.1031
14376W        W30560  17.274   3.718   0.812  0.1164 -0.3752 -0.0547
14377W        W30561   8.940   7.056  12.334 -0.1151 -0.0742  0.0656
14378W        W30562   8.916  18.377   0.682 -0.0294  0.2282  0.0933
14379W        W30563   5.123   9.767  15.259  0.2589  0.2102  0.1347
14380W        W30564   0.621   7.772   1.212 -0.1856  0.2708 -0.1716
14381W        W30565   9.131   7.386   1.325  0.3119  0.0675  0.1648
14382W        W30566   3.856  16.427  13.782  0.0101 -0.1183 -0.2397
14383W        W30567   8.513   6.894   3.391 -0.0404 -0.1197 -0.4546
14384W        W30568   2.210   3.175  15.324 -0.2462  0.1465  0.0301
14385W        W30569   1.704   5.313  14.466  0.0371  0.1877 -0.2754
14386W        W30570  13.694   2.922   0.395  0.2287  0.2135 -0.0133
14387W        W30571  18.477   5.490   1.326  0.3112 -0.0652 -0.1951
14388W        W30572  18.381  16.868   1.879  0.0675 -0.1792  0.0178
14389W        W30573  12.888   8.690   5.557 -0.0610 -0.1138  0.0315
14390W        W30574  14.542  11.671  14.304 -0.0883 -0.2072 -0.0278
14391W        W30575   9.338   9.405  15.798 -0.0302  0.1335 -0.1797
14392W        W30576   2.801   3.877  14.028  0.1467 -0.0394  0.0029
14393W        W30577  10.290   3.977  12.959  0.0663 -0.0015  0.0460
14394W        W30578  10.484  18.342  12.685 -0.7885 -0.3118 -0.1970
14395W        W30579  14.072   3.667   3.230 -0.1372 -0.1389 -0.0390
14396W        W30580   6.935  17.109  14.500  0.1009 -0.2342  0.0720
14397W        W30581  15.595   1.959   5.176 -0.0167 -0.1071  0.2580
14398W        W30582   2.891  14.817   0.239 -0.1412 -0.1722  0.1278
14399W        W30583   1.142   0.896  15.139  0.0417  0.3446 -0.1968
14400W        W30584  17.489   1.482  10.503 -0.0536  0.1963 -0.0762
14401W        W30585  10.060   9.504  12.431  0.3723  0.1897 -0.2692
14402W        W30586   4.265   9.295   0.792  0.0959 -0.0487 -0.0376
14403W        W30587  13.865  15.379  14.975  0.4213 -0.1752  0.0153
14404W        W30588   8.108   9.817   0.147 -0.0903  0.3061 -0.0017
14405W        W30589   4.339   9.700  11.197  0.1577  0.0769  0.0812
14406W        W30590  10.717  12.694   1.807 -0.2470 -0.1862 -0.0695
14407W        W30591   4.709  11.539   1.218  0.5730 -0.0895  0.3575
14408W        W30592   9.259   5.690   5.619  0.0369  0.4957 -0.4692
14409W        W30593  12.772  16.655  15.266  0.1290  0.0324  0.0317
14410W        W30594   8.063   4.394   5.075 -0.1107  0.0492 -0.2216
14411W        W30595  15.952  17.153   2.506  0.4222  0.1945  0.1061
14412W        W30596  11.473   2.894   1.858  0.0615  0.0315  0.2503
14413W        W30597   9.277  10.641   5.604  0.1276  0.2809  0.0336
14414W        W30598   7.248  14.292   2.417  0.2665 -0.1194 -0.2792
14415W        W30599   6.806   8.202   1.984  0.1305 -0.0079 -0.0312
14416W        W30600  16.154   3.778  12.082 -0.3567  0.0628 -0.1651
14417W        W30601  17.007   0.323  15.161 -0.2442 -0.0304 -0.0401
14418W        W30602   6.167   2.256   3.654 -0.1233 -0.1795  0.0239
14419W        W30603   2.664  11.854  15.268  0.1555 -0.1864 -0.1352
14420W        W30604   0.786  10.582   4.919 -0.0289 -0.1484  0.1194
14421W        W30605  11.342   4.220   1.987 -0.0097 -0.0940  0.2197
14422W        W30606  10.367  16.218  16.031 -0.0558 -0.1904 -0.1954
14423W        W30607  16.465   2.884   4.307  0.2505 -0.0261  0.0987
14424W        W30608   9.180  12.713  13.488 -0.1501  0.1342 -0.3625
14425W        W30609  14.701   8.806   0.560  0.0434 -0.0278  0.1975
14426W        W30610  13.402   3.088  12.538 -0.0505 -0.0036  0.2945
14427W        W30611  15.267   8.295   4.922 -0.3134 -0.0712  0.1762
14428W        W30612   6.836  13.567  15.936  0.4250 -0.0637 -0.1999
14429W        W30613   7.938   6.319   4.695 -0.0550 -0.1777 -0.1909
14430W        W30614  15.320   0.958  14.894  0.0573 -0.0061 -0.1906
14431W        W30615  11.457   0.182   2.128 -0.0773 -0.0395  0.2157
14432W        W30616   8.233   6.370   0.945 -0.1815 -0.0371  0.1688
14433W        W30617  13.611   1.045  15.600 -0.3809  0.2334 -0.1713
14434W        W30618   6.552   6.416  13.009  0.1801  0.0359  0.1691
14435W        W30619  16.200   1.273  11.085 -0.1066 -0.0582 -0.2475
14436W        W30620   6.998   9.981   5.090  0.1413  0.1202 -0.3514
14437W        W30621   1.123   3.058  15.438  0.1869 -0.3078  0.1389
14438W        W30622  10.483   7.317   1.888  0.3480 -0.1570 -0.0919
14439W        W30623  15.708   8.145   4.775 -0.1418  0.2745 -0.0836
14440W        W30624  17.362  10.962   4.517  0.0278 -0.0871 -0.2122
14441W        W30625   1.751  13.155  13.292 -0.1987  0.0166  0.1716
14442W        W30626   6.360   6.853  13.828  0.0194  0.2079 -0.5421
14443W        W30627   0.106   4.832  12.154 -0.1322  0.0804 -0.2407
14444W        W30628   6.372   1.538   0.849 -0.3008 -0.0948 -0.0349
14445W        W30629  15.050  15.571  13.778 -0.1182  0.0560 -0.2754
14446W        W30630  16.513   9.917  12.401  0.1947 -0.1563 -0.1398
14447W        W30631   6.561   1.213  11.361 -0.3398 -0.2510 -0.0957
14448W        W30632  14.699   4.350   4.225  0.3820  0.1003 -0.1069
14449W        W30633   0.364  12.466  12.663  0.1176 -0.0377 -0.0013
14450W        W30634   7.618  10.475   3.266  0.2272 -0.0209 -0.1112
14451W        W30635  13.168  10.402  14.356  0.1951 -0.1045 -0.0906
14452W        W30636  17.091   1.128   1.798  0.0127 -0.0853 -0.0587
14453W        W30637   8.935   0.240  12.567  0.0524 -0.3291 -0.1866
14454W        W30638  17.035   0.353   3.884 -0.0859 -0.2115  0.2484
14455W        W30639  18.394   7.536  15.848 -0.0282  0.0491  0.0600
14456W        W30640   4.681  11.815   1.663  0.3099  0.1132 -0.1422
14457W        W30641   0.167   9.865   2.429  0.0397 -0.2188 -0.0606
14458W        W30642  13.695   4.567   2.282  0.0133  0.1372 -0.1724
14459W        W30643   9.782  13.348  14.416 -0.0173  0.3139  0.1018
14460W        W30644  11.146  11.891  13.888 -0.0031  0.2210 -0.0919
14461W        W30645  12.066  11.673  12.398 -0.0263  0.0250  0.1075
14462W        W30646   1.868   9.035   5.204  0.1315 -0.1396 -0.4221
14463W        W30647  10.154  14.598   4.238 -0.1806  0.1464 -0.1489
14464W        W30648  12.411  14.659  12.715 -0.1398  0.2556 -0.1336
14465W        W30649   5.537  17.382   0.541  0.0604  0.1740  0.1577
14466W        W30650  12.324   8.870  12.867 -0.0841  0.0804 -0.1853
14467W        W30651   1.015  16.316  14.537  0.1266 -0.1949  0.2243
14468W        W30652   3.943  13.421  13.423 -0.2901  0.0474  0.0148
14469W        W30653   3.335   8.833  14.003 -0.2638  0.3210 -0.3349
14470W        W30654  15.329   4.570   1.853 -0.0073 -0.0231  0.4037
14471W        W30655  15.230   5.158   0.018  0.2241  0.1086  0.3152
14472W        W30656   5.715  12.825   5.078 -0.3829  0.1630 -0.0453
14473W        W30657  16.726   1.857   2.121 -0.0600 -0.3626 -0.1530
14474W        W30658  12.730  13.929  12.729 -0.1002  0.2035  0.2058
14475W        W30659   3.501  10.468   3.977 -0.1091 -0.3367 -0.2655
14476W        W30660   3.551  18.046   0.171  0.1092  0.0671  0.2832
14477W        W30661  14.892   7.686   0.127 -0.0160 -0.3576  0.0558
14478W        W30662   2.271  18.065  13.480  0.0794 -0.0818  0.0862
14479W        W30663   5.526  17.573   2.599 -0.3148  0.3629 -0.1111
14480W        W30664   3.829   6.066   4.744 -0.1988 -0.2896  0.0734
14481W        W30665   2.071  16.476  15.431  0.1041 -0.0654  0.2952
14482W        W30666   8.031  11.097  15.434  0.1925  0.0435 -0.1864
14483W        W30667   3.810  12.934   1.729  0.1154 -0.0934  0.0768
14484W        W30668   8.732   4.556  14.887  0.0009 -0.0993 -0.1500
14485W        W30669  10.463   8.373   5.597  0.0711  0.3839  0.3927
14486W        W30670   6.877   5.606  15.379  0.0434  0.0259  0.0257
14487W        W30671   8.929   7.107  15.697 -0.1626 -0.1021  0.0320
14488W        W30672   8.605  10.697  12.963  0.2242 -0.1421  0.1431
14489W        W30673  16.582   4.170   1.026 -0.0913 -0.0735 -0.1044
14490W        W30674  14.216   4.660   0.961  0.1783  0.0401 -0.1631
14491W        W30675  17.528   0.379  14.490 -0.2259  0.2744 -0.0603
14492W        W30676  15.501  12.629   1.535 -0.2808  0.3641  0.0778
14493W        W30677  16.392   0.683  14.385  0.1609 -0.1625 -0.0033
14494W        W30678  11.802  15.732  14.311 -0.2284  0.1295 -0.2128
14495W        W30679  12.635  10.405  12.929  0.3325  0.0599  0.0923
14496W        W30680   5.558  11.253  11.986  0.0185  0.2739  0.0084
14497W        W30681   4.545   9.602   2.027 -0.1180 -0.1652 -0.1135
14498W        W30682  16.595  12.255   3.687 -0.2921  0.0002  0.0513
14499W        W30683   0.930  10.390  12.191  0.2937  0.2248  0.0673
14500W        W30684   4.358   0.897  11.956 -0.0116 -0.1340  0.2657
14501W        W30685   9.021   2.620  11.546 -0.1685 -0.0497 -0.3923
14502W        W30686   2.808   1.869  12.491 -0.0129 -0.2025  0.1468
14503W        W30687   2.245  15.806   0.642 -0.2834 -0.2503 -0.1888
14504W        W30688  18.097  18.388   2.028 -0.0213 -0.0089  0.3020
14505W        W30689   6.182   5.541  12.555  0.1941  0.0566  0.0616
14506W        W30690   4.338  13.278  13.160 -0.1476  0.0155  0.1995
14507W        W30691  10.722   5.835  15.026 -0.0758 -0.3932  0.1344
14508W        W30692   9.524   6.049  13.027  0.0584 -0.1485  0.5570
14509W        W30693   3.729   1.331   0.011  0.0742  0.0781 -0.1187
14510W        W30694   6.934  14.795  15.133  0.0478  0.1795 -0.2931
14511W        W30695  12.766   1.936  12.042 -0.1548 -0.1426  0.0376
14512W        W30696   5.247  11.016   5.086  0.1377  0.0235 -0.1221
14513W        W30697   4.940   9.062  11.850 -0.0207 -0.1919 -0.0536
14514W        W30698   0.464   5.155   3.334 -0.2692 -0.1531  0.2073
14515W        W30699   1.736   5.022   4.110 -0.1985  0.3181  0.1690
14516W        W30700   4.996   1.260  14.505 -0.0098  0.2164  0.0408
14517W        W30701   4.504   0.344  11.894 -0.0141 -0.0637  0.1497
14518W        W30702  12.459  14.251  14.286 -0.1039 -0.0334 -0.4209
14519W        W30703  12.380   0.856  15.840 -0.1441 -0.0849 -0.0921
14520W        W30704  12.773   0.347  15.123  0.1598 -0.2654  0.1094
14521W        W30705   5.150  16.193  15.213  0.2766  0.0870  0.1615
14522W        W30706   8.483   0.079  12.569 -0.0211 -0.1169  0.0458
14523W        W30707  17.324   5.278   2.679  0.0785 -0.2217  0.3932
14524W        W30708   0.002  14.038   3.997 -0.0801  0.1512  0.0514
14525W        W30709  16.763  10.600   3.067  0.0003  0.1757  0.0722
14526W        W30710   0.537   2.603   3.539 -0.2267 -0.0735  0.2024
14527W        W30711  10.972  16.128   2.699 -0.2113  0.1353 -0.1529
14528W        W30712   2.978  12.763   2.675 -0.0199  0.0726  0.4250
14529W        W30713  18.487   9.677   4.830 -0.0002 -0.2899 -0.0793
14530W        W30714  15.747  12.840   4.685 -0.1299  0.0503  0.2053
14531W        W30715   6.722  18.454   9.914  0.0679  0.0224 -0.2318
14532W        W30716   0.132   9.793   6.264  0.0844  0.0827  0.0772
14533W        W30717   1.729  12.963  16.016  0.0540 -0.0550 -0.2044
14534W        W30718   2.500   7.286  13.795 -0.5658  0.1651  0.1746
14535W        W30719   4.143   5.181   3.138  0.4022  0.2790 -0.1605
14536W        W30720   9.926   6.039  11.812 -0.0887 -0.0839  0.0476
14537W        W30721  13.751  14.143   2.504  0.0053 -0.1018 -0.0257
14538W        W30722   5.707  17.808   0.916 -0.1204 -0.2554 -0.2008
14539W        W30723  13.300  17.756  14.432 -0.1694  0.1374 -0.4425
14540W        W30724   0.256  14.142  12.169 -0.2980 -0.0671 -0.0124
14541W        W30725  10.665  15.450  14.251  0.0826  0.3877 -0.2562
14542W        W30726   6.202   9.557   2.268  0.2803 -0.0409  0.1332
14543W        W30727  17.683   9.232   0.382 -0.4605 -0.0077 -0.1540
14544W        W30728   3.871   0.715  11.237  0.1908  0.2781 -0.0049
14545W        W30729   2.422   8.336   4.431  0.1570 -0.1944 -0.1152
14546W        W30730  11.361   5.225  12.026  0.1554 -0.1542  0.1758
14547W        W30731   0.541  11.448  11.296  0.3234  0.2395 -0.3120
14548W        W30732   1.832   0.060   5.065  0.1896  0.1240  0.1733
14549W        W30733   5.863   6.762   0.826  0.0523 -0.1178  0.0145
14550W        W30734   1.363  10.876   1.392  0.7413  0.1210  0.2937
14551W        W30735   7.581   4.459  11.795  0.0983 -0.3859  0.0675
14552W        W30736   0.729   3.693   4.995 -0.1186 -0.1229 -0.1765
14553W        W30737  11.882  11.189   2.831 -0.2472  0.0143 -0.1689
14554W        W30738  14.145   2.614  13.584  0.0961 -0.1942  0.1106
14555W        W30739  14.062   4.266   2.422  0.1013  0.0800 -0.0324
14556W        W30740  13.613   1.487   2.657  0.1111  0.0226  0.0302
14557W        W30741   9.416   3.966   1.688  0.2822  0.1836 -0.0945
14558W        W30742   7.200   8.830  13.902 -0.2612  0.0465 -0.3669
14559W        W30743  14.642   0.680   5.831  0.2049  0.0692 -0.0663
14560W        W30744  16.920   3.960  12.735 -0.1630 -0.1020  0.0192
14561W        W30745   3.408  17.169   1.044  0.0804 -0.3063  0.2741
14562W        W30746   5.084  10.762  14.832 -0.3065 -0.0765  0.1787
14563W        W30747   6.256  16.835  12.037 -0.0782 -0.1829  0.0923
14564W        W30748   5.263   6.813  13.226 -0.1248 -0.0797  0.0428
14565W        W30749  16.798   7.136  11.150 -0.2721  0.0193  0.0503
14566W        W30750   8.452   9.484   0.943 -0.0290  0.0389 -0.2908
14567W        W30751   5.429  17.584   3.740 -0.1975  0.0737 -0.1148
14568W        W30752  14.060   9.040  15.618 -0.1400 -0.2923  0.0486
14569W        W30753  14.640   6.477   3.891  0.1893 -0.0710 -0.2146
14570W        W30754  13.500   9.452   1.783  0.2616 -0.3276  0.2157
14571W        W30755  17.054   6.551   3.102 -0.3423  0.2881 -0.0526
14572W        W30756  11.574  16.389   0.636 -0.1330 -0.1414 -0.0269
14573W        W30757   9.082   9.418   5.414 -0.0044  0.1461  0.1929
14574W        W30758   4.018   6.926   3.749 -0.2598  0.1277  0.0146
14575W        W30759  14.206  15.332   3.245 -0.0709 -0.0827 -0.2229
14576W        W30760   7.194   6.740  14.897 -0.3518  0.1653 -0.3672
14577W        W30761  13.112   8.211   4.738  0.0858  0.0340 -0.1065
14578W        W30762  10.705  17.571  14.800  0.3657  0.3821  0.0595
14579W        W30763  16.384  11.770   0.630 -0.2771 -0.1534 -0.0125
14580W        W30764  13.415  15.227   2.418  0.1825 -0.0160 -0.2211
14581W        W30765   7.615   3.953  14.726 -0.0690 -0.1892 -0.0839
14582W        W30766  16.829  17.701   5.478  0.1408 -0.1364 -0.0349
14583W        W30767   3.003  14.665  11.253 -0.2722 -0.0598 -0.2080
14584W        W30768  10.964   1.565  13.761 -0.1187  0.0113 -0.3957
14585W        W30769  12.431   5.887   0.663  0.0120 -0.2182  0.3563
14586W        W30770  15.462   2.159   6.075  0.0067 -0.2756 -0.1482
14587W        W30771  10.430   1.418  15.667  0.0941 -0.1580  0.3668
14588W        W30772  10.029  16.753   2.275  0.0697 -0.1578 -0.0386
14589W        W30773   3.322  12.797  14.928  0.1628 -0.0181 -0.3127
14590W        W30774   2.389  16.045  13.938 -0.3784  0.2990  0.0077
14591W        W30775  11.288  15.058  14.078  0.0909 -0.3362  0.0135
14592W        W30776   5.925  10.131   1.583 -0.0032  0.2762  0.0742
14593W        W30777  13.136  13.832   3.666 -0.2348  0.0086  0.4543
14594W        W30778  11.856  12.560   3.917 -0.0035 -0.0807  0.1110
14595W        W30779   8.030   5.024   1.592 -0.0252 -0.0084  0.5280
14596W        W30780  16.732   8.115  15.228 -0.1642  0.0377  0.1495
14597W        W30781   9.400   6.997  13.670 -0.0712  0.1885 -0.0289
14598W        W30782  18.228  17.290  11.318 -0.0245 -0.1134 -0.1423
14599W        W30783   9.029   4.140   3.160 -0.4382  0.3514 -0.3676
14600W        W30784   7.752   6.178   1.797 -0.0043  0.0592  0.0486
14601W        W30785  14.564  15.038  11.031  0.0219 -0.1107 -0.1400
14602W        W30786   2.779  11.627  12.013  0.1369 -0.0483 -0.1705
14603W        W30787  12.116  11.107   4.322  0.0487 -0.3418  0.0149
14604W        W30788   6.618   5.533   1.961 -0.1586 -0.3046 -0.0090
14605W        W30789   2.818  12.052   4.917 -0.0136  0.1300  0.0311
14606W        W30790  15.736   9.224  12.557  0.0319 -0.1963 -0.0585
14607W        W30791  10.076   5.823   1.268  0.0579 -0.0935  0.1051
14608W        W30792  10.559   7.610  15.200  0.1299 -0.1676  0.1816
14609W        W30793  13.842  15.339  14.425  0.0256  0.3479 -0.0466
14610W        W30794   0.030   4.290  14.044 -0.0209  0.2177  0.1683
14611W        W30795  11.240   8.505   1.472  0.1342  0.0504  0.0388
14612W        W30796   5.989   6.598   3.955 -0.0585  0.1117 -0.0790
14613W        W30797  11.333   1.412  14.215 -0.2400 -0.0284  0.0535
14614W        W30798   1.223  12.172   3.636 -0.0619  0.3348 -0.3022
14615W        W30799   4.285  11.770  12.100  0.1146 -0.0681 -0.1804
14616W        W30800  12.222  14.201  13.459  0.1154  0.1047  0.3320
14617W        W30801   8.961   1.268  10.807 -0.0759 -0.0568  0.1797
14618W        W30802  11.995   4.109  11.599  0.1574  0.0240  0.0259
14619W        W30803   8.479   8.783  13.181  0.2062  0.0151 -0.2374
14620W        W30804  17.119   4.633  13.958  0.3172  0.3441  0.3689
14621W        W30805   3.628  13.804   0.687 -0.0019  0.1224  0.4025
14622W        W30806   7.463  10.561  14.987 -0.3299 -0.1045 -0.0054
14623W        W30807   8.247  11.997   2.963  0.2693  0.1129 -0.0260
14624W        W30808   8.825  10.240  12.043  0.1762 -0.0231  0.0971
14625W        W30809  14.509   1.195  11.205  0.0672  0.1151 -0.0715
14626W        W30810  15.369   0.908  10.996  0.2682 -0.2279  0.0002
14627W        W30811   8.005  15.340   2.777 -0.0688 -0.0630 -0.0312
14628W        W30812   9.505  16.486  12.353 -0.2486  0.1051 -0.1303
14629W        W30813  14.650   9.401  13.870  0.0540 -0.0064  0.1066
14630W        W30814   1.153   3.850   0.775 -0.1130  0.1195 -0.1584
14631W        W30815  10.175  17.679  10.891  0.0119 -0.2230  0.0049
14632W        W30816   3.589  10.526  12.972 -0.0496 -0.0550  0.2941
14633W        W30817  11.281  17.350  11.870 -0.1832  0.1095  0.3161
14634W        W30818   9.748   9.323   0.932 -0.2412 -0.0672 -0.2202
14635W        W30819   2.200  10.170  13.420  0.0591 -0.1336 -0.0914
14636W        W30820  12.217  18.390  14.021  0.2946  0.0828  0.0734
14637W        W30821   4.893  12.180   0.618 -0.1539  0.0309 -0.1257
14638W        W30822   8.186   6.219  12.263  0.3048 -0.2843  0.0128
14639W        W30823  11.713  17.431  12.334  0.1798 -0.2339 -0.1228
14640W        W30824  14.048   8.387  13.283 -0.0745  0.1388 -0.0619
14641W        W30825   7.481   1.418   4.070 -0.1091 -0.1495 -0.0466
14642W        W30826   0.068   2.430  11.311  0.2447  0.1679  0.0168
14643W        W30827  10.617   0.245  14.066 -0.0419  0.0579  0.1309
14644W        W30828   9.590   4.701  13.674 -0.0444  0.3098 -0.0028
14645W        W30829  15.356   2.678   3.389  0.0235  0.0589 -0.3472
14646W        W30830  12.127   5.096  13.398  0.0088 -0.1035 -0.3892
14647W        W30831  14.523   8.189   6.330 -0.0361 -0.2325 -0.3770
14648W        W30832  11.122   8.063   1.071 -0.2327  0.6981 -0.2018
14649W        W30833   3.949  13.699  12.184 -0.2020  0.1446  0.2881
14650W        W30834  11.201   8.117  14.806  0.1224  0.0814  0.3686
14651W        W30835   2.424  12.327   0.632 -0.1910 -0.2173 -0.3089
14652W        W30836  15.617  16.974  15.846 -0.0868  0.0018 -0.0649
14653W        W30837   1.875   7.112  15.499  0.2389  0.1066  0.0025
14654W        W30838  18.070   5.459  13.824  0.0813 -0.2339 -0.0747
14655W        W30839   2.066  17.511   1.870 -0.0235  0.0984  0.2961
14656W        W30840   0.662   1.859   0.387  0.0664 -0.0902 -0.1068
14657W        W30841   6.722  16.117  12.927 -0.2564 -0.1267  0.1640
14658W        W30842   5.855  15.555  10.320 -0.2214 -0.0127  0.0942
14659W        W30843   1.159  15.472   3.556  0.0181  0.3866 -0.2311
14660W        W30844   5.581  16.010   2.880  0.0491 -0.0741  0.1780
14661W        W30845   5.090  14.722  14.944  0.1487 -0.4797  0.1327
14662W        W30846   2.050   2.149   2.501  0.4685  0.2082  0.1231
14663W        W30847   1.701  14.819  14.438  0.0374  0.1489  0.1458
14664W        W30848  13.094   0.261   1.645  0.1575  0.1952 -0.0446
14665W        W30849   4.698  18.260  11.040 -0.5359 -0.2541 -0.1376
14666W        W30850  17.113   4.167  11.212  0.0119 -0.1601  0.1829
14667W        W30851   5.443  14.271  14.311 -0.0574 -0.0486  0.0381
14668W        W30852   8.373  10.393  12.045  0.2482 -0.1817 -0.0077
14669W        W30853   0.354   3.865  11.003  0.1909  0.0221 -0.1461
14670W        W30854  14.570   2.999   1.135 -0.1171  0.2226 -0.0733
14671W        W30855  16.822   1.076  14.505  0.1708 -0.3403  0.1743
14672W        W30856  10.424   6.491   5.070  0.0513  0.2472 -0.1504
14673W        W30857   4.688  14.567  14.761  0.0342  0.0310  0.0265
14674W        W30858  16.850   1.154  11.169  0.0944 -0.3080  0.2392
14675W        W30859  11.561   3.148   0.765  0.1897 -0.2345  0.0059
14676W        W30860  16.251   5.083  15.317  0.0804  0.0196 -0.1101
14677W        W30861   7.988  15.840   5.086 -0.1322  0.2042  0.2198
14678W        W30862  17.597  11.230   1.714  0.0774 -0.3800  0.2594
14679W        W30863   6.404   5.055  12.308  0.0323 -0.0150  0.2045
14680W        W30864  17.528   8.953  14.402  0.1174  0.1221  0.2283
14681W        W30865  11.430  10.136  15.701 -0.1193 -0.0435  0.1207
14682W        W30866   8.978  11.331  15.917  0.0946  0.1696  0.1129
14683W        W30867  11.497  15.779  11.588  0.0473 -0.3086 -0.0589
14684W        W30868   6.333   8.182  12.027  0.2241 -0.0907  0.1824
14685W        W30869   8.725  14.765   0.193  0.2243  0.1004  0.2236
14686W        W30870  16.719  15.454   1.272 -0.1333  0.1506 -0.1187
14687W        W30871   3.619  12.156   2.921  0.2003 -0.2438  0.1412
14688W        W30872   3.534  13.374   4.884  0.1105  0.1401 -0.0895
14689W        W30873  18.119  10.973   0.740 -0.1394  0.2038  0.1627
14690W        W30874   6.299  13.332  15.963 -0.0174 -0.0064 -0.1148
14691W        W30875   6.073  11.286   0.969 -0.2971 -0.3692 -0.1701
14692W        W30876  17.995   1.440   3.707  0.0667  0.0879  0.0241
14693W        W30877   0.941   1.094   0.358  0.1976 -0.1771 -0.3024
14694W        W30878   6.912   5.914  16.075  0.0531 -0.0637  0.2889
14695W        W30879   5.300   1.988  11.129  0.0661  0.1340  0.1772
14696W        W30880   5.667   9.570   5.348 -0.0747 -0.1689 -0.1156
14697W        W30881  13.021  13.041  12.277 -0.3315  0.0883  0.0033
14698W        W30882   5.802   6.790  13.120 -0.2149 -0.1516  0.1857
14699W        W30883  12.750   8.847   5.077  0.1987  0.3420  0.1965
14700W        W30884  13.422   1.581   0.291 -0.0030 -0.0584  0.0770
14701W        W30885   4.944  15.095   3.613  0.2014  0.2748  0.2176
14702W        W30886   3.947   4.720   3.068  0.2688  0.2058 -0.1310
14703W        W30887   7.234   6.559   2.525 -0.1086  0.1976 -0.4101
14704W        W30888   9.073   0.495  14.703  0.0877 -0.1259  0.2090
14705W        W30889  12.951  14.053   0.715  0.1531 -0.2675  0.2178
14706W        W30890  10.268   0.363   5.569  0.1006  0.0905  0.1573
14707W        W30891  16.608   5.903   1.510 -0.0155  0.1054 -0.1705
14708W        W30892   7.749  18.106  13.087  0.0385  0.4032 -0.1044
14709W        W30893   8.979   0.521   2.087 -0.0287  0.3290  0.1001
14710W        W30894  14.481   0.633  13.056  0.1224 -0.2631 -0.2232
14711W        W30895   4.014  12.130  11.844  0.0799 -0.0787 -0.0286
14712W        W30896  16.239  10.608   5.188  0.1406 -0.0667 -0.3383
14713W        W30897   7.348  13.817   4.304 -0.3358 -0.0183 -0.0791
14714W        W30898  10.364   6.016   3.410 -0.4028 -0.1719  0.1083
14715W        W30899   3.540   5.394  10.023  0.0542  0.2375  0.0146
14716W        W30900  18.051  17.385  13.112  0.1421  0.3672 -0.1752
14717W        W30901  12.485   0.073   6.038 -0.1996 -0.0409  0.1135
14718W        W30902  12.725   2.496   2.354  0.1796 -0.2005 -0.1519
14719W        W30903   9.642   1.010   1.078 -0.3599  0.0058  0.2838
14720W        W30904   4.673  15.099   0.754  0.2585  0.2736  0.1472
14721W        W30905  16.553  16.062   3.874 -0.0328 -0.0790  0.0779
14722W        W30906   2.548  12.387  14.376 -0.1708  0.0281 -0.3823
14723W        W30907   9.496  10.306   3.789 -0.1571  0.0128  0.1094
14724W        W30908   6.197  13.606   0.580  0.0859 -0.1040  0.1095
14725W        W30909   4.756   4.056   4.966 -0.0052 -0.0642  0.1603
14726W        W30910   7.107  12.470   3.777 -0.1101 -0.1879  0.0713
14727W        W30911  10.389   5.085   3.370 -0.0319 -0.1876  0.3649
14728W        W30912  10.037   0.108  15.330  0.1406 -0.0502 -0.1148
14729W        W30913  16.934  10.130   5.469  0.2563 -0.1260  0.2962
14730W        W30914   5.098   6.281   1.205  0.2297  0.0309 -0.3538
14731W        W30915   5.484  11.322   2.969 -0.1809  0.3427  0.0706
14732W        W30916  10.637  14.783   4.401 -0.1123  0.0984  0.2396
14733W        W30917  16.760  16.555   3.868 -0.0631  0.1111 -0.1129
14734W        W30918   1.374  14.680  13.635 -0.1436 -0.0331 -0.0441
14735W        W30919  11.079   4.402   2.369 -0.0756  0.1272 -0.2043
14736W        W30920  10.609   2.601  12.836 -0.2787 -0.1823 -0.1929
14737W        W30921   2.440   4.244   3.276 -0.3647 -0.1023 -0.0277
14738W        W30922   7.297   0.819   0.477 -0.1159  0.1440 -0.1194
14739W        W30923   7.897  16.478   2.048 -0.2074 -0.0932  0.1555
14740W        W30924  13.905   9.411  14.811  0.1997 -0.2652 -0.0063
14741W        W30925   2.346   3.335  11.982  0.1483 -0.2133 -0.0243
14742W        W30926  14.701  13.193  15.698  0.2097 -0.2776  0.4934
14743W        W30927   5.304  17.260  14.096 -0.0137 -0.0171  0.1244
14744W        W30928   7.357  17.469  16.046  0.1485  0.1892  0.2256
14745W        W30929   5.786  11.695  13.725  0.2237 -0.1051  0.1824
14746W        W30930   0.527  17.235   0.762 -0.1649  0.1835 -0.1256
14747W        W30931  18.453  12.810   1.374  0.0372  0.1061 -0.1470
14748W        W30932  16.680   1.623  13.470 -0.2064 -0.2640 -0.4419
14749W        W30933   2.111   3.107   0.659  0.1200  0.2844  0.1178
14750W        W30934   9.436   6.867  15.821  0.6012  0.0189  0.0038
14751W        W30935  13.750   1.816  12.165  0.0689  0.0099  0.1418
14752W        W30936  15.368   5.851  14.763  0.1169 -0.0832 -0.0659
14753W        W30937   0.482   9.199  11.343  0.2211  0.0636  0.1073
14754W        W30938   3.728  11.460  14.403  0.4759  0.1142 -0.0107
14755W        W30939  13.655   9.046   0.314  0.0163  0.1483  0.0247
14756W        W30940   3.796   9.492   0.718 -0.0694 -0.0141 -0.0078
14757W        W30941  15.975  11.314  12.285 -0.1757  0.1223 -0.2145
14758W        W30942   9.106  10.578  12.734 -0.1258 -0.2435  0.0114
14759W        W30943   1.354   1.175   4.604  0.1737 -0.0790  0.1729
14760W        W30944   0.057   7.101   0.578  0.1209  0.1934 -0.0694
14761W        W30945   7.187   8.080   2.834  0.0772 -0.0724 -0.0489
14762W        W30946   9.952  17.928   3.823  0.0595  0.0013 -0.0569
14763W        W30947   6.513   7.846  11.087  0.3250  0.0718  0.1181
14764W        W30948  10.021   8.077   4.609 -0.2228 -0.1608 -0.3592
14765W        W30949   1.888  10.352  14.949  0.0083 -0.0898 -0.0874
14766W        W30950   9.550   1.317   2.215 -0.3190 -0.2871  0.1938
14767W        W30951   6.269   3.023  11.431 -0.1556 -0.0556  0.0991
14768W        W30952  14.732   6.282   4.393 -0.1493  0.1338 -0.3416
14769W        W30953  10.400  13.215  14.883  0.0202 -0.0822  0.1567
14770W        W30954   9.153   4.891  14.934  0.1444  0.0094 -0.2178
14771W        W30955  11.808   5.646   3.520  0.2135  0.0346  0.1439
14772W        W30956   1.848   1.567  13.915 -0.1061  0.1446 -0.1120
14773W        W30957   6.725   8.179  14.595 -0.1801 -0.0775 -0.1780
14774W        W30958  12.066   5.883  12.702 -0.2311  0.1875 -0.1899
14775W        W30959  17.330  11.926  10.516  0.0668 -0.1560 -0.0410
14776W        W30960   0.130   2.247   5.465 -0.1235 -0.1170  0.1128
14777W        W30961   4.387   8.097   3.430 -0.2633 -0.0818  0.2615
14778W        W30962  14.014   0.499   0.490  0.2251  0.0882  0.0760
14779W        W30963   1.150   4.943  13.722  0.0729  0.3716 -0.0377
14780W        W30964  11.611   7.220  13.777  0.0895 -0.1389  0.0485
14781W        W30965   6.351   7.387  12.557  0.1054 -0.2170  0.1010
14782W        W30966  17.732   9.071   2.197 -0.1467  0.2564 -0.0011
14783W        W30967   4.785  13.149   3.835 -0.0601  0.0253  0.1986
14784W        W30968  17.285  18.409   4.211  0.0262  0.1337  0.2084
14785W        W30969   8.606  10.303   3.566  0.1502 -0.3074  0.0747
14786W        W30970   4.176  14.246  13.383  0.0103  0.1521 -0.2422
14787W        W30971   3.633  10.542   4.584  0.0230 -0.0241 -0.1754
14788W        W30972  14.256   6.392  14.469 -0.0447  0.0155 -0.0861
14789W        W30973   3.078   6.382   0.474 -0.2640 -0.0276 -0.0913
14790W        W30974   6.785   6.135  12.577  0.0639 -0.1888  0.2761
14791W        W30975   6.027  15.375   0.891 -0.0654 -0.0378  0.0861
14792W        W30976   5.521  15.971   4.346  0.1677  0.0880  0.1236
14793W        W30977   5.108   6.150   2.172  0.2188 -0.1666 -0.0652
14794W        W30978  14.911   7.429  12.031  0.2038 -0.1080  0.2059
14795W        W30979   2.268  17.507   3.048 -0.2520  0.2045 -0.1128
14796W        W30980   9.770  14.525   4.644  0.1425  0.1215 -0.0977
14797W        W30981   2.278  11.978  15.564  0.0628  0.1746 -0.2141
14798W        W30982  15.590  18.485   4.705  0.1564 -0.1239 -0.1546
14799W        W30983   6.308   5.954   2.595  0.3398  0.1787 -0.5190
14800W        W30984  11.356   6.125   6.042  0.1643 -0.1190  0.0562
14801W        W30985  11.439   3.080  11.808  0.0527  0.0877  0.2639
14802W        W30986   8.524  10.435   0.024  0.0594 -0.2868 -0.1470
14803W        W30987   3.892   9.574  11.958  0.2874 -0.0284 -0.1743
14804W        W30988   0.534  10.639  14.682  0.0805  0.3171 -0.0294
14805W        W30989   9.420   2.139   4.894 -0.1593  0.1907  0.0544
14806W        W30990  11.621   9.105  16.005  0.1886 -0.2527 -0.0706
14807W        W30991  17.004  17.176   4.732 -0.2110 -0.2893  0.0284
14808W        W30992   3.412   5.184  15.005 -0.0205 -0.0830  0.0699
14809W        W30993   7.589   9.036   5.820  0.1966  0.3887  0.0030
14810W        W30994   6.501   9.430  15.621  0.1827 -0.3582  0.0581
14811W        W30995   8.479  16.556   1.906  0.2735 -0.3738 -0.2037
14812W        W30996   9.055   5.544  15.535  0.2173  0.0148 -0.0035
14813W        W30997  14.879   5.979  16.120 -0.0138  0.1212  0.0417
14814W        W30998  10.475   1.118  13.487  0.2162  0.3092  0.0180
14815W        W30999   1.642  13.983  11.747 -0.1298 -0.2227 -0.0495
14816W        W31000   7.294   2.323  11.200  0.3943  0.1663  0.0104
14817W        W31001  10.528   0.172  11.750  0.0111  0.1286  0.1868
14818W        W31002  15.508   7.516  13.419 -0.0242  0.1962  0.3692
14819W        W31003  17.207   7.384  12.123 -0.1247 -0.2408  0.2023
14820W        W31004  12.360  16.703   1.490  0.1368  0.1293  0.0877
14821W        W31005   6.759   5.010  14.467 -0.0381 -0.1502  0.1167
14822W        W31006   9.713   2.123  15.856  0.1812 -0.0735  0.2063
14823W        W31007  12.108  16.695  12.868  0.1114  0.1050 -0.1498
14824W        W31008   7.334   4.959   5.557 -0.2070 -0.1153 -0.0193
14825W        W31009   3.448  16.109  15.098 -0.3274  0.0008 -0.0267
14826W        W31010  15.665   0.539   2.350  0.0129 -0.2025 -0.4440
14827W        W31011  12.300   4.170  13.227  0.1141 -0.0421  0.1732
14828W        W31012   8.931  16.998  13.387 -0.2258  0.0304  0.1403
14829W        W31013   8.375  12.599  11.184  0.0632  0.0964 -0.2843
14830W        W31014   8.398  11.722  13.193  0.1255  0.1607  0.1620
14831W        W31015   4.431  14.759   2.209 -0.0339 -0.3582  0.0770
14832W        W31016  13.324   7.080   2.215 -0.0720 -0.0324 -0.2581
14833W        W31017  15.184   9.274   4.416 -0.2964  0.1873 -0.2492
14834W        W31018   2.952   2.329   9.948  0.0596 -0.0636 -0.1101
14835W        W31019  17.107  17.310   0.434 -0.0312 -0.3115 -0.0875
14836W        W31020  15.459  16.888  14.950 -0.1322  0.1237  0.0360
14837W        W31021  15.185  13.611  15.311 -0.2400 -0.2098  0.0091
14838W        W31022  13.579  13.856   5.296  0.0644  0.1742  0.0304
14839W        W31023   4.650  13.368  12.704 -0.1513 -0.2258  0.1454
14840W        W31024  16.274  16.881  12.308 -0.2785 -0.0483 -0.2731
14841W        W31025   5.446  15.420  15.091  0.0406  0.2919  0.1143
14842W        W31026   3.390  12.503  12.733 -0.2525 -0.0995  0.1878
14843W        W31027  15.111  14.487   2.722 -0.1992 -0.0066 -0.0355
14844W        W31028   7.539  16.597  13.997  0.1816  0.0023 -0.0381
14845W        W31029  12.539  16.526  13.093 -0.0934  0.1158  0.1777
14846W        W31030   0.825   1.148   9.647 -0.0649 -0.0411  0.0448
14847W        W31031  11.740   6.450  13.283  0.3995 -0.0934  0.2775
14848W        W31032   8.054   2.791  13.341 -0.2130 -0.1518 -0.0546
14849W        W31033  16.330  15.251   2.923  0.0576 -0.1297 -0.1582
14850W        W31034   3.845  16.579  15.559  0.1966 -0.2926 -0.1446
14851W        W31035  13.521   9.130  15.955 -0.0584  0.0563 -0.0927
14852W        W31036  12.107   5.566   5.733  0.4187 -0.1132 -0.2062
14853W        W31037  12.200  16.339   1.972  0.0410 -0.2467  0.0726
14854W        W31038  12.587  12.643   3.338  0.0897  0.1653  0.1780
14855W        W31039  16.958  13.342  12.415 -0.3284 -0.2551  0.1878
14856W        W31040   5.991   3.115   2.560  0.3112 -0.0075 -0.1040
14857W        W31041  10.862   4.498   4.458  0.1248 -0.0790 -0.2038
14858W        W31042   8.665   7.589   2.844  0.2148  0.0333 -0.3287
14859W        W31043   8.247   4.624   5.504 -0.1929 -0.0884  0.1727
14860W        W31044  14.039  14.534   2.742 -0.0196 -0.0330 -0.0953
14861W        W31045  14.959   0.049  15.856  0.1529 -0.1325 -0.1006
14862W        W31046   7.388   6.512   4.625 -0.0275  0.0986 -0.0451
14863W        W31047   0.253   0.589   0.026 -0.1176  0.1864 -0.3273
14864W        W31048   8.264   6.554  15.153 -0.2865 -0.1511  0.1179
14865W        W31049   4.844   7.905  13.628  0.1029 -0.0717 -0.0059
14866W        W31050   2.323   8.888  12.292  0.4368 -0.1678 -0.1856
14867W        W31051  18.315  18.512  11.354 -0.1096 -0.0185  0.0979
14868W        W31052   5.847   8.745  12.656 -0.0125 -0.1151  0.4479
14869W        W31053   1.467   3.475   2.970  0.2165 -0.0947 -0.1736
14870W        W31054  18.335   7.189  11.383  0.0369 -0.0148 -0.1401
14871W        W31055   9.519  10.299   0.002  0.0482  0.0627 -0.3315
14872W        W31056   6.398   0.541  10.782 -0.1230  0.0905  0.2281
14873W        W31057  15.525  12.820  15.149  0.1008  0.0519 -0.0697
14874W        W31058  17.844  17.057  12.656 -0.3312  0.1241  0.2407
14875W        W31059   5.536   3.890   2.889  0.2829 -0.0397 -0.2010
14876W        W31060   4.736  10.703  16.102  0.0198 -0.1286 -0.0983
14877W        W31061  16.330   0.651   0.810  0.0353  0.0152 -0.1128
14878W        W31062  11.512   9.280  14.491  0.0214  0.0763 -0.6063
14879W        W31063  16.064  15.680  11.959 -0.4363 -0.0485 -0.2223
14880W        W31064  16.466   2.257   3.018  0.0583 -0.1893 -0.0096
14881W        W31065  17.865   3.328   4.465 -0.1420 -0.1153  0.0024
14882W        W31066  16.621  11.734   1.812 -0.0899 -0.3348  0.2173
14883W        W31067  17.571  11.469   2.639  0.1569 -0.2275  0.3724
14884W        W31068   4.037   2.251  13.238 -0.0669  0.2474  0.3074
14885W        W31069  14.936  10.621   2.771  0.1915  0.0392 -0.0477
14886W        W31070  16.945  17.920   3.936 -0.0158  0.1892 -0.1131
14887W        W31071   0.872  10.690  13.053 -0.0857 -0.0744  0.2666
14888W        W31072   1.448   9.048   4.496  0.0270 -0.3664  0.0376
14889W        W31073   1.231  16.242   0.645  0.1649 -0.0055  0.3019
14890W        W31074   3.369   0.851  13.341 -0.2496 -0.0642 -0.3888
14891W        W31075  18.475   5.161   5.612 -0.0533  0.2187 -0.1192
14892W        W31076  12.324  15.064  15.003 -0.4306  0.0451 -0.1794
14893W        W31077   7.851   8.561   3.137  0.1653 -0.1572 -0.1420
14894W        W31078  18.101   4.763  15.510  0.0730  0.0642 -0.1053
14895W        W31079  10.760   0.965   0.112 -0.1565 -0.0923 -0.3186
14896W        W31080   4.844   2.643   0.161 -0.3090 -0.2765 -0.1023
14897W        W31081   5.227   1.266   0.587  0.0750  0.2163  0.3440
14898W        W31082  15.989  17.343   1.560  0.5644 -0.1200 -0.1908
14899W        W31083  15.625   8.898  15.408 -0.1973 -0.0171 -0.2681
14900W        W31084  12.312  16.991  11.323  0.0557 -0.0100 -0.0322
14901W        W31085  17.143  11.411  14.335  0.0542 -0.1120 -0.0580
14902W        W31086   1.757  14.731  15.968 -0.0472  0.1880 -0.0803
14903W        W31087  15.588   6.851  13.359  0.2680 -0.1753  0.1647
14904W        W31088   6.905  16.087  15.685 -0.3006 -0.1644  0.2694
14905W        W31089  12.914   9.864  14.614  0.0207 -0.4753  0.1976
14906W        W31090   7.996   8.068   3.249  0.0153 -0.1727 -0.0607
14907W        W31091  10.411  11.945   5.353  0.4382 -0.3911 -0.2563
14908W        W31092   7.774   8.263   0.353 -0.0192  0.2782 -0.3238
14909W        W31093  12.629   8.658  11.859  0.1005  0.0002 -0.0836
14910W        W31094   1.226   6.772   0.067  0.0720  0.0527 -0.1331
14911W        W31095  13.836  15.633   1.230  0.1029 -0.2800 -0.0586
14912W        W31096   3.017  16.523  15.381 -0.2416  0.0249  0.1174
14913W        W31097  15.269   6.410  12.229  0.0357 -0.2888 -0.2870
14914W        W31098  16.180  11.302   3.211  0.0541 -0.0764 -0.0154
14915W        W31099   2.441  13.993  16.053  0.1246  0.1397  0.0609
14916W        W31100   9.057   0.216  15.132 -0.1655  0.2002  0.3258
14917W        W31101  10.678   3.539   5.281  0.1666  0.3351 -0.0207
14918W        W31102   2.204   7.754   3.532  0.3122  0.1023 -0.0956
14919W        W31103   7.763   2.373  11.035  0.1130 -0.0599  0.0759
14920W        W31104   0.426  10.539   5.351  0.1730 -0.2020  0.1272
14921W        W31105   5.502   1.818   2.346  0.5245  0.1247 -0.0955
14922W        W31106  13.331   6.078   2.612 -0.2779  0.0284  0.2268
14923W        W31107   7.227  18.307  15.833  0.0619  0.0757 -0.2123
14924W        W31108  15.232  16.446   2.338  0.1717  0.0254 -0.0201
14925W        W31109  15.071  14.996   0.600  0.0252  0.2364  0.1329
14926W        W31110   1.741   9.280   1.830 -0.2599  0.0350  0.0078
14927W        W31111   1.030  16.543  13.588 -0.1729  0.3278  0.1640
14928W        W31112   4.215   6.190  12.845 -0.0099  0.0986  0.0596
14929W        W31113   6.782   0.778   3.957 -0.2192  0.2547 -0.2943
14930W        W31114   7.837   2.578  14.054 -0.3506 -0.0051 -0.2632
14931W        W31115  12.477  10.006   0.109  0.3390  0.1197 -0.1207
14932W        W31116  18.366   4.073  10.792 -0.2713 -0.2841 -0.1751
14933W        W31117   3.399   8.195   0.635 -0.2893  0.2189 -0.1926
14934W        W31118   8.502  14.380  15.030  0.1050  0.1453  0.0884
14935W        W31119  17.144  17.916   2.393  0.0958 -0.3350 -0.0736
14936W        W31120  15.930   5.583   4.450  0.1947  0.1762  0.5233
14937W        W31121  12.171  10.542   0.818 -0.2364 -0.2489 -0.0952
14938W        W31122  11.431  16.798  12.655 -0.0711 -0.4212  0.1301
14939W        W31123   0.051   2.447  13.799  0.0325 -0.0032  0.0436
14940W        W31124   4.539   5.827  12.737 -0.2919  0.1578 -0.0550
14941W        W31125   0.601   1.894   1.430 -0.1092  0.2155  0.0454
14942W        W31126  16.611  13.512   1.453  0.0471  0.4206  0.0278
14943W        W31127   8.773  16.071   3.927 -0.0265 -0.0131 -0.1416
14944W        W31128  16.400   5.539   4.431 -0.0763  0.2318 -0.2223
14945W        W31129  13.208   2.127  16.005 -0.0911 -0.0377  0.2567
14946W        W31130  12.892  17.426  14.603  0.2505 -0.0950 -0.0176
14947W        W31131   9.126  12.260   2.499 -0.0200 -0.1546 -0.1611
14948W        W31132   4.206   8.717   2.093  0.2915  0.0386 -0.1928
14949W        W31133  14.358   5.794  11.511  0.4124 -0.1455  0.0008
14950W        W31134   7.651   1.787   2.265  0.0524  0.0835  0.0834
14951W        W31135   6.791   1.411   1.089  0.0044  0.1201 -0.1301
14952W        W31136   4.158   7.458  12.390  0.0893 -0.2168 -0.1268
14953W        W31137  13.596   4.397   1.317 -0.0803 -0.1334  0.5035
14954W        W31138   7.670   4.422  15.009  0.1419 -0.1122  0.1010
14955W        W31139  10.343   4.950   5.340  0.3454 -0.1674  0.1728
14956W        W31140  18.369   5.951   0.481 -0.2172  0.0712  0.0497
14957W        W31141  17.842   3.237   0.722 -0.0818 -0.0926 -0.0980
14958W        W31142  18.023   4.186   5.365  0.2123 -0.0843 -0.1349
14959W        W31143  17.820   3.425  11.033 -0.0864  0.5017 -0.0797
14960W        W31144  18.031  17.291  10.830 -0.1140 -0.3256  0.3157
14961W        W31145   5.254  10.932   3.153 -0.1131 -0.0606  0.1421
14962W        W31146  18.084   5.083  13.409  0.1341  0.0218 -0.1548
14963W        W31147   3.975  16.220  13.306  0.0445  0.2070  0.1520
14964W        W31148  14.633  16.577   5.285 -0.2189  0.3984 -0.3336
14965W        W31149   0.188   1.627   3.705  0.1116  0.4563  0.0734
14966W        W31150   5.166  17.189   3.657 -0.1223 -0.0651  0.0501
14967W        W31151   7.668   2.706  12.396 -0.0053  0.4742  0.2610
14968W        W31152   0.714  18.083   5.202 -0.1897  0.1480  0.1787
14969W        W31153  13.257   3.945  15.960 -0.1106  0.2521 -0.2114
14970W        W31154   7.937  14.399  13.085 -0.4402 -0.0958  0.0171
14971W        W31155   1.628   3.778  11.760  0.1577 -0.3443  0.0401
14972W        W31156   6.193   1.855  14.828 -0.0670  0.3597  0.0830
14973W        W31157  17.523  14.487  14.904  0.0236 -0.0774  0.2075
14974W        W31158  17.058  16.533  11.436 -0.1572  0.2486  0.2901
14975W        W31159   9.170  18.129   5.297 -0.1042  0.0647  0.1222
14976W        W31160  13.319   8.711   0.441  0.0414 -0.0411 -0.0022
14977W        W31161  12.517  18.097   5.959  0.0383 -0.0493 -0.1633
14978W        W31162  12.153  16.702   4.663 -0.1843  0.1894 -0.0515
14979W        W31163   8.605  13.364   6.084  0.0243 -0.2106  0.2337
14980W        W31164   2.082  17.617  14.573  0.0412  0.1150  0.1277
14981W        W31165   0.785  17.416   2.768  0.1668 -0.1960 -0.1084
14982W        W31166   3.092   1.569   1.899  0.1019 -0.1269  0.0110
14983W        W31167   0.950   7.743  12.839 -0.1563 -0.4462 -0.1826
14984W        W31168   4.067  17.490   0.583 -0.0305  0.3503  0.0714
14985W        W31169   4.006  11.273   3.980 -0.0585 -0.2694 -0.2531
14986W        W31170  18.222  16.674   3.914 -0.3360 -0.0644 -0.1702
14987W        W31171   8.054  17.364  16.057 -0.0352  0.0863  0.1006
14988W        W31172   8.658  16.483  15.435 -0.0007  0.0457  0.1855
14989W        W31173   8.503   9.875  11.949  0.1268  0.1464 -0.0502
14990W        W31174   2.128   9.693  15.341 -0.0473 -0.2646  0.1314
14991W        W31175   9.403  12.588   1.424 -0.0797 -0.0922 -0.1584
14992W        W31176   0.312  10.051  15.503  0.1746  0.0480 -0.1433
14993W        W31177  16.204   1.756   1.732  0.0738  0.0346 -0.1096
14994W        W31178  14.547  15.223   4.407  0.1405 -0.1123 -0.3082
14995W        W31179  18.142   3.479  12.394  0.0037  0.2451  0.3192
14996W        W31180   1.522   2.303  15.055  0.1701 -0.0695 -0.0186
14997W        W31181  16.354   7.284  11.398  0.1192  0.0159 -0.2519
14998W        W31182  10.601  14.255  12.373 -0.1687 -0.1013 -0.2645
14999W        W31183   5.473  12.447  13.769  0.1814  0.1635  0.2601
15000W        W31184  13.231   8.691  13.294  0.0671  0.1466  0.0137
15001W        W31185   2.980   3.067  15.990  0.2763  0.1054  0.0793
15002W        W31186  17.032   2.066   1.793 -0.3017  0.1223 -0.3916
15003W        W31187   7.618   2.592   3.439 -0.1582  0.0304  0.0242
15004W        W31188  12.896   0.924   4.168 -0.2366 -0.2637  0.4267
15005W        W31189   1.159  17.281  12.294 -0.2554 -0.3839 -0.1627
15006W        W31190   4.857  11.723   5.702 -0.1704 -0.1778  0.4951
15007W        W31191   6.765  17.100   5.549  0.3107  0.0073 -0.1408
15008W        W31192  10.803   3.336   1.768  0.1899  0.1912  0.0911
15009W        W31193   4.400  12.057   3.696  0.0701  0.1973  0.3826
15010W        W31194   9.463  12.566  11.341  0.1770  0.1198 -0.1843
15011W        W31195   5.105   5.906   0.816 -0.0466  0.0299 -0.1662
15012W        W31196  14.251   7.745  12.729 -0.1817 -0.0505 -0.0818
15013W        W31197   6.026   6.914   1.967  0.1894 -0.0133  0.0791
15014W        W31198  17.737   8.619   4.265 -0.0109  0.0678 -0.0283
15015W        W31199  17.172  18.060  14.737  0.0645  0.2448  0.4258
15016W        W31200   7.482  13.892  12.555  0.3485 -0.1035 -0.1674
15017W        W31201  16.861   2.906   3.883  0.2485  0.1548  0.1004
15018W        W31202  14.358  14.404  11.538  0.0514  0.0841 -0.2383
15019W        W31203   8.113   4.690   3.460 -0.0470  0.2630 -0.3941
15020W        W31204   8.283   5.073  12.796  0.2403  0.1889  0.3348
15021W        W31205  13.777   6.183   4.346 -0.0177 -0.1586 -0.2868
15022W        W31206  14.675  11.474  12.363 -0.1714 -0.0986 -0.0484
15023W        W31207   8.126  14.827   3.235  0.1588  0.0138  0.3170
15024W        W31208  11.962  15.526   3.060  0.0318 -0.2062 -0.0432
15025W        W31209  15.887  15.194   5.491 -0.1725 -0.2258 -0.1578
15026W        W31210   9.369  16.020   4.801 -0.3171 -0.3384 -0.2021
15027W        W31211   4.585   7.509   1.189  0.3578 -0.0887 -0.3805
15028W        W31212   2.979  12.389  15.018  0.0245  0.0196 -0.1479
15029W        W31213  13.553  15.695  12.808 -0.1324 -0.1612  0.0784
15030W        W31214  16.044   0.190   4.452 -0.1067 -0.0103  0.2838
15031W        W31215   1.251   0.048  11.561  0.1108 -0.2673  0.1534
15032W        W31216   2.907  15.189   3.579 -0.0080  0.1195  0.3267
15033W        W31217   0.001   4.168   1.725 -0.2775 -0.0802 -0.3588
15034W        W31218   8.653  17.475   1.475 -0.1997 -0.2284 -0.1175
15035W        W31219   0.122  12.906  12.871 -0.1148 -0.0835 -0.4132
15036W        W31220   5.303  12.594   5.391 -0.1820 -0.1281  0.0208
15037W        W31221  18.148   2.825   1.688 -0.1476 -0.0891 -0.0282
15038W        W31222   2.047   0.399  13.595  0.2328  0.0804 -0.1794
15039W        W31223   7.514   4.839   1.545 -0.2068  0.4274 -0.1103
15040W        W31224   2.110  11.310  13.375 -0.0258  0.0218  0.0680
15041W        W31225  10.945  10.059   3.331  0.1690  0.2945  0.3039
15042W        W31226  14.280   2.973   4.018 -0.1964  0.0440  0.0588
15043W        W31227   3.950  12.499  12.954 -0.2588  0.0548 -0.1354
15044W        W31228  16.775   6.529  13.902  0.0888 -0.1890 -0.2494
15045W        W31229  12.221  13.446   5.052 -0.0034 -0.1352 -0.0419
15046W        W31230   3.660  15.696  14.153  0.3101 -0.0053 -0.1919
15047W        W31231   1.165   8.700  14.314  0.0852  0.1069 -0.1973
15048W        W31232  12.088   1.186   3.007  0.0848  0.1417 -0.1557
15049W        W31233  12.822   1.005  14.453  0.1164 -0.3811  0.0339
15050W        W31234  17.698  16.649   4.880  0.0406 -0.0454 -0.2906
15051W        W31235  10.691  12.562  11.838  0.2548  0.0915 -0.0865
15052W        W31236  17.543  17.309  11.783  0.0155 -0.0507  0.2197
15053W        W31237   7.435   7.623  14.636  0.0128  0.0263  0.2251
15054W        W31238   0.611  13.614  13.200 -0.4118  0.1839  0.0353
15055W        W31239   0.614  16.947  12.058 -0.3310  0.2128 -0.0869
15056W        W31240   5.478   2.987   2.684 -0.2198 -0.1743  0.0023
15057W        W31241  13.204   0.119   0.080  0.0781  0.0944 -0.0931
15058W        W31242   7.077   3.682   3.117  0.1591 -0.0035 -0.2114
15059W        W31243  13.635  12.132   0.151 -0.0542 -0.4588 -0.0271
15060W        W31244   5.871   7.691   1.017 -0.0185  0.1408  0.1696
15061W        W31245   6.109  18.439  15.015 -0.2083  0.4182  0.0944
15062W        W31246   9.478   2.748   2.055 -0.1016 -0.0461 -0.2513
15063W        W31247   3.386   3.219  13.697  0.1216  0.0358 -0.1260
15064W        W31248  15.316  13.561   4.073  0.1470  0.3026 -0.0820
15065W        W31249  14.372   5.564   4.157 -0.1626  0.1276  0.0592
15066W        W31250  14.698  18.259   4.553  0.0621 -0.1525  0.0031
15067W        W31251  11.012   3.542   0.227  0.2640  0.0743 -0.1476
15068W        W31252   1.529   9.840  12.778 -0.2968  0.0242  0.0561
15069W        W31253   3.575  15.871  14.594  0.0606  0.0525 -0.3556
15070W        W31254   0.366  10.267  12.248  0.0652  0.0499 -0.0109
15071W        W31255   5.608   8.743   1.823  0.1096  0.0993  0.0420
15072W        W31256  14.437   5.290   4.605  0.0539  0.4028 -0.0423
15073W        W31257   5.339   3.548   6.302  0.0807 -0.1628 -0.3401
15074W        W31258   4.524  13.548   4.790 -0.2376  0.0342  0.0175
15075W        W31259   3.794   3.445   5.595  0.1095 -0.0527 -0.2444
15076W        W31260   3.673   3.014   3.480  0.3664  0.0797  0.0249
15077W        W31261   9.964   0.908   0.328 -0.0424  0.1177  0.2228
15078W        W31262   6.853   2.199  13.967  0.1865  0.2831  0.1793
15079W        W31263   6.282  14.096   3.558 -0.1115  0.1619  0.1886
15080W        W31264  12.177   8.844  11.394  0.2778  0.1645 -0.2336
15081W        W31265  10.143  12.044  14.147  0.2286 -0.2944  0.2231
15082W        W31266  10.746   6.390   3.306 -0.1464  0.0286 -0.0441
15083W        W31267   3.897   0.934  14.828  0.0615 -0.0512 -0.2150
15084W        W31268   0.060   1.403  15.715 -0.5309 -0.3034  0.1452
15085W        W31269  17.924  12.494  11.817  0.1306  0.0149 -0.2914
15086W        W31270  17.162  16.377   1.571 -0.0770  0.0420  0.2310
15087W        W31271  16.391   0.360   4.813  0.2537  0.0188  0.3890
15088W        W31272  13.541   5.300  11.268  0.1019  0.2003  0.2219
15089W        W31273  16.420   2.832   1.051  0.1232 -0.4377 -0.1502
15090W        W31274  10.029   9.676   3.666  0.0798 -0.2836  0.1918
15091W        W31275   1.052  14.359  14.391 -0.1778 -0.3112  0.1498
15092W        W31276  11.616   1.380   4.068 -0.0110  0.2383 -0.0128
15093W        W31277  13.755  18.353   5.255  0.0329 -0.0565  0.1952
15094W        W31278   5.328   2.565  13.148 -0.2360 -0.0991  0.0708
15095W        W31279  10.733  13.639  13.057 -0.2306  0.0589 -0.1329
15096W        W31280  16.350   4.705   3.961 -0.1088  0.0590 -0.1063
15097W        W31281   7.926  13.009   5.317  0.0657 -0.1306 -0.1237
15098W        W31282  14.366  10.285  15.592 -0.1090  0.0573  0.0191
15099W        W31283   8.568   2.369   3.423  0.2580  0.0092 -0.0253
15100W        W31284  17.808   5.138  12.167 -0.3100  0.1046 -0.2042
15101W        W31285   6.898   6.430   6.231  0.0910  0.4678 -0.0626
15102W        W31286   0.388  15.906   4.673 -0.0630  0.1969  0.0515
15103W        W31287   0.245   2.172   3.577 -0.0596 -0.2540  0.1515
15104W        W31288  10.526  10.376   4.605  0.1224 -0.0047 -0.0063
15105W        W31289  16.145   3.872   0.090  0.0440  0.0253  0.1067
15106W        W31290   6.570  15.205  13.989 -0.2084  0.0344 -0.0395
15107W        W31291   2.679  18.361   2.903 -0.2531 -0.2594 -0.0919
15108W        W31292  11.316  15.169  12.649  0.0305 -0.2200  0.1188
15109W        W31293  11.160  12.590  15.252 -0.3008  0.1381  0.0912
15110W        W31294   5.300  17.951  13.101  0.1360  0.1767 -0.3415
15111W        W31295  11.946   0.917   4.303  0.0601 -0.2778 -0.2726
15112W        W31296  18.400  17.872  15.643  0.1592 -0.1609 -0.0799
15113W        W31297  10.459   9.615   5.566  0.0028 -0.1740 -0.1138
15114W        W31298   6.910   6.062   1.280  0.1265  0.1747 -0.3694
15115W        W31299  11.144  17.457   1.765 -0.1110  0.0966 -0.1824
15116W        W31300   7.016  17.843  15.846  0.0395 -0.0085  0.0153
15117W        W31301  16.417  14.348   2.691 -0.1475  0.1962  0.0420
15118W        W31302   5.344  11.956   5.938  0.4318  0.0466 -0.2334
15119W        W31303   4.461   3.200  11.974  0.0366 -0.0248 -0.1253
15120W        W31304  13.729  17.166   3.473 -0.0712 -0.0036  0.2254
15121W        W31305   8.687   6.313  15.229  0.1726 -0.0626  0.2690
15122W        W31306   7.932   9.767  11.299 -0.2123  0.0717  0.2466
15123W        W31307   4.784  16.438  15.510 -0.1663 -0.2212 -0.0633
15124W        W31308  10.532   2.413   0.241  0.0893 -0.1014  0.4046
15125W        W31309  10.324  17.682   1.639  0.1389 -0.0943  0.0385
15126W        W31310  15.573  16.032  12.474  0.1374  0.5643 -0.2525
15127W        W31311  16.358   6.428  14.870  0.1023 -0.2031  0.0122
15128W        W31312   7.907   3.956   3.039 -0.1056 -0.2197  0.1198
15129W        W31313   9.551   7.542  15.617  0.1072  0.1467  0.3133
15130W        W31314  10.349   5.442  15.241  0.1246  0.2757 -0.0434
15131W        W31315   8.343   5.997   4.677  0.0712  0.1384 -0.0457
15132W        W31316  14.042  13.011  13.847 -0.0941  0.2288 -0.0207
15133W        W31317   0.767   0.990   2.674  0.1130  0.2426 -0.1624
15134W        W31318   8.389  18.227  12.156 -0.1180 -0.1732 -0.0429
15135W        W31319  16.273  12.407   1.657 -0.0749  0.1459  0.0969
15136W        W31320   6.525  16.830  15.897  0.3090  0.0444 -0.2099
15137W        W31321   0.778   5.948   3.949 -0.1022  0.2044  0.0275
15138W        W31322  13.484   1.092  14.433 -0.2270 -0.2350 -0.1132
15139W        W31323   9.709   4.645  11.464  0.5188 -0.0634  0.0789
15140W        W31324   8.996  13.429   4.387  0.2945  0.0758 -0.3961
15141W        W31325   7.158  15.526   4.738  0.1880 -0.1746  0.0738
15142W        W31326   5.155   1.992  15.002 -0.1864 -0.2853 -0.0631
15143W        W31327  15.890  15.145   4.590 -0.0040 -0.1077  0.1393
15144W        W31328  12.816  10.927   4.224 -0.0722  0.4021 -0.1539
15145W        W31329  18.115   7.651   4.274  0.2680  0.0975 -0.3031
15146W        W31330   5.534   9.327   4.944  0.1419 -0.3146 -0.1603
15147W        W31331   9.156   8.284   0.721  0.3592  0.0702  0.0130
15148W        W31332  12.720  11.357  13.850  0.0020 -0.2799 -0.1387
15149W        W31333   1.058   6.227  13.258  0.2575 -0.0249  0.2014
15150W        W31334  11.695   1.673  15.569  0.0371  0.0522  0.1055
15151W        W31335  12.600   1.046   4.632  0.0630  0.1602 -0.1376
15152W        W31336   8.190  16.708  10.334 -0.0283 -0.1223  0.0593
15153W        W31337   4.847  18.401  14.950 -0.0881 -0.1121  0.0291
15154W        W31338   8.863   5.854   3.119  0.2383  0.0120  0.0282
15155W        W31339   2.905   5.652  15.363 -0.2443  0.1493 -0.0524
15156W        W31340   0.452   0.388   3.879  0.1664 -0.0667  0.0884
15157W        W31341   9.404   2.325   2.688  0.1559 -0.1314 -0.3030
15158W        W31342   4.204   6.476  15.392  0.1475  0.1767 -0.0290
15159W        W31343   4.955   9.641   3.273 -0.0369 -0.0366  0.3680
15160W        W31344   3.512  12.997  16.128  0.3510  0.4514  0.0702
15161W        W31345   5.866  14.854  16.118  0.0648  0.2151  0.2319
15162W        W31346  12.065  15.749   3.548  0.2133 -0.1287 -0.0961
15163W        W31347  15.781   8.740  12.347 -0.1581 -0.0311  0.0916
15164W        W31348   2.120   0.767  14.246 -0.1967 -0.0282 -0.1254
15165W        W31349   2.689   6.636   9.879  0.1750  0.0502  0.4815
15166W        W31350  13.490   3.085  14.161  0.3830  0.0449  0.0322
15167W        W31351   3.892   3.445  12.775 -0.1444 -0.0706  0.0183
15168W        W31352   4.388   1.131   4.399 -0.0569  0.0375 -0.0766
15169W        W31353   6.919  13.386  14.949 -0.2873 -0.0473  0.3547
15170W        W31354   8.590  13.126   0.372  0.0091 -0.2495 -0.0673
15171W        W31355   8.446   6.414   5.666 -0.3845 -0.2137 -0.2754
15172W        W31356  11.713   4.957  11.143  0.0217 -0.0848  0.1283
15173W        W31357   5.443  10.653  14.229 -0.0107 -0.0024  0.0299
15174W        W31358   4.314  18.397   1.486 -0.4099  0.0397  0.0533
15175W        W31359   9.868   8.553  12.058 -0.1347 -0.3060  0.3097
15176W        W31360  14.121   1.064   5.902 -0.1449  0.2026 -0.0600
15177W        W31361   6.395   4.275   2.023 -0.1601  0.0336  0.4089
15178W        W31362   7.492  15.008  13.828 -0.0260  0.1038 -0.0353
15179W        W31363   0.226   7.456  12.242  0.1922 -0.1887 -0.0093
15180W        W31364  12.187   5.585  12.216  0.1698  0.0249 -0.0488
15181W        W31365   2.951   6.643  14.389 -0.0682  0.0922  0.0489
15182W        W31366   3.783   4.704   1.733 -0.0660  0.1199 -0.0114
15183W        W31367   7.339  17.076  15.677 -0.0199  0.0286 -0.2500
15184W        W31368   3.472   2.014  11.507 -0.3864  0.1447 -0.1797
15185W        W31369  17.087  11.166  14.778 -0.1011 -0.1634  0.3051
15186W        W31370  14.004   7.490  12.339 -0.2528  0.1435 -0.0195
15187W        W31371  16.324   2.246  10.765 -0.1915 -0.2259  0.3874
15188W        W31372   8.092  10.175  15.553 -0.0769 -0.0986 -0.5201
15189W        W31373  10.973  17.956   3.763 -0.3976  0.0222 -0.2404
15190W        W31374   2.430  12.859  14.376  0.0557 -0.3609  0.2566
15191W        W31375  17.864  15.553  15.690 -0.0503  0.0537 -0.3576
15192W        W31376   2.694  15.654   3.469  0.0465 -0.1677 -0.2198
15193W        W31377  11.053  16.897   5.691 -0.1398  0.2444 -0.0234
15194W        W31378  14.132   6.225   5.210  0.1158  0.4888  0.0642
15195W        W31379   9.174  11.108   5.659  0.2283  0.2137 -0.1500
15196W        W31380  14.678   5.540  14.094 -0.0655 -0.0041  0.0439
15197W        W31381   9.778   9.112   5.665 -0.2008  0.1295 -0.2680
15198W        W31382   9.957  13.873  13.040 -0.3306  0.0681 -0.1274
15199W        W31383   0.119  15.936   0.961 -0.0868  0.0566 -0.0502
15200W        W31384  14.189  11.618   4.877  0.0008 -0.0583 -0.0783
15201W        W31385   9.510  14.659  15.099 -0.2556 -0.1861  0.0838
15202W        W31386  14.215  17.763   1.895  0.0690 -0.1419  0.0462
15203W        W31387   5.939   5.053   1.349  0.1631  0.0482  0.1881
15204W        W31388   8.891   0.138   1.742  0.1790 -0.2120 -0.0479
15205W        W31389  15.454   7.041  11.612 -0.0065  0.3258 -0.0276
15206W        W31390   6.266   8.511   2.267  0.2321 -0.0027  0.0098
15207W        W31391   1.790  11.029   5.562 -0.1450  0.3296  0.1820
15208W        W31392   1.168   7.843  15.929  0.0662 -0.1264  0.2157
15209W        W31393   9.058   9.864   6.385  0.1115 -0.1366 -0.0668
15210W        W31394  16.435  15.913  14.051 -0.2126 -0.0748 -0.1454
15211W        W31395  14.797   7.827  13.300 -0.2955 -0.0523  0.1884
15212W        W31396   9.730   9.936   0.318  0.0187  0.1928  0.2002
15213W        W31397  15.379  14.564   4.348 -0.0808  0.0961  0.2531
15214W        W31398   9.047  12.508  12.211  0.1202 -0.3704  0.0537
15215W        W31399   2.562   4.647  10.709 -0.0441 -0.2036 -0.0249
15216W        W31400   3.734   0.694   4.081  0.1584  0.1090  0.1499
15217W        W31401   9.454  14.006  15.569 -0.1972  0.1042 -0.2913
15218W        W31402  12.317  10.384   4.820 -0.1326 -0.3446  0.1649
15219W        W31403   9.353   8.672   2.213  0.2001  0.1273  0.0573
15220W        W31404   7.696   3.303   2.889  0.2149  0.2289  0.0483
15221W        W31405  12.976  14.707   3.480  0.0458  0.3323 -0.0601
15222W        W31406   8.149   8.956  11.782 -0.3110  0.0351  0.1534
15223W        W31407   0.400   6.639   2.165  0.1864 -0.2102  0.0937
15224W        W31408   5.007  13.762  12.828  0.0041  0.2119  0.5767
15225W        W31409  15.321  10.456   3.096  0.2331  0.0261  0.3434
15226W        W31410   6.267   1.312   2.796 -0.0485 -0.1609  0.2082
15227W        W31411  15.654   5.120  15.898 -0.0089  0.0591  0.0670
15228W        W31412  13.017   4.353   3.718 -0.2128  0.1595  0.0716
15229W        W31413  10.307   9.736   1.644 -0.1431  0.1021 -0.0440
15230W        W31414  11.534  13.806   4.833 -0.2559 -0.0936  0.1072
15231W        W31415  18.322  14.430   1.573  0.3484 -0.1449 -0.0481
15232W        W31416   9.389   9.937  13.922  0.1861 -0.0777  0.0646
15233W        W31417   3.794  11.709  12.375  0.1731 -0.0188 -0.1497
15234W        W31418  16.149   4.885   4.464 -0.1037 -0.2065  0.2759
15235W        W31419   3.509  15.951   4.659  0.3567 -0.1222  0.0375
15236W        W31420   4.738   9.003   0.826  0.2843  0.0388  0.1738
15237W        W31421   0.665   7.747   1.823 -0.0229  0.0236  0.2297
15238W        W31422   8.255   1.795   3.241  0.0769  0.0923 -0.1691
15239W        W31423   6.524  17.234  12.234 -0.0971  0.0723 -0.2845
15240W        W31424  15.044   1.111  12.291  0.2422  0.1641 -0.3025
15241W        W31425  14.996  17.182  14.687 -0.0514  0.3254  0.0931
15242W        W31426  15.871   0.819  12.935 -0.0039 -0.0246  0.0076
15243W        W31427   4.965  14.140  14.277  0.0167 -0.0100  0.1536
15244W        W31428  10.687  11.876   3.633 -0.0127 -0.1119  0.3443
15245W        W31429   1.138   4.428  11.962 -0.0913 -0.0255 -0.3855
15246W        W31430  12.364   9.681  13.247 -0.2710 -0.1799 -0.2109
15247W        W31431   2.545  12.456   2.141  0.3951 -0.0354  0.3385
15248W        W31432  13.337  12.025   3.104  0.2663  0.1813 -0.1980
15249W        W31433   4.831   7.509   5.578 -0.0936  0.1449 -0.2255
15250W        W31434  11.305   6.617   1.099  0.1388 -0.1270  0.0708
15251W        W31435  15.228   5.434   2.212  0.1229  0.0617  0.0017
15252W        W31436  10.890  16.126  14.929 -0.2558 -0.0939 -0.1121
15253W        W31437   1.550  12.335   3.191 -0.0207  0.0229 -0.1839
15254W        W31438   4.730   1.958  11.404 -0.1650 -0.1498  0.2676
15255W        W31439   5.797  14.181   1.273  0.0516 -0.1724  0.0678
15256W        W31440   4.052   1.664   5.677  0.3729  0.5360 -0.0369
15257W        W31441  13.602   5.849   2.082 -0.2338 -0.2043  0.1311
15258W        W31442  10.526   6.775  13.902  0.0264 -0.3977 -0.1047
15259W        W31443   1.159  15.992  15.964  0.0486  0.0601 -0.0456
15260W        W31444   8.745   8.903   3.518 -0.0354 -0.0555  0.0299
15261W        W31445   3.689  11.607   2.633  0.1804  0.3433 -0.0573
15262W        W31446  12.464  15.450  13.512  0.4854 -0.0883 -0.0372
15263W        W31447  15.459   6.206  15.179  0.0117 -0.1955  0.2623
15264W        W31448   2.975   4.319  11.528 -0.0612  0.0512  0.0421
15265W        W31449  18.462  18.384   2.573 -0.0238  0.0305  0.2329
15266W        W31450   8.783  14.581   0.703  0.2381  0.0779  0.0611
15267W        W31451   5.368   2.165   1.779 -0.1064 -0.0064 -0.0428
15268W        W31452   2.302  17.843  14.940  0.1946  0.0584  0.0173
15269W        W31453   3.215   0.701   4.588 -0.0029  0.1088  0.0922
15270W        W31454  16.631   0.180  15.983 -0.1364 -0.0492  0.0234
15271W        W31455   6.113   9.752  11.978  0.0386  0.0296 -0.0055
15272W        W31456   1.381   9.623  14.788 -0.0458 -0.2527  0.0969
15273W        W31457  10.333   6.632   3.353  0.0247  0.1039 -0.1118
15274W        W31458   4.891  15.429   2.793  0.3491  0.0068  0.1698
15275W        W31459  12.479   3.914  14.492  0.1904 -0.0219 -0.0779
15276W        W31460   8.533  11.647   5.438  0.2555 -0.0368 -0.0775
15277W        W31461   8.005  16.405  11.805 -0.0030  0.2735  0.3244
15278W        W31462   7.179   3.104  14.547  0.1145  0.1251 -0.0468
15279W        W31463   9.543   9.663  12.384  0.0472  0.3518 -0.0947
15280W        W31464  10.607  12.748   4.973  0.0509  0.0820  0.0160
15281W        W31465  12.069  12.289  14.421 -0.1259  0.2336  0.1291
15282W        W31466   0.480   6.222   1.886 -0.3749  0.5194 -0.0547
15283W        W31467  16.215   7.237  14.120 -0.1055  0.1320 -0.1291
15284W        W31468   2.864   8.692   1.672 -0.1225  0.1755  0.2614
15285W        W31469   5.597   0.489   3.575  0.0568 -0.0023  0.2510
15286W        W31470  16.942  12.869  10.930  0.0541  0.0832  0.3730
15287W        W31471  17.862   7.809  13.280  0.5059 -0.1127 -0.3918
15288W        W31472   0.333  16.102  12.217 -0.0075 -0.1138  0.1591
15289W        W31473   4.921   6.066  14.180  0.1676  0.2780 -0.1388
15290W        W31474  15.680   7.027  15.199  0.1099  0.0707 -0.0298
15291W        W31475   1.117  17.107  14.864 -0.0495  0.1592 -0.0306
15292W        W31476  14.778   2.295  12.834 -0.0042  0.1017 -0.1518
15293W        W31477   9.712  18.380   6.069 -0.1076  0.3959  0.0337
15294W        W31478   1.797   3.471   4.026  0.3479 -0.0389 -0.2212
15295W        W31479   4.265   2.915  14.125 -0.2051  0.0274  0.1581
15296W        W31480  11.561   8.404   1.864  0.0862 -0.3472 -0.1604
15297W        W31481  16.587   7.063   0.218  0.1423  0.2082 -0.4304
15298W        W31482   2.545   5.049   0.072  0.0111  0.2750 -0.0853
15299W        W31483  15.001  12.333  12.307  0.3001 -0.0476 -0.1995
15300W        W31484   1.796   1.975  14.651 -0.0669 -0.0826 -0.0837
15301W        W31485   4.090  10.071   4.675  0.2812  0.1655 -0.1357
15302W        W31486   7.986   5.545  12.071 -0.0559  0.2679  0.0510
15303W        W31487   6.416   4.217  15.088 -0.0615  0.0687 -0.0014
15304W        W31488  17.202   5.815   4.308  0.1001 -0.1718 -0.1233
15305W        W31489   8.368  13.472  10.878  0.5075  0.0602  0.3164
15306W        W31490  12.272   7.949  15.803  0.2183 -0.2105 -0.0261
15307W        W31491   0.883   0.655   9.991  0.2956 -0.1676 -0.3707
15308W        W31492   9.331  12.651   0.837  0.0694 -0.1603 -0.0533
15309W        W31493  18.427  10.549   4.821 -0.2720  0.2080 -0.0269
15310W        W31494   7.082   3.726  11.532  0.1233 -0.0738 -0.2850
15311W        W31495  13.029   3.157  14.574 -0.0369 -0.0029 -0.1315
15312W        W31496   0.841  18.394  14.338 -0.0801  0.0841  0.2424
15313W        W31497  13.168   1.767   1.801 -0.1139 -0.1146  0.1033
15314W        W31498  15.399   9.693  11.194 -0.0427 -0.0490  0.0071
15315W        W31499  10.099   6.389  14.953  0.3436  0.1764  0.1904
15316W        W31500   7.461   0.172  12.389 -0.0990  0.1328  0.0310
15317W        W31501  14.135  14.088  14.105  0.0674 -0.0723  0.0269
15318W        W31502   0.765   5.390  13.553  0.1292  0.2614  0.2460
15319W        W31503  13.038   0.768  12.751  0.2463  0.1172  0.1507
15320W        W31504  15.786   0.643   0.209  0.3327 -0.3399  0.1986
15321W        W31505   5.001  16.005   2.952  0.1221  0.0710 -0.2094
15322W        W31506   0.665  10.104   5.204 -0.1385 -0.0193 -0.1982
15323W        W31507  16.260   6.905  12.325  0.0039  0.2310 -0.2435
15324W        W31508   5.758   6.180   3.059 -0.0096 -0.2150 -0.0206
15325W        W31509  16.615  12.756   1.765 -0.1450 -0.2688 -0.2105
15326W        W31510   2.840   9.618   2.860  0.0560 -0.0736 -0.1813
15327W        W31511  11.410   2.713  11.305  0.2133  0.0171  0.0915
15328W        W31512   1.943  17.863  15.906  0.0931  0.0224 -0.2147
15329W        W31513  11.219  17.940  11.907 -0.3287 -0.0384 -0.0257
15330W        W31514  16.973   1.721  11.214  0.1961  0.0300  0.1322
15331W        W31515  16.783  15.051  16.136 -0.0555  0.0662 -0.0390
15332W        W31516  17.917   1.812   4.989 -0.2855 -0.0714 -0.1145
15333W        W31517   5.024  14.290   0.827  0.4214  0.3730 -0.2726
15334W        W31518  16.453  14.502  13.118  0.1903 -0.0907 -0.0449
15335W        W31519  13.911   0.740   1.448 -0.0711 -0.0570  0.3287
15336W        W31520  18.501   3.097   2.621 -0.1569  0.2571  0.1868
15337W        W31521  11.681   7.612   3.637 -0.0444 -0.0570 -0.0421
15338W        W31522   3.150   5.506   4.523  0.1936 -0.2370  0.1275
15339W        W31523   8.169   1.242   5.119 -0.3109 -0.0351  0.0512
15340W        W31524   9.309   7.025   1.627 -0.0584 -0.0183  0.0158
15341W        W31525   9.591  12.677  12.330 -0.1128  0.4344  0.4390
15342W        W31526  11.382  12.688  14.217 -0.0401 -0.2408  0.1544
15343W        W31527  18.128   7.816   5.634 -0.1123  0.1044  0.1193
15344W        W31528  13.325  12.995   2.245  0.0831 -0.0401  0.0193
15345W        W31529   1.002  14.304   3.255  0.2998  0.2352 -0.2140
15346W        W31530  10.809   4.548  15.510 -0.1071  0.2283  0.1632
15347W        W31531  14.682  13.397   2.093 -0.1136  0.0408  0.1911
15348W        W31532  15.454   2.009  15.929 -0.1934  0.3533  0.1108
15349W        W31533  11.846   8.795   1.924 -0.1110 -0.0843  0.2003
15350W        W31534   8.371   4.034   3.940  0.1476 -0.1538  0.1310
15351W        W31535  15.728   8.199   2.860  0.1092  0.0294  0.0079
15352W        W31536  13.021  13.254   2.939  0.1178  0.0695  0.0273
15353W        W31537  14.245  10.425   3.908 -0.1112  0.2857  0.1349
15354W        W31538  14.097   4.438   4.853  0.2952 -0.2296 -0.1224
15355W        W31539  11.782   1.062  13.386  0.0418  0.0675  0.1213
15356W        W31540  16.949   9.253  14.934 -0.0300 -0.0994  0.1641
15357W        W31541   1.807   0.343  12.401 -0.0229  0.1929  0.3374
15358W        W31542   0.799   3.433   2.052 -0.1249 -0.0638  0.1045
15359W        W31543  17.328  11.437  10.396  0.0503  0.2845 -0.0265
15360W        W31544  12.832   5.675  13.289 -0.2466 -0.0271  0.2785
15361W        W31545  11.675  16.127   1.445  0.2634  0.1986 -0.0326
15362W        W31546   0.367   6.927   3.098 -0.1214 -0.0177 -0.2337
15363W        W31547   3.387  18.394  15.425  0.3608  0.1995  0.3347
15364W        W31548   3.629   5.230   4.462  0.0862  0.2155  0.2522
15365W        W31549  17.724   7.543  14.154 -0.3240 -0.0686 -0.0122
15366W        W31550   7.886   5.820   1.406 -0.2102 -0.0710 -0.0637
15367W        W31551   5.031   0.332  11.707 -0.5650 -0.1792 -0.0347
15368W        W31552   9.979   3.932   1.807 -0.0995 -0.1314 -0.3096
15369W        W31553   5.910   3.188  14.306  0.1284 -0.0749  0.4526
15370W        W31554  14.812   4.879   0.007  0.3292 -0.2427  0.3523
15371W        W31555  17.351  15.972   3.882 -0.2276 -0.1170  0.0074
15372W        W31556  18.264  11.630   5.768 -0.0702  0.0263  0.1435
15373W        W31557  14.644   7.395  14.122 -0.1272  0.2656 -0.2839
15374W        W31558   0.637   6.865   3.596  0.2786  0.1274  0.0657
15375W        W31559  16.198  12.660  13.647 -0.1486  0.0663  0.0956
15376W        W31560   9.097   3.262   2.234 -0.3108  0.1944  0.0610
15377W        W31561  10.770   2.791   3.624  0.2098  0.0247 -0.2482
15378W        W31562   1.085  10.507  12.620 -0.0746  0.1487 -0.2223
15379W        W31563   3.300  10.288   2.561  0.0927 -0.3576 -0.1592
15380W        W31564   5.881  12.673  13.057 -0.0567 -0.1321 -0.0923
15381W        W31565  11.522  16.279   3.168 -0.0736  0.2230  0.3185
15382W        W31566  16.840  16.456   0.523 -0.1360 -0.1540  0.0451
15383W        W31567   9.316   8.519  15.573  0.1883 -0.0749  0.2816
15384W        W31568   5.371  11.756   3.430 -0.0963  0.2872  0.1902
15385W        W31569   4.485  11.251   0.690 -0.0820 -0.0875  0.1021
15386W        W31570   6.740   6.659   3.804 -0.0674 -0.0098  0.1755
15387W        W31571   6.893   2.271   1.265  0.0776  0.1127 -0.1079
15388W        W31572  14.811   0.179  14.709 -0.2071  0.0132 -0.1098
15389W        W31573  10.350  17.459   3.863 -0.0619  0.0035  0.1762
15390W        W31574   1.589   3.729   0.365  0.0150 -0.1123 -0.1774
15391W        W31575  12.694   3.492  14.279 -0.0894 -0.1869  0.0025
15392W        W31576   7.917  11.192  14.065 -0.0097 -0.3388  0.0577
15393W        W31577  11.972  16.861  15.638  0.0483 -0.0938  0.1184
15394W        W31578   5.419  12.676   4.339  0.3015 -0.3147 -0.1316
15395W        W31579  14.719   3.000  10.252  0.3487 -0.1683 -0.1476
15396W        W31580   2.710   3.765   0.900  0.0963 -0.0521 -0.1845
15397W        W31581  14.773  16.169   2.203  0.0378  0.1256 -0.0035
15398W        W31582   1.943  13.181  12.763 -0.1940  0.2758 -0.2664
15399W        W31583  16.889   2.302  12.878  0.0607 -0.1440  0.0871
15400W        W31584  17.113  14.646  12.062 -0.0054 -0.2555  0.0880
15401W        W31585   8.782   4.870  11.831 -0.0146  0.2940 -0.4151
15402W        W31586   8.406  15.754   0.979  0.2217  0.1304 -0.1202
15403W        W31587   7.389  14.203  15.332 -0.1214  0.2139  0.0336
15404W        W31588  18.204  10.660  14.476  0.0592  0.4607 -0.1525
15405W        W31589   5.790   3.142  12.429  0.0056  0.1281  0.0334
15406W        W31590   0.643   7.971  15.341 -0.3820  0.0145 -0.0534
15407W        W31591   0.534  17.553  15.503 -0.4228 -0.4550  0.0416
15408W        W31592  17.854   6.578   0.877  0.2042  0.5619 -0.3431
15409W        W31593   1.690   6.642  14.338 -0.2492  0.2535  0.0262
15410W        W31594  14.120   3.455  13.312  0.2172  0.1418  0.1747
15411W        W31595   1.126   5.963   4.279 -0.0305  0.1255 -0.1485
15412W        W31596   2.507  15.435   2.603 -0.1642  0.0112  0.0376
15413W        W31597  16.247   7.172  12.727  0.1761 -0.4589 -0.2361
15414W        W31598  18.009   9.310  13.078 -0.1377 -0.0998  0.0198
15415W        W31599  17.893  13.862  10.738 -0.0460  0.1016 -0.2795
15416W        W31600  15.722  12.701  14.307 -0.0433  0.3104 -0.0937
15417W        W31601  16.124  14.725  14.034 -0.0833 -0.2498  0.0559
15418W        W31602   8.232  10.228  11.641  0.0273  0.1120 -0.2105
15419W        W31603   4.181   0.942   1.788 -0.0346  0.1015  0.1784
15420W        W31604   6.137  11.473  14.043 -0.1451 -0.0708 -0.0864
15421W        W31605   6.663  18.413  14.689 -0.0535  0.5187  0.0097
15422W        W31606   4.720   5.777   4.642 -0.1766  0.1563 -0.1169
15423W        W31607   4.675  15.393  14.379 -0.1014  0.1948  0.0772
15424W        W31608   8.215   1.504  12.846  0.1680  0.0546  0.4460
15425W        W31609   9.128   0.338  13.022  0.1699  0.1541  0.1006
15426W        W31610   8.431  15.522  11.518 -0.0033 -0.4341  0.1695
15427W        W31611   9.580  16.849   0.921 -0.0359  0.0969 -0.2018
15428W        W31612   1.386  14.009   3.525 -0.3628  0.0154  0.1248
15429W        W31613   2.411   0.943   1.402 -0.0464 -0.2294  0.2518
15430W        W31614   4.295   3.138   5.040 -0.4236 -0.3114 -0.0930
15431W        W31615   3.492   7.087  14.639 -0.2079 -0.2666 -0.0274
15432W        W31616   1.923  12.590  15.179  0.0670 -0.2329 -0.1188
15433W        W31617   6.255  11.218  15.434  0.2930 -0.2227 -0.0930
15434W        W31618  13.224  11.376  13.666  0.2504  0.0699  0.2174
15435W        W31619   5.769   8.401   2.173 -0.1519 -0.1247 -0.1693
15436W        W31620  12.925  16.183   0.245  0.2588  0.1337 -0.2381
15437W        W31621  14.408   9.647  14.824 -0.0640 -0.0381  0.0201
15438W        W31622   0.886   7.761  14.406  0.0203  0.1591  0.1293
15439W        W31623  10.618   4.795   0.456  0.3449 -0.2866  0.2659
15440W        W31624  11.107  13.714   5.124 -0.0678 -0.0113 -0.3491
15441W        W31625  11.574   4.849   0.681  0.2296 -0.2005  0.1895
15442W        W31626   9.009  14.888  15.906 -0.0240 -0.4101 -0.1218
15443W        W31627  17.015   8.465   1.665 -0.2684  0.3312 -0.1563
15444W        W31628  11.322   5.876  12.711  0.2938  0.0197 -0.2189
15445W        W31629  17.114   3.794   4.373 -0.0533 -0.3098  0.0410
15446W        W31630   8.264  13.347  15.823  0.0638 -0.0717  0.3726
15447W        W31631  12.505  16.394   0.993  0.0343  0.1119 -0.0847
15448W        W31632   7.093  15.219  15.396  0.1838  0.0074 -0.2850
15449W        W31633   8.249   2.104   1.395 -0.1600  0.0653  0.1203
15450W        W31634   0.834  16.340  15.963 -0.1876  0.2430  0.0398
15451W        W31635  17.523   7.190  15.907 -0.1246 -0.1408 -0.0873
15452W        W31636  10.652   3.802  15.732 -0.0215  0.2565 -0.2764
15453W        W31637   4.617   4.261   4.553 -0.0981  0.1525  0.0186
15454W        W31638   9.106  15.430   2.218 -0.0937  0.2407  0.1901
15455W        W31639   3.606  16.720  13.450  0.3435 -0.0775 -0.3147
15456W        W31640  15.974  18.015  13.596  0.2226  0.0760 -0.1330
15457W        W31641  17.011  12.008  15.474  0.2480  0.0105 -0.0113
15458W        W31642   0.135  14.246   0.264 -0.3001  0.2014  0.4095
15459W        W31643   2.268   2.903  13.189  0.0109 -0.0544 -0.3549
15460W        W31644   7.143  15.423  12.151 -0.1251  0.0064 -0.1565
15461W        W31645  16.619  13.377   4.794  0.1271  0.1786  0.1130
15462W        W31646   2.177   1.001  11.612  0.0795 -0.0142 -0.0658
15463W        W31647   3.091   5.260  14.399  0.0738 -0.1386 -0.0895
15464W        W31648  18.199  12.011  15.378 -0.1494  0.1285  0.1463
15465W        W31649   9.641   2.783  14.962  0.0374 -0.2569 -0.3283
15466W        W31650  18.380  10.244   0.230  0.3908 -0.0459 -0.0225
15467W        W31651   3.256   5.559   2.333 -0.2106  0.1843 -0.0566
15468W        W31652   8.910   2.845   4.177  0.1408 -0.0795  0.2002
15469W        W31653   9.496   1.691  12.961  0.1086  0.0488 -0.2072
15470W        W31654  12.316   0.733  11.479  0.0705 -0.0353  0.0587
15471W        W31655  16.718  14.081   4.045 -0.1093  0.0169  0.2647
15472W        W31656  10.491   6.872   3.756 -0.0917  0.0029  0.1982
15473W        W31657  11.763  18.493   0.129 -0.0485 -0.0435 -0.1845
15474W        W31658  17.886   2.319   3.536 -0.0147  0.0545  0.4277
15475W        W31659  11.602   9.593  11.633 -0.1933 -0.0083  0.0806
15476W        W31660  12.682   2.538  15.211  0.1556 -0.0344  0.1053
15477W        W31661  18.310   0.179   1.285 -0.0976 -0.2531  0.2437
15478W        W31662   1.892   4.111  11.478  0.0800 -0.0711  0.2486
15479W        W31663  16.773   3.335   0.280  0.2406 -0.1985 -0.2290
15480W        W31664  15.972  14.856  13.300 -0.1403 -0.2732 -0.3513
15481W        W31665   9.218  16.789   3.399 -0.0452  0.0781 -0.1054
15482W        W31666   0.535  15.500   1.057  0.1214  0.3357 -0.0594
15483W        W31667  17.026   4.290   4.421 -0.2632 -0.2145  0.1625
15484W        W31668  12.059  18.357  14.513 -0.2482  0.4125  0.1969
15485W        W31669   1.483   8.203   0.464  0.0460  0.2705  0.3936
15486W        W31670  16.941   5.529   0.625 -0.2919 -0.2919  0.4696
15487W        W31671   4.639   2.010   2.459  0.1593  0.0670  0.1822
15488W        W31672  10.049   0.919   1.531 -0.0081  0.3916  0.3574
15489W        W31673  11.389   8.518  11.624 -0.0656  0.0640  0.3288
15490W        W31674   1.086   5.524   1.959  0.1059 -0.1523 -0.1943
15491W        W31675   7.691   2.671   4.361 -0.0530 -0.1641 -0.0695
15492W        W31676  18.493  14.091   5.258  0.1701  0.0951  0.0641
15493W        W31677   6.124   0.702   2.179  0.2304  0.0725  0.0448
15494W        W31678   4.681   4.877  14.675  0.1688  0.1592 -0.2081
15495W        W31679   1.431   4.580  12.443  0.0487 -0.2712  0.3642
15496W        W31680   2.946   9.921  14.755  0.0835 -0.0032 -0.0369
15497W        W31681  16.903  16.338  12.783  0.0604 -0.3547  0.0466
15498W        W31682  15.886  16.742   0.245 -0.2114  0.0141  0.0950
15499W        W31683   0.090  12.957   1.864  0.1287 -0.0402  0.3185
15500W        W31684   8.739   5.268   5.306  0.0238  0.0789  0.0016
15501W        W31685  17.704  16.666  14.004 -0.1062 -0.2359 -0.1239
15502W        W31686  16.630  15.922  15.480  0.0975 -0.0480 -0.1551
15503W        W31687   5.086   7.135  13.624 -0.3137  0.0007  0.1176
15504W        W31688   9.967   5.029  15.105  0.2646 -0.3221 -0.2774
15505W        W31689  15.193  13.230  12.904  0.0255 -0.3863  0.0323
15506W        W31690  14.052   4.200   1.169  0.1963  0.2204  0.4008
15507W        W31691  15.238   2.024   5.618  0.0250  0.2400 -0.0493
15508W        W31692   5.982  18.016   3.193  0.0265  0.2229  0.2466
15509W        W31693  15.759  11.770  12.546  0.0736  0.1321 -0.3937
15510W        W31694  15.181  13.217   2.591 -0.0481 -0.1916 -0.0770
15511W        W31695   8.153  10.282   4.531  0.0087  0.1841 -0.1150
15512W        W31696   9.806   1.613  15.785  0.1522 -0.2826 -0.0436
15513W        W31697   8.388   4.597  12.780 -0.2846 -0.0730 -0.0185
15514W        W31698   1.838  11.898   2.738  0.1546 -0.0777 -0.1578
15515W        W31699   5.987  12.287  11.169  0.0994 -0.1016  0.1765
15516W        W31700  11.210  18.208   1.490 -0.0714  0.3083  0.3376
15517W        W31701   6.424  14.675  12.437  0.1457 -0.2772  0.0960
15518W        W31702  18.376  10.226  15.518 -0.1441  0.1965 -0.1649
15519W        W31703  14.418  11.649   4.475 -0.1415 -0.1348 -0.0278
15520W        W31704  15.464  12.843  13.405  0.2070  0.3231  0.4119
15521W        W31705   8.817   7.033   3.774  0.1297  0.0192  0.1737
15522W        W31706   7.551   2.962  15.811 -0.1076  0.2039 -0.2095
15523W        W31707   5.090   7.759  12.190 -0.1052 -0.2925  0.1055
15524W        W31708   1.805   9.859   2.301  0.0916 -0.2251 -0.2141
15525W        W31709   2.099   6.322  14.815  0.0123 -0.1987  0.3552
15526W        W31710  12.990   3.231   1.040  0.2323 -0.0091 -0.0993
15527W        W31711   1.401   3.120   4.374  0.2320  0.1996  0.2164
15528W        W31712   4.424  17.402  15.827 -0.0393 -0.0095 -0.2249
15529W        W31713   9.025   0.538   0.297 -0.2037  0.0336  0.0801
15530W        W31714  14.629  15.598  14.110  0.2941  0.0525  0.6593
15531W        W31715  15.998  16.160   0.022 -0.3398 -0.0358 -0.0115
15532W        W31716  17.158   2.022   2.338  0.2726  0.0756  0.2818
15533W        W31717   2.935   3.797   5.220 -0.0922 -0.2043 -0.0938
15534W        W31718   0.423   4.169   4.887 -0.2641 -0.0627 -0.0933
15535W        W31719   3.139  17.430   2.780  0.2920 -0.0404  0.4949
15536W        W31720   8.653   8.376  11.370 -0.0135 -0.2350  0.1513
15537W        W31721   4.319  14.935  14.662 -0.0990  0.1706  0.0988
15538W        W31722  18.168  12.866   4.726 -0.0226  0.0604  0.0133
15539W        W31723  16.411  17.294   2.891 -0.1139  0.2511  0.0243
15540W        W31724  11.107   5.104   5.807 -0.0735 -0.0565 -0.0250
15541W        W31725  16.533   1.216   0.140  0.0526 -0.0614 -0.0006
15542W        W31726  12.993   9.202  14.607  0.1224  0.0846 -0.3798
15543W        W31727  18.227  17.801  13.395 -0.0490 -0.1875 -0.3752
15544W        W31728   2.405  12.236   5.665  0.0808  0.3304  0.0221
15545W        W31729  14.764   2.548  12.383  0.2212  0.3363 -0.0008
15546W        W31730   5.805  13.992   0.429 -0.1495 -0.1198 -0.0089
15547W        W31731  17.135   5.020   1.153  0.0024 -0.0614 -0.0405
15548W        W31732  10.083  18.369   3.340 -0.3954 -0.0438 -0.1390
15549W        W31733  12.387   1.107   5.152  0.0331  0.1026 -0.0747
15550W        W31734  10.986  14.679   4.737 -0.1167 -0.2405  0.0085
15551W        W31735  17.741   3.607  13.775 -0.0378  0.0730 -0.0814
15552W        W31736   4.025   2.516  15.312  0.0268  0.0129 -0.0550
15553W        W31737   0.287   3.850   0.854 -0.1583  0.0283  0.0000
15554W        W31738   6.391   9.425  11.604 -0.2357  0.1791 -0.1679
15555W        W31739   9.225  10.809  15.923 -0.1906  0.1327  0.6300
15556W        W31740   2.687  15.805   2.972  0.2522 -0.0245  0.3344
15557W        W31741   9.834  12.037   3.323 -0.2022  0.0331 -0.4232
15558W        W31742  14.357   9.102  14.884  0.1646  0.2990 -0.3336
15559W        W31743  11.135  13.687  14.932 -0.2180  0.1458 -0.1259
15560W        W31744   9.137   8.167  10.274  0.1966 -0.0032  0.0981
15561W        W31745  13.201   3.554   1.333  0.0161  0.0143  0.1489
15562W        W31746   7.069  15.930   5.132  0.0043 -0.1869 -0.0854
15563W        W31747  16.735   4.221   4.843  0.1340 -0.1198  0.0831
15564W        W31748   2.746  14.919  15.561  0.0112 -0.3417 -0.1781
15565W        W31749  14.197  16.352   0.858  0.2848 -0.0253  0.3037
15566W        W31750  12.922   9.642   0.165  0.0113 -0.0560 -0.2950
15567W        W31751   3.586   2.095   4.202  0.2266  0.2718  0.1288
15568W        W31752  16.753   7.271   1.172  0.1164  0.1875  0.0373
15569W        W31753  13.697  13.834  14.355  0.3143 -0.3097 -0.1925
15570W        W31754   4.847  14.301   1.394 -0.2666 -0.0693  0.1564
15571W        W31755   2.081   8.178  13.406 -0.1244  0.1762 -0.1307
15572W        W31756   4.763   3.809  15.762  0.0625 -0.4260 -0.0395
15573W        W31757   9.207  11.876   4.125 -0.1145  0.0099  0.0033
15574W        W31758  13.871   9.034  11.444  0.1068  0.2520  0.1829
15575W        W31759   6.501   8.334  15.064  0.0303 -0.0352  0.0265
15576W        W31760   0.808  11.865  16.039  0.2197  0.1695 -0.2878
15577W        W31761   6.173   2.216   2.505 -0.0669  0.0147  0.1541
15578W        W31762  16.285  13.844   4.214 -0.0930 -0.0813  0.0110
15579W        W31763   7.349  11.101  12.413  0.0414  0.0431 -0.0267
15580W        W31764  13.254   2.546   5.357 -0.4091  0.1496  0.4912
15581W        W31765  14.536   7.514  11.612  0.0775 -0.1647  0.2891
15582W        W31766  16.208   2.447   3.721 -0.0341  0.1177 -0.0970
15583W        W31767   4.604   6.808   4.303 -0.1432 -0.4819  0.1926
15584W        W31768  12.516   1.995   4.999  0.3996 -0.0469 -0.3276
15585W        W31769  18.333   6.849   0.178  0.1171  0.0444  0.0799
15586W        W31770  16.966   6.124   3.888  0.1466 -0.3728 -0.1458
15587W        W31771   3.844   4.537  11.587 -0.0694 -0.0318  0.3631
15588W        W31772  11.248   9.103   3.476  0.2738  0.1237 -0.0073
15589W        W31773   1.133  18.201  13.698 -0.2764  0.0339 -0.1007
15590W        W31774   9.711  16.814   0.281  0.0149 -0.0667 -0.1886
15591W        W31775   0.679  11.672   0.654 -0.0377 -0.0533  0.1913
15592W        W31776   6.148   8.930   6.032 -0.1187  0.2937  0.1429
15593W        W31777  10.442  11.833   2.223  0.0692  0.1302 -0.0942
15594W        W31778  17.815  16.129   0.421  0.1848 -0.1820 -0.0215
15595W        W31779  13.820   7.330  13.546 -0.1567  0.0947  0.0726
15596W        W31780   6.582  14.867   4.435  0.1896 -0.2567  0.0592
15597W        W31781   9.075   7.845   3.201 -0.3338  0.0057  0.0614
15598W        W31782  10.572   0.199   2.657 -0.2813  0.0472  0.2268
15599W        W31783   1.833  13.333  13.978 -0.1424  0.3110 -0.0216
15600W        W31784  12.430  14.464  16.116  0.2132  0.0723 -0.1877
15601W        W31785  12.566  11.117  15.506 -0.0573 -0.3581 -0.1948
15602W        W31786  18.271   2.058  11.130  0.0718  0.0905 -0.2216
15603W        W31787   7.661   4.265  14.079  0.1756 -0.1637  0.1674
15604W        W31788   7.533   9.075   5.009  0.0513 -0.0418 -0.0576
15605W        W31789   3.112   8.974   0.670  0.5121 -0.0215  0.0684
15606W        W31790  12.430   8.158   2.127  0.0250 -0.0162 -0.3782
15607W        W31791   0.713   1.486  12.427  0.1299 -0.0138  0.0202
15608W        W31792  13.697  17.221   2.985  0.1423  0.1391 -0.1570
15609W        W31793   0.793  10.672   0.504  0.1340  0.3011  0.0953
15610W        W31794   4.600   7.987  12.475 -0.1101 -0.0672  0.1084
15611W        W31795   7.575   9.711   0.348 -0.1683 -0.2835  0.0810
15612W        W31796  10.911   2.831  14.570  0.0568  0.0929 -0.0785
15613W        W31797   7.993   4.062  15.115 -0.1477 -0.0780  0.1142
15614W        W31798   7.462  12.790  14.279  0.4922  0.0579  0.0511
15615W        W31799  17.102  11.829   1.193  0.3255 -0.1657  0.1192
15616W        W31800  15.881  15.260   0.472  0.2115 -0.0988  0.0280
15617W        W31801  16.592   0.664   3.892 -0.1599  0.2495 -0.0455
15618W        W31802  16.250   6.398  12.349 -0.1480 -0.0941  0.2438
15619W        W31803   7.735   8.431   2.334 -0.1867  0.0047  0.2670
15620W        W31804  13.477  11.630   4.358 -0.0435 -0.0537 -0.0378
15621W        W31805  16.119   0.928  15.972  0.1797  0.1347  0.1646
15622W        W31806  10.346  10.092   2.749  0.3079 -0.0019  0.2651
15623W        W31807   2.967  13.311  12.674 -0.0346 -0.0990 -0.2036
15624W        W31808  13.381   6.032   3.625 -0.2196  0.0673 -0.0001
15625W        W31809  14.208  16.512   3.395 -0.4968  0.1771  0.0879
15626W        W31810   4.009  15.140  12.078 -0.0268  0.1345 -0.1633
15627W        W31811  17.758  15.975  11.898  0.1904 -0.0421  0.0639
15628W        W31812  13.816   9.314  12.533  0.1001  0.1550  0.2054
15629W        W31813  14.730  13.389   1.246  0.1810  0.0132 -0.1466
15630W        W31814   3.534  12.587   1.953  0.0775 -0.4069 -0.0510
15631W        W31815  16.721  11.181   2.352  0.0270  0.0157  0.2533
15632W        W31816   2.051   7.627  15.534  0.0625 -0.5382 -0.0914
15633W        W31817   4.390  11.567   3.613 -0.0348  0.3947  0.0192
15634W        W31818   7.935   7.201  12.640 -0.1347  0.1582 -0.1181
15635W        W31819  12.422   0.156  11.269  0.0793  0.1092 -0.4100
15636W        W31820   9.304   6.697  14.367 -0.1518  0.6210 -0.0929
15637W        W31821  14.910   2.639  13.232 -0.1672  0.3727  0.0783
15638W        W31822   1.563   7.927  15.671  0.2416 -0.0958  0.0073
15639W        W31823  10.892   5.634   0.727  0.3770  0.1996 -0.1657
15640W        W31824   0.841   1.316   4.838 -0.0577  0.1166 -0.0337
15641W        W31825   8.563   2.920  11.575  0.3549  0.0007  0.2321
15642W        W31826  13.603  16.611  13.084  0.0366 -0.0436  0.2349
15643W        W31827  11.848  11.711   2.692  0.1392 -0.1899  0.0216
15644W        W31828  10.715   0.300   3.201 -0.1355  0.0792 -0.2217
15645W        W31829  11.178   3.801  12.921 -0.1497 -0.0426 -0.2022
15646W        W31830   0.115  13.033  14.762  0.1521  0.0006  0.2206
15647W        W31831   6.888  13.583   1.173 -0.0007  0.3839 -0.0684
15648W        W31832   8.361   2.535   0.239 -0.1080 -0.2426  0.0678
15649W        W31833   2.400  15.094   4.214 -0.1870 -0.0506  0.0651
15650W        W31834   2.503   4.441   2.682  0.0711 -0.3366 -0.1313
15651W        W31835  15.614   6.480   3.688 -0.1672 -0.1168  0.2926
15652W        W31836  11.360   7.611  12.000 -0.2739  0.0480  0.3706
15653W        W31837   3.843   1.301   0.702  0.0377 -0.1667  0.1882
15654W        W31838   6.202   0.768   2.704  0.3713 -0.0122  0.0295
15655W        W31839   4.110  16.007   3.205  0.0428 -0.0305  0.0258
15656W        W31840  15.927   3.770   0.627 -0.1740  0.0451 -0.0550
15657W        W31841   0.394  11.037   0.242  0.1065 -0.2288  0.0885
15658W        W31842   1.415   4.967  16.114  0.1498 -0.0696 -0.0570
15659W        W31843  11.239   1.548   5.282 -0.2704 -0.1809  0.0094
15660W        W31844  11.209   3.950  14.966  0.0189 -0.1464 -0.0956
15661W        W31845   9.607  13.650  13.767 -0.0001  0.1463  0.3295
15662W        W31846  15.293   0.860  15.477  0.1073  0.1773  0.0109
15663W        W31847  18.351   1.699   4.101 -0.1017 -0.1235  0.0139
15664W        W31848  17.432   1.795  11.039 -0.1025 -0.0479  0.2361
15665W        W31849   5.141  17.320  10.705 -0.1725  0.0618 -0.1917
15666W        W31850  14.531   8.936  12.774 -0.0248  0.1977 -0.2954
15667W        W31851  14.856   4.802   3.506 -0.1929  0.0243  0.0660
15668W        W31852   2.159  13.000   0.995  0.1385 -0.1217 -0.2890
15669W        W31853  15.402  10.922   4.759 -0.1230  0.0288  0.0169
15670W        W31854   8.244   0.715   2.208  0.1998  0.3815 -0.0522
15671W        W31855   3.761  10.887  11.931  0.1593 -0.0728  0.0120
15672W        W31856   6.044  15.150  13.948 -0.1503 -0.1110  0.1149
15673W        W31857   2.150   4.293  12.972 -0.2579 -0.0211 -0.0127
15674W        W31858   6.658   7.745  14.313  0.1561  0.2767 -0.1963
15675W        W31859  10.406   7.803  14.730 -0.2642  0.0438  0.0951
15676W        W31860  13.634   0.545  11.488  0.0907  0.3310 -0.0669
15677W        W31861  11.512   3.993   2.405 -0.1210  0.0101  0.3204
15678W        W31862   2.099  12.196   1.774 -0.1037  0.2376  0.1228
15679W        W31863  10.193  10.463  14.023 -0.1491 -0.1641  0.3491
15680W        W31864  18.113  17.456  15.612 -0.1518 -0.1840 -0.0632
15681W        W31865   1.905  16.981  12.013 -0.0886 -0.0354 -0.0606
15682W        W31866  16.963  12.398  12.661  0.3984 -0.4044  0.0803
15683W        W31867   1.256  16.596   4.451  0.0460  0.2204  0.0286
15684W        W31868   0.098   7.568   2.555 -0.3373 -0.1698  0.0182
15685W        W31869  13.077   0.314   2.180 -0.3125  0.0416 -0.0293
15686W        W31870   4.285   1.493  11.003 -0.1999  0.0591  0.1344
15687W        W31871  11.073  12.629   5.163  0.0304 -0.4103 -0.3292
15688W        W31872   5.455   0.687  14.974 -0.0498  0.1737  0.0628
15689W        W31873  12.854  10.592  13.771 -0.1039 -0.1336  0.0925
15690W        W31874   7.746  13.923   1.525 -0.0597 -0.1705  0.0267
15691W        W31875  11.454   5.789   4.437 -0.1796 -0.0739 -0.4024
15692W        W31876  15.317   4.521  13.185  0.0120 -0.2074  0.0124
15693W        W31877   2.446  10.628  15.080 -0.0967 -0.0078 -0.0065
15694W        W31878   6.294  14.574  13.745 -0.2071  0.1238 -0.1716
15695W        W31879   0.449   3.571  12.082 -0.5824  0.0114  0.2097
15696W        W31880  10.941   6.879   3.338  0.0073  0.3005 -0.1020
15697W        W31881   6.472   5.714   0.087  0.0091  0.0321  0.0077
15698W        W31882   9.124   0.732   3.062  0.0316  0.1195 -0.0649
15699W        W31883  11.084   0.508   2.009 -0.0018 -0.0917  0.0445
15700W        W31884   7.815  11.925   3.844  0.0769  0.2606 -0.1499
15701W        W31885   3.701  13.508  15.433 -0.0522 -0.0767  0.0629
15702W        W31886   6.227   3.200   2.146 -0.1105 -0.1377  0.3170
15703W        W31887   0.475   2.497   2.072 -0.1298  0.1854 -0.1173
15704W        W31888  12.517   8.905   6.556 -0.2282 -0.2751  0.2340
15705W        W31889  11.366   9.156  15.516 -0.2339  0.0432  0.2539
15706W        W31890   4.744  17.927  15.035  0.2440 -0.4047  0.2405
15707W        W31891   6.944  12.292   3.338  0.0947  0.4046  0.1415
15708W        W31892  17.929  16.917  11.883  0.2534 -0.0303 -0.2430
15709W        W31893   4.689   7.657   4.601 -0.1933  0.3501 -0.1184
15710W        W31894   4.524  14.589  11.902  0.3128 -0.2002 -0.1167
15711W        W31895  11.800  14.146  13.144 -0.4269 -0.3737 -0.3313
15712W        W31896  18.501  12.886  13.367  0.1030 -0.3706  0.0563
15713W        W31897   8.009   6.824   4.851  0.0296 -0.0007  0.0183
15714W        W31898   3.631   6.108  12.269 -0.0336  0.1117  0.0925
15715W        W31899  15.710  15.047  14.820 -0.2131 -0.0767  0.2685
15716W        W31900  12.895   7.182   3.012 -0.2628  0.3359 -0.1196
15717W        W31901   4.222   7.231  13.201  0.0120 -0.1232  0.3031
15718W        W31902   4.728  12.121  15.881 -0.1803  0.4344 -0.2266
15719W        W31903  12.912   7.025   0.961 -0.0839 -0.0688  0.3291
15720W        W31904   7.185   7.353   4.941 -0.1230 -0.0194 -0.2671
15721W        W31905   5.337  13.990  15.508 -0.1148  0.2408 -0.2866
15722W        W31906  15.720  13.445  13.607  0.2261 -0.3194  0.1801
15723W        W31907   6.202   1.454  13.025  0.2531  0.1845 -0.1418
15724W        W31908   5.604   9.644  14.564  0.1882 -0.0485  0.0525
15725W        W31909  11.124   8.602  10.694  0.0079 -0.1061 -0.1664
15726W        W31910  11.230   8.606   5.314 -0.2758  0.0439  0.1180
15727W        W31911  17.649  10.903  13.439 -0.0522 -0.0562 -0.1642
15728W        W31912   3.468   6.396   4.357  0.1505 -0.0601  0.0832
15729W        W31913   1.371   1.802   1.950 -0.4317  0.1598  0.0061
15730W        W31914   0.438   8.535   2.505 -0.1620  0.1830 -0.0963
15731W        W31915   9.637   0.128   3.775 -0.0259  0.0828 -0.1550
15732W        W31916   6.303   6.870  11.674  0.1272 -0.2439 -0.0087
15733W        W31917   8.961  14.224  12.701  0.0339 -0.2484 -0.0681
15734W        W31918   6.454   2.950   3.538  0.1697 -0.1129 -0.2494
15735W        W31919  16.145   4.196  11.754  0.0813  0.0779  0.1558
15736W        W31920  13.585   3.527  14.483 -0.2235 -0.0317 -0.3402
15737W        W31921  11.834  13.914   1.307 -0.0342 -0.2225  0.0480
15738W        W31922  15.166  11.989  15.515  0.1887  0.0125  0.1111
15739W        W31923   1.069   0.121   3.427  0.0823 -0.1128  0.0421
15740W        W31924  15.970  14.661  15.555  0.1535  0.0183 -0.2286
15741W        W31925  10.377  16.045  10.729  0.1571  0.0725  0.1801
15742W        W31926  17.941   7.402   0.561  0.0423 -0.3096 -0.0198
15743W        W31927   0.223  12.076  15.144 -0.1450  0.1522  0.1399
15744W        W31928   3.588  16.416  14.612  0.0110 -0.0771 -0.1844
15745W        W31929  11.544  15.509  13.960  0.1787 -0.1794 -0.2183
15746W        W31930   9.437  13.627   4.961  0.1706 -0.0117 -0.3498
15747W        W31931  11.303  10.762  15.730  0.2044  0.1485  0.2109
15748W        W31932   1.601  17.408  11.056  0.3828 -0.1169 -0.0543
15749W        W31933   6.883   3.471   1.750  0.3105 -0.1137 -0.0698
15750W        W31934   5.929   8.515  13.571 -0.3043 -0.0602  0.0271
15751W        W31935   3.912   9.006   3.850  0.1950 -0.0095 -0.2690
15752W        W31936   3.283   3.645  12.779  0.3117  0.3555 -0.0671
15753W        W31937  13.201  14.024   0.243  0.3125  0.0665  0.3362
15754W        W31938  15.313   9.499   4.016 -0.2389  0.0974 -0.0457
15755W        W31939  16.853  16.831   2.203  0.4479 -0.0399 -0.0599
15756W        W31940   0.615   6.259  15.754 -0.3657  0.2756 -0.1610
15757W        W31941   3.514   7.863   3.752 -0.2101 -0.2324  0.1272
15758W        W31942   5.738   5.358   2.245  0.6192  0.0864 -0.0426
15759W        W31943   7.040  18.100   1.110  0.1207  0.0294  0.2156
15760W        W31944  10.040   8.713   3.422 -0.3462 -0.1227  0.0758
15761W        W31945   2.416  15.962   4.775  0.0420  0.0989 -0.2135
15762W        W31946   1.923   3.186   1.468  0.0498  0.1716 -0.1755
15763W        W31947   3.012   4.576   1.202 -0.0834  0.0455 -0.0795
15764W        W31948  12.914  12.775   4.959 -0.1278 -0.1430 -0.1741
15765W        W31949   9.276   9.789   2.115 -0.0798  0.1330 -0.2663
15766W        W31950   7.847  13.987   3.506 -0.1782 -0.0637 -0.0179
15767W        W31951  10.990   8.121   4.044  0.1447  0.1897 -0.0705
15768W        W31952   9.873   8.705   2.001 -0.0694 -0.0853  0.0267
15769W        W31953   4.153   1.350   2.587 -0.2906 -0.3753 -0.4159
15770W        W31954   8.587   1.248   5.951 -0.0743 -0.5376 -0.0433
15771W        W31955   8.850   3.129   3.369  0.1858  0.1793  0.0202
15772W        W31956   1.352   5.459   4.737 -0.0230  0.3625 -0.1652
15773W        W31957  15.291   0.901   2.546 -0.1073  0.0547 -0.0699
15774W        W31958   8.185   4.493   5.997  0.2133  0.0242  0.1922
15775W        W31959   3.798  17.806   5.779 -0.1036 -0.0043 -0.0234
15776W        W31960   8.194   3.869  12.267  0.3293 -0.1357  0.0656
15777W        W31961  13.137   5.888  12.899 -0.1322  0.0180 -0.0168
15778W        W31962   6.652   8.985  12.377  0.2254 -0.2056 -0.1203
15779W        W31963  18.501   3.004   1.384  0.2318  0.1337  0.1709
15780W        W31964   8.825  14.488   2.762  0.0797 -0.0251 -0.0381
15781W        W31965  15.328  12.158   4.864 -0.2224  0.1795  0.0332
15782W        W31966  16.207   2.261   4.580 -0.0918  0.1408 -0.0194
15783W        W31967   9.575   5.871  15.567 -0.0174  0.2069 -0.0008
15784W        W31968  13.629   8.840   4.992 -0.1010 -0.1499  0.1256
15785W        W31969   7.305   5.227  11.823 -0.1303  0.1111  0.0606
15786W        W31970   4.435   1.188  15.705  0.0655  0.3315  0.2452
15787W        W31971   3.971   4.335  13.267 -0.2586  0.1280  0.0467
15788W        W31972   0.941  15.761  13.066 -0.2204  0.2098 -0.1638
15789W        W31973   1.195   5.800   5.654 -0.2577 -0.2374 -0.0069
15790W        W31974   4.533  14.102   1.703 -0.1784  0.0322 -0.2259
15791W        W31975   0.466  15.650   5.124 -0.0254 -0.1644  0.2013
15792W        W31976   3.600   4.075  11.987  0.2545 -0.0394  0.2666
15793W        W31977   2.303  17.149  12.427  0.2063  0.6949 -0.0190
15794W        W31978  11.573  14.127  15.771 -0.0549 -0.1860 -0.3971
15795W        W31979  13.899   3.964   4.753  0.0360  0.1942 -0.0458
15796W        W31980   5.197  14.698  12.810 -0.0735  0.0865 -0.0109
15797W        W31981  11.794  14.675  11.905 -0.1110 -0.3216 -0.3988
15798W        W31982   1.297  12.745  15.954  0.0516  0.3544 -0.2984
15799W        W31983   5.494   9.882   2.533  0.0030  0.0702  0.2074
15800W        W31984  10.160  17.108   3.134  0.0777 -0.1612 -0.1130
15801W        W31985  13.093  13.610   0.544  0.2981 -0.0772 -0.2862
15802W        W31986   0.094   1.918  11.470 -0.0570 -0.0380  0.1230
15803W        W31987  13.761  13.209   2.274  0.1335 -0.0196  0.3877
15804W        W31988  17.422  14.777   5.115  0.1428 -0.2204 -0.1412
15805W        W31989   9.791   0.429   1.562  0.1942 -0.0840 -0.0217
15806W        W31990  11.890   4.324   4.782 -0.1030  0.2355 -0.0043
15807W        W31991  13.866   8.062   1.537  0.2489  0.1184  0.2383
15808W        W31992   4.063   4.254   2.916  0.3701  0.1942  0.4223
15809W        W31993   0.092  11.520   5.278  0.0247 -0.2716 -0.2829
15810W        W31994  11.771  15.082   5.037 -0.1480  0.1053  0.3653
15811W        W31995   2.710  11.792   4.434  0.1029 -0.0477  0.0525
15812W        W31996   0.024   6.736   1.382  0.3686 -0.1622 -0.0677
15813W        W31997   6.605   8.807   3.914 -0.2035 -0.2243  0.1664
15814W        W31998  11.851   1.466  11.441 -0.1112 -0.1467  0.3146
15815W        W31999   6.697  18.088  14.278  0.0174 -0.1567 -0.0134
15816W        W32000   8.546   8.506   2.581 -0.0112 -0.4067  0.3638
15817W        W32001  18.221   3.163  15.158 -0.0701  0.1461 -0.0747
15818W        W32002  17.757  15.003   3.617 -0.1400  0.0669  0.1332
15819W        W32003   6.204   8.339   2.755 -0.2702 -0.3613  0.2818
15820W        W32004  13.325  12.047   1.133 -0.1371  0.2974  0.0296
15821W        W32005   6.334  16.233  13.359  0.3332 -0.0637 -0.2474
15822W        W32006  10.805   1.271   2.888 -0.0959  0.2951  0.0276
15823W        W32007  17.519   1.728   2.999 -0.0403  0.0541  0.0465
15824W        W32008  11.342  15.967  14.857 -0.0722  0.0506 -0.0275
15825W        W32009   6.417  16.324  15.594  0.2192  0.0456 -0.0441
15826W        W32010   6.627  11.422   3.605  0.0791  0.2792 -0.2151
15827W        W32011   9.224   5.704   1.308 -0.1526 -0.1513  0.1115
15828W        W32012   9.112   1.541   1.616 -0.0764  0.1469  0.1983
15829W        W32013   6.039   6.445   1.829  0.0763 -0.5766 -0.2703
15830W        W32014   8.568  16.946   4.025 -0.0846  0.3167 -0.2103
15831W        W32015   6.956   9.537  15.685 -0.0991  0.1852 -0.0341
15832W        W32016  10.977   7.113  13.632  0.1671  0.3002  0.1549
15833W        W32017   5.753  18.274  15.295 -0.2825 -0.1396 -0.1744
15834W        W32018  11.099   4.974  13.474 -0.0005  0.4379 -0.2294
15835W        W32019   9.947  13.460  15.237  0.0030  0.1600 -0.2619
15836W        W32020   5.761  15.286  10.716  0.4861 -0.3076 -0.3339
15837W        W32021   8.403   7.927   4.069 -0.0434  0.1783 -0.2822
15838W        W32022  14.158   1.411  13.795  0.0152  0.1711 -0.3231
15839W        W32023   2.601  11.147  15.940  0.2695  0.0408  0.3956
15840W        W32024   9.576  18.382   4.723 -0.0804  0.5427  0.0427
15841W        W32025  15.409   8.505   0.075  0.1199  0.0034  0.0235
15842W        W32026  15.308  15.426   1.286 -0.0922 -0.1236 -0.0641
15843W        W32027  15.941  16.480  12.483 -0.1239  0.0051  0.2539
15844W        W32028   3.975  13.643  15.927  0.1270 -0.0720  0.1012
15845W        W32029   7.847   7.312   2.804  0.0186 -0.1157  0.1186
15846W        W32030   2.520   6.406   2.052 -0.2373 -0.3166 -0.0053
15847W        W32031   3.026   6.084   3.668  0.2946 -0.1770 -0.2156
15848W        W32032   7.359  13.475   0.949  0.1476 -0.0428 -0.1269
15849W        W32033  11.738   2.054   5.722  0.0325 -0.1016  0.0140
15850W        W32034  11.148  12.530  12.017  0.1905  0.0206  0.0627
15851W        W32035   4.677  18.413   3.116  0.2472 -0.1226 -0.1146
15852W        W32036   5.343   4.865   4.509 -0.0390 -0.0600  0.2747
15853W        W32037  18.043  12.802  14.236 -0.1154 -0.0372 -0.1112
15854W        W32038  10.519   0.210   4.156 -0.1050 -0.1694  0.1766
15855W        W32039  14.843  12.815   0.315  0.0631  0.0053 -0.0163
15856W        W32040   0.906   1.293   4.328  0.1066 -0.0479 -0.1099
15857W        W32041  12.096   6.517  14.058  0.1728 -0.0495 -0.0837
15858W        W32042  15.425  11.874   4.462  0.0475  0.2871 -0.0447
15859W        W32043   4.165  17.690   2.914 -0.0697  0.4416  0.3555
15860W        W32044  15.520  10.485  12.177 -0.2571  0.1650 -0.0737
15861W        W32045   0.250   3.867  13.894  0.0208  0.1933  0.1297
15862W        W32046  13.358   9.852   2.987 -0.1921  0.1746  0.2858
15863W        W32047   9.656   3.094   1.638  0.1072  0.0882 -0.2796
15864W        W32048  17.541  10.163  13.836 -0.2198 -0.1257 -0.1446
15865W        W32049  15.488   9.998   0.843 -0.0230 -0.0697 -0.0253
15866W        W32050   5.037  16.982   4.602  0.1170  0.3359 -0.0849
15867W        W32051  16.092   0.588  14.900  0.1315  0.3045 -0.1747
15868W        W32052  14.803   3.274   1.905  0.1965 -0.3807  0.2895
15869W        W32053   1.278   4.152   2.304 -0.1025 -0.0997  0.1445
15870W        W32054   5.273   0.646  11.269  0.1004 -0.0119 -0.0655
15871W        W32055  12.736  13.032  14.907 -0.1129  0.1783  0.2898
15872W        W32056   3.093  18.153  15.038  0.0003  0.0301 -0.4327
15873W        W32057   5.928  13.973  13.534  0.1477 -0.0124 -0.2482
15874W        W32058  18.326  13.250   0.660  0.0921  0.1274  0.0141
15875W        W32059  15.369   4.108   0.415 -0.3966 -0.1031 -0.0174
15876W        W32060   4.874   4.986  15.616 -0.0487 -0.4816 -0.2885
15877W        W32061   3.781  14.626   0.134 -0.0367 -0.1026  0.2275
15878W        W32062  11.383   9.384   3.052 -0.0428 -0.0321  0.0558
15879W        W32063   7.527  17.633   2.747  0.3987 -0.1482 -0.0731
15880W        W32064  14.420   7.219   3.157  0.3480 -0.0604 -0.0700
15881W        W32065   1.179   7.491   3.437  0.1359 -0.2751  0.2372
15882W        W32066  10.306  18.041  15.461 -0.5254 -0.0856  0.1342
15883W        W32067  13.508  13.842  12.927 -0.1314 -0.2084  0.2371
15884W        W32068   9.962  15.783   2.581 -0.1141  0.1470 -0.0389
15885W        W32069   7.820  16.991   5.580  0.0412  0.3720  0.1197
15886W        W32070   6.019   7.149   4.873  0.2775 -0.1987 -0.0296
15887W        W32071   9.955  11.673   4.405  0.0112  0.0199  0.0057
15888W        W32072   4.942   2.663   6.055 -0.2559 -0.3518 -0.0250
15889W        W32073   9.649   3.587   4.108  0.0550 -0.2940 -0.0612
15890W        W32074  16.072  11.488   1.902 -0.0070  0.2149  0.2670
15891W        W32075  11.605   6.669  14.717 -0.0059 -0.0298  0.1386
15892W        W32076  15.135   3.528   3.136  0.4141  0.2268 -0.3413
15893W        W32077  13.551   3.381   4.446 -0.1006 -0.2442 -0.3910
15894W        W32078  10.322   5.846   2.036 -0.0541  0.2649 -0.4123
15895W        W32079  12.559   6.723   2.815 -0.0575  0.0179  0.2034
15896W        W32080   5.541   5.833  11.902  0.0926  0.2962  0.1388
15897W        W32081   2.900   8.971  13.755  0.0808 -0.0094  0.2417
15898W        W32082  10.146  13.615   5.194  0.1273  0.0967 -0.0970
15899W        W32083   1.453   2.695   5.910 -0.0403 -0.1116 -0.1830
15900W        W32084  14.138  15.838   2.975 -0.2784 -0.1631 -0.1281
15901W        W32085   3.855   8.850  14.843  0.0084  0.1744  0.0234
15902W        W32086  15.508  16.031  13.892  0.0837  0.0372  0.1050
15903W        W32087  11.460  11.832   0.748  0.3445 -0.1435  0.0984
15904W        W32088   3.917   3.944   2.523  0.0396  0.1043  0.2523
15905W        W32089  11.019  13.608   1.803  0.0888 -0.0309  0.0619
15906W        W32090   3.179  17.813  12.992 -0.0293 -0.3510  0.2984
15907W        W32091   0.312   5.518  14.475 -0.2790 -0.3101  0.5178
15908W        W32092   8.256  12.832  13.509  0.0660 -0.0823  0.2465
15909W        W32093   6.852  13.978  13.443 -0.4442  0.1291  0.1775
15910W        W32094   6.625  17.663  14.944  0.0854  0.1155 -0.1252
15911W        W32095   8.426   3.882  13.708 -0.0716 -0.4286  0.1182
15912W        W32096  16.351   1.638   0.893  0.1997 -0.1209  0.0261
15913W        W32097   4.825  10.800   1.970 -0.3391  0.1279 -0.1373
15914W        W32098   1.142  15.451   4.108 -0.1394  0.0389 -0.1188
15915W        W32099  15.380  13.681  12.668  0.0662 -0.0027 -0.1980
15916W        W32100  18.275  13.725  12.107 -0.2685 -0.1330  0.2125
15917W        W32101  12.414   7.962  15.120  0.0351  0.0993 -0.1828
15918W        W32102  12.015   3.357  13.520  0.0551  0.1823  0.2273
15919W        W32103  15.443   5.334  14.692 -0.0773  0.2456 -0.2174
15920W        W32104   3.192  16.172   0.695  0.1247  0.0991  0.0440
15921W        W32105  12.671   7.756   1.895  0.0661  0.4447  0.2457
15922W        W32106  14.986  16.732   0.330 -0.1247  0.0729  0.0955
15923W        W32107  17.428   5.399   4.544 -0.1271 -0.1071  0.0314
15924W        W32108  13.045   3.240  11.104  0.1473 -0.1897  0.0514
15925W        W32109  18.276   5.232  14.264 -0.0372 -0.1849  0.0856
15926W        W32110  12.984  15.545   3.929  0.0365  0.0059  0.2242
15927W        W32111   7.473   3.565  11.893 -0.0615  0.1712 -0.1597
15928W        W32112  11.802   4.678   5.751 -0.1382 -0.2866  0.1410
15929W        W32113   0.227   9.371  14.255 -0.0747 -0.1856 -0.1467
15930W        W32114  11.792  14.498  13.534  0.1464  0.0671  0.2322
15931W        W32115  15.591  10.689   3.866 -0.0203  0.1672  0.1637
15932W        W32116   4.853  13.106   0.523  0.1351 -0.1567  0.2850
15933W        W32117   0.440  14.514  11.189  0.1623  0.0109 -0.3941
15934W        W32118  11.333  16.093   3.571  0.1530  0.0478  0.0684
15935W        W32119  10.411   6.013  14.583 -0.0979 -0.0353 -0.0025
15936W        W32120  14.129   7.841   3.567  0.1998  0.1787 -0.1843
15937W        W32121   0.725   6.018  13.673 -0.0690  0.1267 -0.0425
15938W        W32122   5.329  11.491   5.617 -0.1966 -0.3318 -0.0438
15939W        W32123   7.860  16.906  11.544 -0.7012  0.0138 -0.3011
15940W        W32124  17.325   6.005  13.559  0.1867 -0.0312  0.1431
15941W        W32125   4.405   8.820  14.222 -0.1486  0.0184  0.0758
15942W        W32126   5.091   9.000   3.610  0.6894  0.0768 -0.1749
15943W        W32127  15.658   2.483  14.699 -0.4651  0.2234 -0.2973
15944W        W32128  10.296  16.143   4.049 -0.0159 -0.2189 -0.1122
15945W        W32129  14.359  16.645  16.013  0.0893  0.0313  0.0487
15946W        W32130  10.659  12.686  15.343 -0.0567  0.1763 -0.3365
15947W        W32131   4.052   2.365   2.052  0.2960  0.1650 -0.3410
15948W        W32132  16.423  11.826   3.403 -0.1217 -0.3691 -0.2856
15949W        W32133   2.780  15.375  11.660  0.4013 -0.0746 -0.1366
15950W        W32134   6.835   9.303   5.507 -0.0400  0.0516  0.1763
15951W        W32135  16.128   6.200   3.595 -0.0125  0.1452 -0.1929
15952W        W32136   6.282   5.914   3.105 -0.0043 -0.0362 -0.1561
15953W        W32137  10.509   5.406   0.413 -0.1018 -0.0683 -0.4563
15954W        W32138   1.976  11.929   1.273 -0.0932  0.4518  0.2331
15955W        W32139  14.437   4.238  13.532  0.1234  0.0661 -0.0216
15956W        W32140   4.145   2.755   4.841 -0.1508  0.0202 -0.0380
15957W        W32141  14.071  14.810  11.917 -0.1818 -0.0118 -0.2369
15958W        W32142  15.274   5.171  10.341  0.2212  0.0173 -0.0297
15959W        W32143   0.276   3.758  15.246 -0.0526 -0.1946 -0.0163
15960W        W32144   5.467  18.195  14.865  0.1285 -0.0534 -0.3414
15961W        W32145   2.946  14.533  13.501 -0.0335 -0.0276  0.3476
15962W        W32146  10.248   1.041  11.658 -0.1119  0.1474 -0.0801
15963W        W32147   3.239  18.047  10.844 -0.6123  0.0172  0.2314
15964W        W32148  14.813   2.684   6.105  0.1021  0.1147  0.0187
15965W        W32149  12.298   2.659   1.028 -0.0316 -0.1722  0.1305
15966W        W32150  16.262  17.095   0.538  0.0992 -0.0242 -0.1679
15967W        W32151   0.425  15.634   2.256  0.1498 -0.1020  0.2123
15968W        W32152   5.846   4.147  12.034 -0.0192  0.2018 -0.5280
15969W        W32153  15.318  11.282  11.635 -0.1296  0.1732 -0.1451
15970W        W32154   9.388   1.098   3.860 -0.3233 -0.0767  0.0091
15971W        W32155   1.691  13.140   0.755 -0.0443 -0.1191 -0.0886
15972W        W32156  15.294   2.314   0.197 -0.1261  0.0058  0.0837
15973W        W32157  15.321   3.764  11.590 -0.0962  0.0007 -0.0567
15974W        W32158   0.134   2.821  14.409 -0.0481 -0.1168 -0.0060
15975W        W32159   8.995   7.514  11.302 -0.3388 -0.0340 -0.0855
15976W        W32160  15.081   6.566   4.095  0.0902 -0.1670  0.0425
15977W        W32161   7.069  10.499   3.396  0.1173  0.0952 -0.0561
15978W        W32162  15.465   2.635  12.333  0.3902  0.0853  0.1354
15979W        W32163  13.167   0.433   3.118 -0.0180 -0.1111 -0.1593
15980W        W32164   9.995  18.126  15.115  0.1700 -0.0278  0.3163
15981W        W32165   2.041   0.201  11.026 -0.1795 -0.4010 -0.2496
15982W        W32166   7.442  13.901   5.502 -0.0985 -0.1114 -0.1216
15983W        W32167  17.577  16.890  12.215 -0.0002 -0.1831  0.1356
15984W        W32168   7.162   2.143  13.493 -0.1629 -0.1556 -0.1561
15985W        W32169  14.005   6.965  14.502  0.0599  0.1684  0.0921
15986W        W32170   5.828   8.343   3.646 -0.1749  0.0496  0.1789
15987W        W32171  10.417   2.239  15.122  0.3281 -0.2156 -0.1370
15988W        W32172   8.907   3.707  13.527 -0.2696 -0.4002  0.1941
15989W        W32173  14.814   9.586   1.492 -0.1528 -0.0357 -0.2577
15990W        W32174   6.471  12.583  11.342 -0.2344  0.1051  0.3477
15991W        W32175  15.513  15.437   1.778  0.0441  0.1518 -0.1103
15992W        W32176   1.547   9.753   1.201 -0.0695 -0.1851 -0.1462
15993W        W32177   9.012   2.397   3.041  0.1474  0.1509 -0.4118
15994W        W32178  15.801   8.497   3.657 -0.0054 -0.0846  0.2111
15995W        W32179   7.284   9.088  12.168 -0.0888  0.0620  0.5199
15996W        W32180  18.113   7.610  15.068 -0.2942 -0.2440 -0.1529
15997W        W32181  11.044  16.978   3.708  0.4044  0.1209 -0.2199
15998W        W32182   6.364  13.891  11.680  0.1936  0.3721 -0.0643
15999W        W32183  17.504  15.258   5.076  0.1248 -0.1302  0.0072
16000W        W32184  12.335   7.743   0.241  0.2880 -0.1445 -0.1035
16001W        W32185  14.645   2.587   0.878 -0.0044 -0.1009 -0.0659
16002W        W32186  11.822   0.892  13.985  0.1728  0.1558  0.3465
16003W        W32187   2.352  10.673   5.188 -0.0624  0.1647  0.1871
16004W        W32188   4.312   3.667  12.709 -0.1005 -0.0158 -0.1446
16005W        W32189  13.539  11.539   2.975 -0.0479  0.1475  0.3074
16006W        W32190   1.274   0.707  11.357  0.2193 -0.1784 -0.1387
16007W        W32191  14.258  11.280   2.781 -0.0278 -0.2616  0.3338
16008W        W32192   6.550   5.074  11.640 -0.1131  0.2745  0.0771
16009W        W32193   1.935   9.903  15.747 -0.0360 -0.1790  0.0109
16010W        W32194   2.332  13.046  11.872  0.0319  0.2256 -0.1204
16011W        W32195  12.530  12.029   4.381  0.1794  0.0912 -0.0856
16012W        W32196   6.481  14.431   2.241 -0.0419  0.0842 -0.1564
16013W        W32197   6.957   2.168   0.579  0.0082  0.1325 -0.2950
16014W        W32198  12.364  14.328   1.864  0.2579  0.0551  0.0986
16015W        W32199   9.748  16.582  14.726 -0.1408 -0.1146  0.0012
16016W        W32200   2.083  15.858  12.541 -0.1954 -0.1153  0.1886
16017W        W32201   5.938  12.015  14.437 -0.0555 -0.1760  0.1183
16018W        W32202   1.409  10.176   0.116  0.3211 -0.0436  0.0163
16019W        W32203   4.792   0.853   4.204 -0.1978 -0.1910 -0.1617
16020W        W32204  12.329  12.937  16.132 -0.2068  0.1059  0.2067
16021W        W32205   5.985   7.371   6.110 -0.1546 -0.1469 -0.2765
16022W        W32206   3.294   5.202  12.286 -0.2133  0.0373 -0.6053
16023W        W32207   7.699   3.425   2.390 -0.0496 -0.1530 -0.0730
16024W        W32208  14.294   2.862  11.569 -0.1708  0.1512  0.1147
16025W        W32209   4.489   5.804   5.505  0.2018  0.1170 -0.1594
16026W        W32210  16.012  15.272  12.643  0.2578 -0.2071 -0.3223
16027W        W32211   9.397   3.133  15.456  0.6631 -0.1427 -0.0798
16028W        W32212  13.496  13.811   3.265 -0.1910 -0.1056  0.3036
16029W        W32213  12.258   9.378  14.099  0.1087  0.0113 -0.1127
16030W        W32214   2.936  13.713   2.529 -0.1835  0.0847 -0.2235
16031W        W32215   5.152  16.418  11.211  0.0743 -0.1374 -0.0026
16032W        W32216   4.090  10.632  14.921  0.0193  0.1533  0.0159
16033W        W32217  11.342   2.670  14.621 -0.4918 -0.0454 -0.2948
16034W        W32218   2.435  10.294   4.142  0.0803  0.0916  0.1761
16035W        W32219  11.311  10.949  12.452 -0.0442  0.0160 -0.1518
16036W        W32220   9.285  14.104   2.446  0.2324  0.4142  0.0685
16037W        W32221  17.974  11.058  16.146 -0.0321 -0.0315 -0.0238
16038W        W32222  16.394  15.766  13.504 -0.1760  0.0604  0.2664
16039W        W32223   0.976  10.228  11.716  0.1869 -0.1298  0.1537
16040W        W32224  12.330   3.395   1.615 -0.1314  0.1448 -0.1880
16041W        W32225  13.646   9.543  11.707 -0.3339 -0.1911  0.0423
16042W        W32226   0.398   4.488  14.264  0.1026  0.1580 -0.0261
16043W        W32227  12.051   6.614   1.865  0.2859 -0.2182  0.0950
16044W        W32228  12.266  11.575  13.117  0.0054 -0.1941 -0.0839
16045W        W32229  10.965   3.338   4.209  0.0174  0.2578  0.3824
16046W        W32230  12.576   9.665   5.538  0.2566 -0.0211  0.1694
16047W        W32231  16.640  16.051  13.092  0.0543 -0.0124 -0.1469
16048W        W32232  15.166  16.441   0.838 -0.2520  0.0157 -0.0104
16049W        W32233  14.714  10.595   0.680  0.1359  0.1707  0.3132
16050W        W32234   1.219   5.792   3.725  0.2495 -0.1715 -0.2289
16051W        W32235  14.312  12.030   1.331  0.2132  0.4041  0.3120
16052W        W32236   6.510  17.844  15.927 -0.1289  0.1067  0.4473
16053W        W32237   6.113   5.126  13.153 -0.0422  0.2724 -0.0016
16054W        W32238   5.156  17.279   2.803  0.0964  0.0043  0.2312
16055W        W32239   5.949   8.597   4.675  0.2201  0.2133 -0.0065
16056W        W32240  13.853   6.593  12.493  0.1872  0.1872 -0.1769
16057W        W32241  12.729   0.213  13.837  0.2524 -0.1141  0.1012
16058W        W32242   0.355   5.473  12.234 -0.0520  0.0548 -0.1497
16059W        W32243   2.701   5.737  14.603 -0.4823 -0.0510  0.1839
16060W        W32244   9.496  14.204   2.868 -0.4030 -0.2402 -0.0669
16061W        W32245  16.127  14.774   2.572  0.0425 -0.1036  0.0092
16062W        W32246  10.742  11.748  12.981 -0.1223  0.2102 -0.3394
16063W        W32247  14.574   7.595  15.816  0.1085  0.1089  0.0772
16064W        W32248   4.941  13.856  13.333 -0.1107  0.2011 -0.1230
16065W        W32249   0.014  14.823   1.731 -0.0489 -0.1072 -0.1261
16066W        W32250  11.104   3.110   0.541  0.1118  0.0571  0.2102
16067W        W32251  15.040  14.593  12.286 -0.0470  0.2656 -0.0175
16068W        W32252   7.288  12.316  14.189 -0.3840 -0.0820  0.1790
16069W        W32253   6.663   9.503   2.420 -0.2524  0.2240  0.2402
16070W        W32254   4.598  10.954   4.316 -0.1212 -0.1183 -0.1624
16071W        W32255   7.878  16.546  13.651 -0.1086 -0.1468 -0.1420
16072W        W32256  10.046   3.815   5.854 -0.2726  0.1229 -0.2927
16073W        W32257   4.300  16.502   2.198 -0.1067 -0.1020  0.1846
16074W        W32258  16.911   7.985   2.217  0.2691  0.0828  0.0621
16075W        W32259   4.595  14.048  14.639  0.0856  0.0403 -0.1948
16076W        W32260  11.353  16.518   4.296  0.0162  0.4243 -0.1644
16077W        W32261  12.858   5.194  11.783  0.1391 -0.1048 -0.1391
16078W        W32262  16.278   8.202  15.023  0.4726 -0.0311 -0.1945
16079W        W32263   1.542   0.550  10.933  0.1417 -0.1096  0.0691
16080W        W32264   2.238   4.744  12.665 -0.2900 -0.1945 -0.1672
16081W        W32265   9.126  12.967  15.553 -0.1579 -0.0810 -0.0702
16082W        W32266  17.143   9.962   2.424  0.0205  0.1496 -0.4510
16083W        W32267  11.539  14.892   2.615  0.3580  0.4546  0.1377
16084W        W32268  13.064  11.592   3.135  0.0804 -0.3678  0.1686
16085W        W32269   4.533  17.101   4.447 -0.0548  0.1991  0.1511
16086W        W32270   4.492   4.697  13.872 -0.1132 -0.0033  0.1617
16087W        W32271   8.735   0.924   2.216  0.3258 -0.0158  0.1724
16088W        W32272   7.495   3.324  13.347 -0.2510 -0.2772 -0.3221
16089W        W32273  15.783  17.169   0.597 -0.1922 -0.2440  0.0479
16090W        W32274   3.584   9.284   2.069 -0.0226  0.2864 -0.0137
16091W        W32275  12.818  13.294   1.489 -0.0373 -0.0959 -0.1210
16092W        W32276  18.179   5.940  13.891  0.3048 -0.1965 -0.0725
16093W        W32277   5.036  11.386   0.277 -0.2921  0.0951  0.2044
16094W        W32278   1.452  10.182   2.879  0.2230 -0.0858  0.0976
16095W        W32279   1.040  15.817  15.339  0.0323 -0.0327 -0.3227
16096W        W32280  12.811   0.701   3.369  0.1690 -0.0919  0.1110
16097W        W32281   7.528  18.031   0.992 -0.0594  0.3784 -0.1087
16098W        W32282   9.484  12.421   2.900 -0.0101  0.2560  0.6141
16099W        W32283   8.014  12.903  11.449 -0.1571 -0.0454 -0.1283
16100W        W32284  15.329   4.278  14.999 -0.1922  0.1041  0.0278
16101W        W32285  10.737   5.532   1.656 -0.1064 -0.0714 -0.2493
16102W        W32286   9.946  10.068  13.269 -0.2190  0.0051  0.1101
16103W        W32287   0.063   3.879   4.650  0.0223  0.0709 -0.2819
16104W        W32288   4.833  14.702   3.312  0.2486 -0.3554  0.0639
16105W        W32289  13.324  13.862   4.916  0.1118 -0.1313 -0.1308
16106W        W32290  10.057   4.264   0.699  0.0862  0.2471  0.1011
16107W        W32291   1.342   7.529  14.936  0.4059 -0.0049 -0.1432
16108W        W32292   8.602   6.245   0.579  0.1724  0.1208 -0.0114
16109W        W32293  18.348  17.448   3.978  0.1802 -0.3452  0.2716
16110W        W32294  13.188  10.866   1.667  0.0467  0.0842 -0.0940
16111W        W32295  11.203   6.581   4.576 -0.2946 -0.1563 -0.0110
16112W        W32296   2.790   4.663   0.214  0.2554  0.2446 -0.1502
16113W        W32297   5.946  17.441  13.342  0.1274  0.2362 -0.1017
16114W        W32298  16.254   5.813  14.295 -0.1242 -0.0103  0.2662
16115W        W32299  18.183   2.293   0.968  0.0218 -0.0381  0.0687
16116W        W32300  14.469  14.855  14.645 -0.1259  0.2523 -0.1955
16117W        W32301   3.680   3.564  11.907 -0.2773 -0.1775 -0.1405
16118W        W32302  16.556  16.858  14.803  0.0558  0.0866 -0.1927
16119W        W32303   0.194   8.081  14.518  0.0843  0.0878  0.0362
16120W        W32304  12.552   3.384   0.112 -0.0013  0.0517 -0.1155
16121W        W32305  15.440  17.363   1.509  0.0166  0.0077  0.1074
16122W        W32306  10.205  13.066   5.092 -0.0900  0.0551 -0.1086
16123W        W32307  10.847   1.914  11.570 -0.1742 -0.2781 -0.0054
16124W        W32308  10.729   5.397  12.007 -0.1206  0.0468 -0.0308
16125W        W32309  16.716   1.025   0.958  0.1032  0.1069 -0.0361
16126W        W32310  11.764   1.413   4.526  0.1316 -0.1043 -0.0263
16127W        W32311   6.684  10.759  14.427 -0.1363 -0.0910 -0.2213
16128W        W32312   4.369  14.473  15.116 -0.0450  0.0712  0.0177
16129W        W32313  17.778  15.795   4.066  0.2662  0.0312 -0.0203
16130W        W32314  12.186   3.311   3.616  0.0984  0.2533 -0.1490
16131W        W32315   5.127   2.090  13.265  0.0851  0.2246 -0.0133
16132W        W32316   6.080  17.856   2.006  0.2544  0.3899 -0.1528
16133W        W32317   9.235  12.931  11.624  0.2968  0.0979 -0.2219
16134W        W32318  10.217  14.547  15.744 -0.2164 -0.0920  0.2178
16135W        W32319   2.377  15.829  15.835  0.0662  0.0454 -0.0868
16136W        W32320  11.993   4.823   4.704  0.0720 -0.2330  0.1935
16137W        W32321  15.528  12.378  12.670 -0.0738 -0.0687  0.2137
16138W        W32322   8.331   2.048   0.290 -0.0932  0.2735  0.0983
16139W        W32323   6.980  14.414  14.345  0.1136  0.2141  0.0328
16140W        W32324   3.625  15.163  15.513 -0.0903  0.0267 -0.0466
16141W        W32325   7.477  11.894  15.094 -0.0177  0.3344 -0.0752
16142W        W32326  16.736  14.929   4.334 -0.0685  0.0246 -0.1117
16143W        W32327   6.693  10.197   0.304 -0.1934 -0.1266 -0.4348
16144W        W32328   8.059  17.664  12.830  0.0938 -0.1198 -0.1885
16145W        W32329   1.492   0.061  15.558 -0.2177  0.3488 -0.0295
16146W        W32330   8.593   0.361  14.957 -0.0079  0.0141  0.0445
16147W        W32331  17.770   3.738  12.125  0.2033  0.3252 -0.0437
16148W        W32332   0.058  18.491   1.778 -0.1250 -0.1641 -0.0198
16149W        W32333  17.702  17.274  15.339 -0.0837 -0.1789 -0.2728
16150W        W32334   0.020   4.913  15.967  0.2168 -0.2991 -0.1590
16151W        W32335   1.400   1.187  11.509 -0.1240  0.0921  0.1591
16152W        W32336   0.807   4.037   3.890  0.1481  0.2467 -0.1151
16153W        W32337   2.269  13.632   0.253  0.1866 -0.0052  0.0344
16154W        W32338   4.186  13.661  14.580  0.1235  0.0405  0.3200
16155W        W32339  10.470  18.442  15.944  0.0896  0.0100 -0.1516
16156W        W32340  10.730   5.389  16.051 -0.1138  0.0748 -0.3441
16157W        W32341  13.099   6.849  15.952 -0.0256 -0.2849 -0.2484
16158W        W32342   4.701  17.278   0.088 -0.0637 -0.0142 -0.1096
16159W        W32343   2.726   2.976   2.742  0.3025  0.1534 -0.1097
16160W        W32344   0.694   7.154  13.643 -0.0141 -0.1202 -0.0841
16161W        W32345  11.232  10.217  13.903  0.1593  0.1346  0.2206
16162W        W32346   0.858   2.215  15.673  0.0989 -0.0041 -0.1292
16163W        W32347   2.363   3.213   4.124  0.1930  0.0123  0.1787
16164W        W32348  11.929   5.346   1.589  0.3023  0.2309 -0.0787
16165W        W32349  14.593  18.233  14.644  0.0052  0.1619  0.3515
16166W        W32350  10.970   9.452  14.058 -0.0082  0.0194 -0.3325
16167W        W32351   1.190  15.119   4.715 -0.0745 -0.1904 -0.0059
16168W        W32352   2.061  13.535  14.879 -0.4580 -0.1824  0.0252
16169W        W32353   4.203   1.709  13.112 -0.0553 -0.0294  0.0681
16170W        W32354   5.812  15.594  13.751 -0.1551  0.0636  0.0070
16171W        W32355   2.608   2.113  15.011  0.1288 -0.3417 -0.1329
16172W        W32356   9.917   2.455   5.651 -0.1131 -0.0973 -0.0280
16173W        W32357  10.011   0.001  12.741  0.0407  0.4025 -0.2343
16174W        W32358   3.092  14.932  12.733 -0.2260 -0.2095 -0.1804
16175W        W32359  13.138   9.988  13.050 -0.1049  0.0489 -0.1966
16176W        W32360  10.774   7.850   3.700  0.0783 -0.2814 -0.2310
16177W        W32361   6.307  11.871   1.629 -0.1442 -0.2577  0.3200
16178W        W32362  14.375  17.608  11.026 -0.1920 -0.2125  0.0443
16179W        W32363   1.458   7.299   0.880 -0.1185 -0.0889  0.0963
16180W        W32364   1.085   2.067   4.242  0.3022 -0.0464  0.2921
16181W        W32365  11.110  12.779  13.778  0.0034 -0.2175 -0.2987
16182W        W32366  16.743   0.558  13.312  0.0899 -0.2025 -0.1234
16183W        W32367  18.470   9.739  14.678 -0.0072 -0.0260  0.3158
16184W        W32368   1.893  17.537  12.539 -0.0399 -0.1403 -0.0460
16185W        W32369   3.820   2.499   2.498  0.0362  0.2012 -0.2578
16186W        W32370  13.495  12.466   4.015 -0.1898  0.0093  0.0965
16187W        W32371  12.145   1.399  13.152  0.1847  0.2625  0.0596
16188W        W32372  18.321  15.255  12.719 -0.0329 -0.2757 -0.1036
16189W        W32373  10.858   2.504  13.824 -0.0724 -0.2066  0.0202
16190W        W32374  11.162   1.885  14.343 -0.0148 -0.0681  0.0233
16191W        W32375   9.906  10.194  12.765 -0.0711 -0.2280  0.0324
16192W        W32376  13.112   9.283   2.338  0.0806  0.1871 -0.0725
16193W        W32377   3.676   7.702  13.378  0.1410  0.2730  0.1194
16194W        W32378   3.640   9.058   3.113 -0.1724  0.0156  0.1622
16195W        W32379   6.246   7.737  12.912  0.0252 -0.1415  0.0457
16196W        W32380   0.606  15.566  13.775  0.4116  0.1313  0.0981
16197W        W32381  11.820   2.196  16.115 -0.0139 -0.1923 -0.0314
16198W        W32382  15.256  10.471   1.202  0.1157 -0.0609 -0.0905
16199W        W32383  12.818   8.334   5.232  0.1293 -0.3701 -0.4041
16200W        W32384   4.278   6.507  11.842 -0.0125  0.2112  0.0556
16201W        W32385  10.741  17.427  12.592  0.0741  0.1810  0.1407
16202W        W32386  13.845   8.314   2.010  0.0443 -0.0030 -0.0156
16203W        W32387   2.049   6.402   0.377  0.3991  0.0789  0.0495
16204W        W32388  13.826  16.912  11.536 -0.4301 -0.3705 -0.1186
16205W        W32389  15.627  10.045   2.943 -0.0463  0.0931 -0.4113
16206W        W32390  11.120  17.439  13.813  0.0752  0.0430  0.1440
16207W        W32391  12.433  14.541  13.683 -0.2243  0.1328  0.1254
16208W        W32392  11.129  13.459   0.256 -0.0321  0.1259 -0.0281
16209W        W32393  14.022  17.082  12.937  0.0945 -0.1222  0.1103
16210W        W32394   9.673   2.131  12.719 -0.3894  0.0734 -0.0227
16211W        W32395  14.908   5.404  15.359 -0.0263 -0.0346 -0.1029
16212W        W32396  10.315   7.631   4.012  0.3233  0.1151 -0.1025
16213W        W32397  14.774   0.147   1.026 -0.1463 -0.4144  0.0724
16214W        W32398   1.547   4.140  12.138 -0.2002  0.3027 -0.0292
16215W        W32399  16.142  12.543   0.349  0.0159  0.2437  0.2572
16216W        W32400   5.745  17.374   2.212 -0.1347  0.1508 -0.2673
16217W        W32401   8.729   5.500   4.853  0.2042 -0.1747 -0.1572
16218W        W32402  17.062  11.359  13.139 -0.0004  0.0640 -0.2584
16219W        W32403   4.299  13.864  11.412  0.0569 -0.2599  0.0403
16220W        W32404   7.717  14.093   2.019  0.2138  0.0040 -0.0161
16221W        W32405  15.842   5.315   0.678 -0.1613 -0.0430 -0.0518
16222W        W32406  11.932   5.964   2.787 -0.1339  0.0969 -0.0302
16223W        W32407   3.552   8.039  11.654  0.2073 -0.1246 -0.0106
16224W        W32408   0.815   3.157   4.348 -0.2145  0.1692 -0.1389
16225W        W32409   5.243   9.171  15.350  0.0534 -0.0314  0.0242
16226W        W32410  17.395   7.832  11.924 -0.0644 -0.0228  0.0621
16227W        W32411   9.764  17.946  14.283  0.0451 -0.1066  0.2179
16228W        W32412  16.686   7.340  14.014  0.4166 -0.2754 -0.0301
16229W        W32413   8.714   6.570   5.322  0.1027  0.3968  0.0015
16230W        W32414   5.854  10.686  13.665  0.1206  0.1712  0.1257
16231W        W32415   5.231   6.498   0.117 -0.2377 -0.3233  0.1411
16232W        W32416  10.812   2.322  15.529 -0.1242 -0.0990 -0.2687
16233W        W32417   1.409  13.234  11.714 -0.0053  0.0516 -0.1399
16234W        W32418   4.876  17.873  11.162 -0.1505  0.3711  0.0460
16235W        W32419  12.572  17.058  14.499 -0.0278  0.5334  0.3209
16236W        W32420  18.508   0.910  10.312  0.1560 -0.2251 -0.2919
16237W        W32421   1.921  11.845  14.272  0.2442 -0.0729  0.2854
16238W        W32422  15.832  15.633  12.405  0.0457  0.0758  0.3424
16239W        W32423  12.488  16.435  12.086  0.0610  0.1093 -0.2429
16240W        W32424   7.235   9.570   1.657 -0.1653  0.1808  0.0035
16241W        W32425  15.646  17.842   4.415 -0.0260 -0.4193 -0.3361
16242W        W32426  17.890   1.317   4.202  0.2095  0.1370  0.0693
16243W        W32427   4.752   3.254   5.228 -0.2862 -0.1230 -0.3088
16244W        W32428   7.207  14.233   5.189  0.1576  0.0559 -0.1130
16245W        W32429   8.143  13.505   2.800 -0.3685 -0.1850  0.3894
16246W        W32430  17.640  12.479  14.272  0.2972 -0.1618  0.0514
16247W        W32431  17.694  16.561   1.515 -0.1878 -0.0142 -0.2082
16248W        W32432   8.843   5.203   4.486  0.1002  0.3141  0.0013
16249W        W32433   2.834   0.246   1.111 -0.0144 -0.0469 -0.1836
16250W        W32434  18.340   0.437  11.021  0.1605 -0.1573 -0.0805
16251W        W32435   6.359   9.055   5.462  0.0647  0.0309  0.2034
16252W        W32436   9.839   9.986  11.179 -0.0915 -0.0054  0.0363
16253W        W32437   5.711   8.106   1.754  0.0362  0.0171 -0.1285
16254W        W32438   2.135  18.014   4.134  0.0763  0.0163  0.2837
16255W        W32439   2.344   7.638  11.679 -0.0467  0.0236  0.0740
16256W        W32440   0.600  12.811   4.129 -0.1696  0.1660 -0.1572
16257W        W32441   9.635   9.057  14.614 -0.1347 -0.3148 -0.0218
16258W        W32442  12.837   8.909   6.162 -0.3873 -0.6064 -0.0194
16259W        W32443  18.158  10.477  14.954 -0.0952  0.0996  0.3906
16260W        W32444  13.637  12.379  12.703 -0.2738 -0.0277  0.2333
16261W        W32445  12.284   1.384   4.468 -0.2682 -0.1524 -0.2213
16262W        W32446  14.792   7.018   2.724 -0.1191  0.0405  0.2063
16263W        W32447   2.915  16.290  15.814  0.1448 -0.2129  0.2693
16264W        W32448   7.670  10.498   1.362  0.0852 -0.0287 -0.0719
16265W        W32449   3.072   2.601   4.125 -0.2619 -0.1504 -0.4036
16266W        W32450   4.018   3.044   0.036  0.1484 -0.0891 -0.1290
16267W        W32451  12.195   8.817   3.814  0.2032 -0.1080  0.1224
16268W        W32452   9.668   2.169  13.651 -0.1509  0.1048  0.1282
16269W        W32453   9.379  10.741  13.579 -0.1365 -0.3543 -0.3851
16270W        W32454   8.542  13.683   1.791 -0.2078  0.0811  0.1736
16271W        W32455  16.932   6.425   5.881 -0.0512  0.0251 -0.1678
16272W        W32456  14.183  10.286   4.799  0.0707 -0.0558 -0.1769
16273W        W32457   1.860  14.576  11.200 -0.0442 -0.2292  0.4205
16274W        W32458   4.280  14.680  12.984  0.1476 -0.1600 -0.1793
16275W        W32459   5.617  12.616   2.314  0.1229  0.1801  0.1804
16276W        W32460  17.090   6.478  13.527  0.2391  0.0724 -0.0635
16277W        W32461   6.847   7.772   2.568 -0.2142 -0.1244  0.0307
16278W        W32462  13.084   5.349  14.979  0.1457  0.1186  0.0085
16279W        W32463  13.774  17.047  13.434  0.0156  0.0307 -0.2146
16280W        W32464   3.500   3.921   4.077 -0.2118  0.4752 -0.0036
16281W        W32465   1.124   6.770   0.563 -0.0758  0.1215  0.2346
16282W        W32466   2.040   9.465   5.257  0.3128 -0.3892  0.0566
16283W        W32467  11.594   4.630  15.441  0.1593 -0.1936 -0.1354
16284W        W32468  13.850  10.626  12.735  0.4273 -0.0064 -0.0817
16285W        W32469  13.876  11.917  10.448  0.0675  0.0561 -0.1719
16286W        W32470  16.762  14.748   1.279  0.1849  0.0822  0.0905
16287W        W32471   5.565   1.905   1.297 -0.5610 -0.1255  0.0384
16288W        W32472   1.028  14.793  12.112  0.1714 -0.2302 -0.1298
16289W        W32473  12.928   8.659  12.863  0.0718  0.0096  0.3638
16290W        W32474  18.239  13.251   5.050 -0.2586 -0.1251 -0.0397
16291W        W32475   4.571  17.638   4.308  0.1089 -0.0358 -0.3125
16292W        W32476   3.269   2.742  13.209  0.0349  0.1837  0.3056
16293W        W32477  16.529   2.123   1.637 -0.3666 -0.0669 -0.0339
16294W        W32478   3.884  11.068   0.877  0.1109  0.0785  0.2525
16295W        W32479  15.815  17.010  10.215 -0.1137 -0.0902  0.0752
16296W        W32480  16.461   1.688   0.286 -0.0379  0.1303 -0.1963
16297W        W32481  18.362  13.996   2.058 -0.0271 -0.1504 -0.3129
16298W        W32482   5.155   0.146   1.647  0.2933 -0.2533 -0.3370
16299W        W32483  14.125   4.556   1.974  0.0190  0.0182 -0.0951
16300W        W32484  13.314  16.999  13.238 -0.0670  0.0147  0.4661
16301W        W32485  14.035   2.888  12.482  0.2781  0.0951 -0.1360
16302W        W32486  10.661   4.338  12.066  0.1087 -0.1523  0.0992
16303W        W32487  16.186   1.459   3.462  0.0349 -0.1696  0.2086
16304W        W32488   8.040   1.322  12.023  0.3820  0.1666  0.0429
16305W        W32489  15.624   2.482   2.606  0.1852  0.2382  0.1477
16306W        W32490   1.690   6.820   1.970  0.0531  0.1093  0.1269
16307W        W32491  17.463   3.418  15.615 -0.2172 -0.0542 -0.0681
16308W        W32492  11.186   7.022  14.642 -0.1081  0.0921  0.0338
16309W        W32493  16.304  16.237   6.068  0.0928  0.0267 -0.0558
16310W        W32494   7.247  17.773   4.725  0.0980  0.2501 -0.2369
16311W        W32495   4.841   1.126   5.795  0.0745 -0.0610 -0.1576
16312W        W32496  13.973   6.672  12.983 -0.0790 -0.0024 -0.0528
16313W        W32497  18.066   9.439   2.155 -0.3470 -0.0800 -0.1682
16314W        W32498   0.359   5.941   3.441  0.0508  0.1976 -0.2711
16315W        W32499  11.154   6.597  14.932  0.1696  0.1814  0.0111
16316W        W32500  16.845   2.381   2.543  0.2699  0.0138  0.0218
16317W        W32501  11.127   9.758   0.607  0.1209  0.1385  0.4087
16318W        W32502   9.660  18.118  14.756 -0.2688 -0.0528  0.0389
16319W        W32503   1.122   9.327   4.275  0.1497 -0.0507 -0.0410
16320W        W32504  14.832   8.647   4.446  0.0122  0.2028 -0.0617
16321W        W32505   7.145  13.159  15.888  0.0113  0.0410  0.0865
16322W        W32506   5.772   8.090   0.759  0.0449 -0.1548 -0.3715
16323W        W32507   5.236   5.408   5.314  0.2674  0.0934 -0.0579
16324W        W32508  15.848  12.526  14.765 -0.0139  0.2574 -0.2074
16325W        W32509   6.342  17.519   4.429 -0.0669 -0.1355  0.1168
16326W        W32510   1.674  18.173   1.883 -0.3592 -0.2894  0.0840
16327W        W32511   5.604   0.210  13.689  0.1247 -0.0253 -0.2282
16328W        W32512  18.498  10.656   5.302 -0.1965  0.0016 -0.0859
16329W        W32513   1.278  11.790  13.601  0.0524  0.0944  0.3769
16330W        W32514   6.355  10.018   1.813 -0.1485 -0.0409  0.1686
16331W        W32515   6.451  14.401   1.750 -0.1334 -0.1512 -0.1454
16332W        W32516   6.760   8.131  13.995 -0.3088 -0.0791  0.2051
16333W        W32517   6.268   2.435  16.037  0.0105  0.3445  0.3755
16334W        W32518   4.638  18.296   3.668 -0.2392 -0.0198 -0.2578
16335W        W32519   3.344   9.684   1.895 -0.2626 -0.2710 -0.1684
16336W        W32520  10.826   4.185  10.832  0.1013  0.0986 -0.2641
16337W        W32521   7.639   8.852  14.198  0.2091  0.1875 -0.3423
16338W        W32522   2.639   2.470   2.092  0.3113  0.0642 -0.2214
16339W        W32523  18.470  16.384  11.009 -0.2036 -0.0406 -0.0294
16340W        W32524   8.473  10.647  13.452  0.0778 -0.1357  0.1537
16341W        W32525   6.589  11.466  11.186  0.0202  0.1110 -0.1123
16342W        W32526   4.441  14.770   5.974  0.0292  0.2285 -0.0798
16343W        W32527  12.445  10.036   3.075 -0.2701 -0.1551 -0.1171
16344W        W32528  11.424  11.752   2.423  0.1347  0.1788  0.2254
16345W        W32529   4.144   3.812  11.113 -0.2269 -0.1693 -0.0193
16346W        W32530   9.519   7.484  13.881 -0.0355  0.0987 -0.1204
16347W        W32531   8.362   7.045   4.496 -0.0573  0.1525 -0.1895
16348W        W32532   2.048   5.017  12.123  0.3340 -0.0945  0.0377
16349W        W32533  13.203   7.581   5.117 -0.0498  0.0822 -0.2572
16350W        W32534   7.210   0.798  14.087 -0.1547  0.3318  0.1361
16351W        W32535  17.061  14.768   2.287  0.0242  0.2278 -0.2885
16352W        W32536  17.854   5.386  16.046 -0.0597 -0.0803 -0.0164
16353W        W32537   0.145   5.889   2.059 -0.1127 -0.3403 -0.2080
16354W        W32538  15.397  12.190  14.917  0.2738  0.0746  0.1475
16355W        W32539   6.084   5.931  14.654 -0.1733 -0.1101 -0.0110
16356W        W32540   3.025  14.451  12.878 -0.0672  0.0511  0.2296
16357W        W32541   1.130   3.373   1.208 -0.2854 -0.0809  0.0463
16358W        W32542  17.891   4.786   1.724  0.1254 -0.1472  0.0366
16359W        W32543  10.978   0.038   3.971 -0.2343  0.2545  0.0243
16360W        W32544  16.820   9.017   1.518  0.1481  0.0406 -0.1618
16361W        W32545   4.190   1.543  15.937  0.2371  0.0335  0.5561
16362W        W32546   7.892  13.907   4.399  0.1423  0.0111 -0.2107
16363W        W32547  16.309   7.183  13.646 -0.0555  0.0303 -0.2885
16364W        W32548   1.766   4.550   4.000  0.2331 -0.1800  0.1840
16365W        W32549  12.042  14.367   1.073 -0.0010 -0.0227 -0.1254
16366W        W32550  10.545  10.268   0.076 -0.0950  0.2537  0.1133
16367W        W32551   9.176   7.323   0.788 -0.0612 -0.1687 -0.1376
16368W        W32552   3.956   0.836   0.513 -0.0498 -0.1624 -0.2712
16369W        W32553   0.802  11.826   3.535 -0.0595 -0.1500 -0.0258
16370W        W32554  13.383  16.682  11.260 -0.0706  0.0539 -0.0396
16371W        W32555  17.932   2.262  14.886 -0.0037 -0.0243  0.0668
16372W        W32556  17.861   3.356  16.122 -0.2386  0.1508  0.1461
16373W        W32557  10.896  16.017  13.470  0.0061 -0.0991 -0.0062
16374W        W32558  15.119   2.613  12.750  0.1526 -0.0133 -0.0813
16375W        W32559   8.029  14.920  13.759 -0.1121  0.1107 -0.0841
16376W        W32560  11.177   8.274   3.172  0.0623  0.1762 -0.3028
16377W        W32561  11.314  14.865  11.668  0.1285 -0.2582  0.3034
16378W        W32562  18.171   6.698   2.645  0.4628 -0.0687 -0.0673
16379W        W32563   9.435  16.358   0.299  0.4165 -0.0821  0.0934
16380W        W32564   7.351   5.520   0.460  0.0419  0.0676 -0.0909
16381W        W32565  16.192  13.302   5.122  0.1480 -0.0658  0.0371
16382W        W32566  10.368  14.043  13.745 -0.2211 -0.0043  0.2743
16383W        W32567   7.276   6.058   2.832 -0.1016 -0.0096  0.0542
16384W        W32568  12.161   2.072   1.783 -0.4712 -0.1880 -0.2130
16385W        W32569  10.108   6.864   0.347 -0.2560 -0.1206  0.4479
16386W        W32570  14.548  16.137  12.159  0.1663 -0.0234 -0.1828
16387W        W32571   2.907   5.950  12.768  0.1103  0.2997 -0.0656
16388W        W32572   4.980   5.785  14.631 -0.1355  0.0619 -0.0658
16389W        W32573  11.158   2.935   3.367  0.1661 -0.2398 -0.1448
16390W        W32574  12.322  15.477   0.539  0.2371  0.1175  0.2633
16391W        W32575   3.525   6.425  11.561  0.4347 -0.0427  0.3582
16392W        W32576  17.405   5.757   1.274  0.0651  0.0851 -0.2877
16393W        W32577  12.873  14.246   3.743 -0.0291  0.2387  0.0840
16394W        W32578   9.144   3.005  12.837 -0.0193  0.3009 -0.1875
16395W        W32579   2.400  18.208  10.253  0.1542 -0.1322 -0.1347
16396W        W32580  15.926  12.583  12.117  0.1431 -0.0472  0.3571
16397W        W32581   3.574   4.085   3.016 -0.0886  0.3712 -0.1107
16398W        W32582  13.916  13.670  11.171  0.0054 -0.0650 -0.1447
16399W        W32583  12.944  13.132   0.591 -0.0701 -0.1512 -0.1822
16400W        W32584   8.416  12.753   2.826 -0.1065 -0.4580 -0.0090
16401W        W32585   0.698  10.225  15.140  0.0011 -0.3652 -0.2153
16402W        W32586   5.563  15.573  12.333 -0.0961 -0.0745  0.0554
16403W        W32587   9.196   8.207   3.570  0.1015  0.0228 -0.1709
16404W        W32588   6.210  18.467  12.036 -0.0238  0.0573 -0.0969
16405W        W32589  16.522   7.059   0.793 -0.1609 -0.3942 -0.1350
16406W        W32590   7.494  15.253   2.671  0.1916  0.0368 -0.2099
16407W        W32591   3.662  17.009  11.303 -0.0154  0.0197 -0.1865
16408W        W32592   2.497   5.905  14.119 -0.0710 -0.3229 -0.0463
16409W        W32593  13.609   4.302  16.032  0.0803  0.1654 -0.2126
16410W        W32594  16.901   9.901   3.442  0.0008  0.1069 -0.0104
16411W        W32595   9.605  11.020   3.392 -0.0490 -0.1762  0.3926
16412W        W32596  10.311   5.103  13.128 -0.1761  0.1841 -0.1318
16413W        W32597   8.552  15.518   3.619 -0.1371 -0.0472 -0.2115
16414W        W32598   4.342  14.205   1.285 -0.1032  0.0815 -0.0120
16415W        W32599   0.186   7.768  13.169  0.2230  0.0649 -0.1062
16416W        W32600  11.925   9.972  15.176  0.0544 -0.2294 -0.1699
16417W        W32601  15.029   2.872   2.156  0.2583  0.0737 -0.1127
16418W        W32602   1.344   8.117  12.816  0.4021 -0.0309  0.3119
16419W        W32603  12.375  17.961   4.648 -0.2089  0.1757  0.0887
16420W        W32604   1.770  17.471  12.993 -0.2592 -0.0042 -0.1235
16421W        W32605   1.224   1.416  14.983 -0.0425 -0.2579 -0.0386
16422W        W32606   6.610   5.135  15.377  0.3011 -0.2615  0.2164
16423W        W32607   0.153  11.796   3.921 -0.0140 -0.2997  0.1011
16424W        W32608   5.116   1.658  12.799 -0.1204  0.3379  0.3253
16425W        W32609  16.911   9.790   2.850 -0.1714  0.2067 -0.1698
16426W        W32610  12.090   3.458   0.643  0.2256  0.1773 -0.1835
16427W        W32611  10.617   2.913   0.645 -0.0178  0.1276 -0.0532
16428W        W32612  16.044   8.368   1.426 -0.1213 -0.1494 -0.2239
16429W        W32613   0.611   9.554   4.451 -0.1840 -0.1143 -0.1910
16430W        W32614   6.360  10.880  14.032  0.2706  0.0543  0.2210
16431W        W32615  15.490  17.620   3.055  0.2157  0.2015  0.0744
16432W        W32616  16.251   8.204   3.668  0.0850 -0.2982 -0.2579
16433W        W32617   8.645   7.570  13.403 -0.2565 -0.0187 -0.3238
16434W        W32618   2.924   8.660   3.628 -0.2713  0.0883  0.0241
16435W        W32619  10.172  17.965   3.071  0.0533 -0.0862  0.2381
16436W        W32620  12.806  17.561   2.926  0.2517 -0.1265  0.0758
16437W        W32621   7.793  16.932   2.477  0.2403  0.1774  0.2823
16438W        W32622  11.104  14.516  13.970  0.1788 -0.1707 -0.1543
16439W        W32623  12.547   0.294   4.214 -0.0002  0.0243 -0.1014
16440W        W32624   4.285  10.558   4.614 -0.1569  0.0735  0.0563
16441W        W32625  16.170   6.758   1.653 -0.2246 -0.0523  0.2251
16442W        W32626   7.386   4.551   1.159 -0.0617 -0.3577 -0.0216
16443W        W32627   9.454   7.629   1.667 -0.3785 -0.2291 -0.1403
16444W        W32628   3.162  18.371  15.876  0.1473  0.1326 -0.0677
16445W        W32629   5.778  17.670  12.438 -0.2175  0.3506 -0.0781
16446W        W32630   3.140   3.050   1.086  0.0198 -0.1158 -0.0767
16447W        W32631  13.340   4.042  11.636  0.0423  0.1150  0.0515
16448W        W32632  12.830   8.569   2.342  0.4840 -0.1532  0.0357
16449W        W32633   1.002  16.447   5.173 -0.0221  0.3237 -0.0279
16450W        W32634  13.924  12.247  12.262  0.0854  0.3492  0.0812
16451W        W32635   7.540   5.028   0.377  0.1094  0.1418  0.0766
16452W        W32636  12.465  12.967   0.466  0.2756  0.1229 -0.1482
16453W        W32637   4.366   9.795  13.906  0.1713  0.0852 -0.3569
16454W        W32638   7.043   1.372  15.629 -0.0007 -0.0944  0.0276
16455W        W32639   4.656   3.510   0.423 -0.1269  0.0767 -0.0887
16456W        W32640   3.822  15.407  10.827 -0.3165 -0.3044 -0.0729
16457W        W32641   9.645  16.712   3.138  0.2257 -0.1773  0.1128
16458W        W32642  10.936   0.205   0.619  0.2208  0.3160  0.0655
16459W        W32643  16.300   5.348  11.332 -0.1884 -0.0367  0.1292
16460W        W32644   3.705  11.326  13.606 -0.1823  0.2727  0.1432
16461W        W32645  11.739   6.422   2.841 -0.2623 -0.0715  0.1337
16462W        W32646   4.210   4.780  14.507  0.0642  0.0465 -0.2740
16463W        W32647   4.225   8.550   3.593  0.3876 -0.1661  0.0588
16464W        W32648  14.627   1.040  12.715 -0.1967  0.1643 -0.3892
16465W        W32649   4.593   8.364  15.331  0.0348  0.1529 -0.0841
16466W        W32650   6.433   1.455   0.348  0.0288  0.0015  0.1232
16467W        W32651  11.511  16.946  15.366 -0.0185 -0.0162 -0.0336
16468W        W32652   5.152   9.349  13.639 -0.0641  0.0315  0.1298
16469W        W32653  15.178   0.161   4.481  0.0820  0.0572  0.1896
16470W        W32654  17.812   7.986   1.718  0.0653  0.0041  0.1284
16471W        W32655  15.888   2.606  10.962 -0.2493  0.2693 -0.0055
16472W        W32656  12.350  17.514   1.384 -0.0980  0.1142  0.0249
16473W        W32657  13.112   8.827  14.177  0.1468  0.0614  0.1036
16474W        W32658  17.348  14.581  12.542  0.3371 -0.0490 -0.3322
16475W        W32659  16.531   7.225  14.577  0.0116  0.0229  0.0768
16476W        W32660  15.798  15.507  16.082  0.0788  0.0826 -0.1767
16477W        W32661  16.472   7.517   0.523 -0.0201 -0.1294  0.1537
16478W        W32662  18.022  16.218   3.325 -0.4159  0.1242 -0.1212
16479W        W32663   2.851   5.862   0.426 -0.0713 -0.0223  0.1245
16480W        W32664  13.582  16.285  13.469 -0.0891  0.1508 -0.0828
16481W        W32665   6.618   4.878  13.484 -0.4363  0.1599  0.0020
16482W        W32666   9.196   2.830   3.055  0.0560  0.1736  0.1647
16483W        W32667   8.510   0.256  14.470  0.2065  0.2380 -0.0641
16484W        W32668  14.813  13.997   2.147 -0.2984 -0.1552  0.0463
16485W        W32669   1.364   9.321   5.334 -0.1243 -0.2363 -0.2791
16486W        W32670  14.742  18.153  13.160 -0.0376  0.3554  0.0473
16487W        W32671   3.164  16.078   2.885  0.0129  0.0357  0.1542
16488W        W32672   8.193   8.607  15.579 -0.1575 -0.1038 -0.0623
16489W        W32673  15.099   7.053   2.303 -0.1436  0.1512 -0.2343
16490W        W32674   6.211   5.520   2.354 -0.0361 -0.2141 -0.2884
16491W        W32675  18.407  17.077  14.075 -0.0990  0.2645  0.2409
16492W        W32676   7.778   5.601  14.730 -0.4097  0.0287 -0.2045
16493W        W32677  15.374   1.516   5.008  0.2177 -0.2083  0.2229
16494W        W32678   2.640   1.325  12.389  0.1866  0.1351 -0.3306
16495W        W32679   5.298   6.611   4.657 -0.2022  0.2892 -0.0576
16496W        W32680   3.801  16.948   2.753 -0.1495  0.0678 -0.3077
16497W        W32681  14.119   1.478   4.884  0.0721 -0.1596  0.0645
16498W        W32682   3.662  12.122   3.893  0.0942 -0.0375  0.0205
16499W        W32683  14.657   7.232  13.609 -0.0908  0.0152  0.4357
16500W        W32684   2.525   1.202  15.515 -0.3099 -0.2309 -0.1723
16501W        W32685  10.072   2.249  14.091 -0.0101 -0.3706 -0.2212
16502W        W32686  13.627   0.155   0.612  0.1160  0.0939  0.0062
16503W        W32687   4.950   7.335   1.491 -0.0266  0.0070 -0.2721
16504W        W32688   7.173  10.552   1.341 -0.0630  0.0709 -0.1366
16505W        W32689  16.256  18.042   2.694 -0.0341  0.0870 -0.0590
16506W        W32690   3.290   2.620   0.109 -0.0855 -0.5893 -0.1591
16507W        W32691   4.328   8.056   1.768  0.2796 -0.4423 -0.2347
16508W        W32692   9.604  14.958  12.548 -0.0649 -0.0645 -0.2659
16509W        W32693   2.237  17.535   5.819  0.0868 -0.1602  0.2976
16510W        W32694   9.996   0.078   1.890 -0.0123 -0.1403 -0.0250
16511W        W32695  10.759   4.577   5.380 -0.0067  0.0254 -0.3047
16512W        W32696  15.836  13.785   0.587  0.0449 -0.3077 -0.0163
16513W        W32697   0.343  17.686  10.818 -0.0871  0.0883  0.2525
16514W        W32698   6.323   0.822   4.851  0.0101  0.2036  0.0056
16515W        W32699  14.458   1.094  14.812 -0.2928  0.2194  0.0160
16516W        W32700  17.164  17.071  12.769 -0.2239 -0.1378  0.1941
16517W        W32701   7.776   5.774   0.501 -0.1248 -0.3710  0.2287
16518W        W32702  17.806  12.117   1.470 -0.1002 -0.2984 -0.0711
16519W        W32703  16.019  14.619  12.169  0.5351  0.2865 -0.0633
16520W        W32704  14.488  13.820   0.880 -0.1062 -0.0043  0.0331
16521W        W32705   4.170   8.562   4.196 -0.2625  0.2496 -0.0021
16522W        W32706   1.413   0.944   2.537  0.1217 -0.0389  0.1758
16523W        W32707   5.237   8.754   0.965  0.1343  0.0579 -0.0919
16524W        W32708   3.141  10.699  13.017  0.2714  0.2358  0.2536
16525W        W32709   2.109   1.798   4.714  0.1493 -0.4667 -0.0987
16526W        W32710  16.176   8.910  13.206 -0.0501  0.2203 -0.0265
16527W        W32711   8.831   0.679   3.813  0.2866 -0.0307 -0.1015
16528W        W32712   3.342   4.704  12.482 -0.1335 -0.0135 -0.1927
16529W        W32713  18.244  11.635  12.044 -0.0060 -0.1507 -0.0084
16530W        W32714   5.256  18.371  13.816 -0.3742 -0.0985 -0.3084
16531W        W32715   2.136   2.904   1.810  0.0026  0.2753  0.1358
16532W        W32716   9.890  13.767  15.639  0.1251  0.0568  0.2609
16533W        W32717  12.455   7.526   3.067 -0.0455  0.3146 -0.2042
16534W        W32718   1.156  10.272   5.102  0.0307  0.0587 -0.0530
16535W        W32719   4.329   4.643  12.979 -0.0568 -0.1369  0.0519
16536W        W32720  14.670  17.268   4.239 -0.1047  0.1043  0.2059
16537W        W32721  12.909   2.030  10.812  0.2821  0.1918 -0.0396
16538W        W32722  17.443   7.631   1.685  0.2963  0.1289  0.1683
16539W        W32723   1.636   4.774  11.446  0.0491 -0.0302  0.0967
16540W        W32724  18.215   8.569  10.965 -0.6158  0.1847  0.1059
16541W        W32725   0.114  18.353  11.807  0.2099 -0.0371  0.0100
16542W        W32726  15.223  18.141   4.486  0.1351 -0.4619  0.3697
16543W        W32727   0.518   1.025   4.071  0.1874 -0.1446  0.4195
16544W        W32728   7.859   6.040   0.963  0.1446 -0.3590  0.0172
16545W        W32729  16.332   2.954  12.972 -0.1989  0.2025 -0.4354
16546W        W32730   4.816  16.613   2.768  0.0090  0.2959 -0.1215
16547W        W32731   5.704  10.795   5.139  0.0081 -0.3155  0.0001
16548W        W32732  12.022   4.562  15.004  0.0711 -0.0484 -0.0586
16549W        W32733  13.938  12.200   2.403 -0.0883 -0.3075  0.0212
16550W        W32734   8.139   7.155  13.929 -0.1686 -0.1490 -0.2264
16551W        W32735  12.338  10.740   0.307 -0.0701 -0.0591 -0.0755
16552W        W32736  17.566  16.887  15.558 -0.0838 -0.1995  0.2701
16553W        W32737  11.431   1.816   1.081  0.1368  0.3823 -0.0707
16554W        W32738   3.948  11.234   1.884 -0.0592  0.1665  0.2313
16555W        W32739   5.037   3.875  12.114  0.2032  0.1253  0.0581
16556W        W32740  17.270   6.472  12.630  0.3159  0.0444 -0.3366
16557W        W32741   8.134  17.386  14.939  0.1422 -0.1970 -0.1501
16558W        W32742   9.550  10.647  15.104  0.1453  0.3387 -0.1182
16559W        W32743   4.762  14.638   3.804  0.1042 -0.0064 -0.0630
16560W        W32744   5.690   4.753  11.698 -0.2526  0.1340  0.1013
16561W        W32745  13.758  11.149   0.882  0.0035 -0.1984 -0.2567
16562W        W32746  17.686   2.441  14.511  0.1008  0.1254  0.0681
16563W        W32747   2.122   7.486  10.805 -0.3159 -0.3319 -0.0808
16564W        W32748  11.615   0.567   5.819 -0.2805 -0.0615  0.1888
16565W        W32749  13.926   1.796   3.917 -0.1744  0.1629 -0.2665
16566W        W32750  12.482   2.320  12.110  0.2901 -0.4045 -0.0769
16567W        W32751  13.475  11.018  12.649  0.4360 -0.1205  0.3511
16568W        W32752   2.149   6.565   0.835 -0.0654  0.2534  0.1971
16569W        W32753  16.759   7.164  12.230 -0.0278  0.1642  0.0652
16570W        W32754  15.110  13.565   1.858  0.0041 -0.3271  0.3375
16571W        W32755   1.870  15.979   1.625  0.0502 -0.0421 -0.0482
16572W        W32756   9.778   1.715  13.382  0.3308  0.2850  0.0150
16573W        W32757   7.659  15.551   1.784 -0.5653 -0.0095 -0.0218
16574W        W32758   4.906  18.403   1.239  0.0747 -0.2221 -0.1974
16575W        W32759  14.780  12.600   4.641 -0.2031  0.0565  0.4796
16576W        W32760   0.666  11.581   5.355  0.0791  0.0322  0.0128
16577W        W32761   0.072   3.554   3.579  0.0380 -0.0355 -0.3137
16578W        W32762  14.928  15.729  14.990 -0.0540  0.0924 -0.1178
16579W        W32763  18.026  16.912  14.363 -0.0779  0.0690  0.1269
16580W        W32764   2.379   7.902  10.820  0.0656 -0.1350  0.0069
16581W        W32765   1.791   5.194  11.762 -0.2521 -0.0506 -0.0611
16582W        W32766   7.812  15.090  15.280 -0.2188  0.1056  0.2043
16583W        W32767   4.254  12.617   0.932  0.2044  0.1994 -0.2344
16584W        W32768   4.670  16.761  13.316 -0.1564  0.1207 -0.3606
16585W        W32769  17.173   2.891   1.592 -0.0767  0.0500 -0.1520
16586W        W32770  14.407   9.442   4.275  0.0970 -0.3852 -0.0310
16587W        W32771   2.801  16.511   4.259  0.0274 -0.0062 -0.2164
16588W        W32772   4.440   1.515   3.405  0.1492 -0.0684  0.1704
16589W        W32773   1.081   9.309   0.280  0.0751  0.2210 -0.0607
16590W        W32774   4.474   4.999  11.593 -0.2105  0.1057  0.3521
16591W        W32775  12.749  18.399   2.329  0.0065  0.0632  0.0271
16592W        W32776   5.939   7.555   0.473 -0.3698 -0.1355  0.0385
16593W        W32777   4.992  12.566   1.379 -0.0911  0.0183 -0.1780
16594W        W32778   6.244  16.071  14.744  0.3577 -0.0729 -0.1872
16595W        W32779  16.894   8.094   1.292 -0.0547 -0.0249 -0.3736
16596W        W32780  12.373   0.279  14.330 -0.0885  0.1514 -0.0804
16597W        W32781  15.784  15.845  13.433 -0.2669  0.2277 -0.0481
16598W        W32782  13.383  12.498  15.870  0.0550  0.1933 -0.1658
16599W        W32783   6.565   4.799   0.573 -0.5320  0.0437  0.4532
16600W        W32784   3.198   9.578   1.340  0.1381  0.1919 -0.1077
16601W        W32785   5.203  13.930   1.214 -0.0242 -0.2411  0.1289
16602W        W32786   5.575  10.257  11.571 -0.1725 -0.0863  0.0032
16603W        W32787   2.212  14.301   2.258 -0.2394 -0.2462 -0.1094
16604W        W32788   3.331   9.013  12.566  0.1161  0.0087 -0.4351
16605W        W32789   8.555   4.067  15.096  0.3266  0.4366  0.3357
16606W        W32790   8.906  11.677   2.931 -0.2398  0.0141  0.0139
16607W        W32791  10.919   3.224  13.228  0.2765  0.0658  0.0834
16608W        W32792   1.366  14.708  11.299 -0.0207  0.1275 -0.0131
16609W        W32793  15.978  18.456  13.231 -0.0602  0.0953 -0.1640
16610W        W32794  12.794  17.893  11.629  0.0376  0.0359  0.1417
16611W        W32795  14.315   8.150  15.520  0.2398 -0.3217  0.0554
16612W        W32796  14.204   7.656   5.049  0.2316  0.1868 -0.2201
16613W        W32797   9.879  16.444  13.677 -0.1511 -0.4443 -0.1820
16614W        W32798   7.189  14.619  11.234 -0.1074 -0.3045 -0.3209
16615W        W32799   9.437  10.893   2.521 -0.3735  0.4087 -0.0204
16616W        W32800   1.992  15.012   3.714 -0.0281 -0.0326  0.0092
16617W        W32801   4.634   1.753   3.956  0.0678 -0.1738 -0.2235
16618W        W32802   7.273  17.577  15.499 -0.1037  0.2192 -0.2654
16619W        W32803   0.106   7.712   1.870  0.0055  0.1664 -0.0713
16620W        W32804   1.680  16.396  11.460  0.2105 -0.2236  0.0747
16621W        W32805   5.958  16.985   1.101 -0.1806 -0.1815 -0.1613
16622W        W32806   7.643   1.252   3.118  0.0357 -0.1944  0.1439
16623W        W32807   3.199  18.278   0.494 -0.1311 -0.4056 -0.0813
16624W        W32808  12.252  14.004   3.707  0.1446 -0.0036  0.1516
16625W        W32809  12.886  13.842   4.703 -0.1305 -0.0187  0.1619
16626W        W32810   6.897  14.500  12.274  0.0559  0.4295  0.2601
16627W        W32811  14.215  17.945   0.235 -0.0167 -0.1397  0.1994
16628W        W32812   8.778  14.282   6.172 -0.2298  0.3581 -0.0036
16629W        W32813   6.179   8.549   4.024  0.1125  0.1538  0.1653
16630W        W32814  12.685   6.148  11.961 -0.0660  0.0842  0.2014
16631W        W32815  14.744  17.294  11.231 -0.2938  0.0300  0.0264
16632W        W32816   3.078  17.414  14.964  0.2488 -0.2261 -0.0449
16633W        W32817  13.596  11.890  11.274  0.0729 -0.0952  0.1183
16634W        W32818   4.554   4.897  12.060 -0.1652 -0.0934 -0.1453
16635W        W32819  18.068   5.057   3.621 -0.0181  0.0230 -0.2991
16636W        W32820   6.300   4.944  14.146  0.0727 -0.1503 -0.0656
16637W        W32821  14.462   9.732   3.827 -0.0117  0.0628 -0.0523
16638W        W32822   4.497   6.150  13.865 -0.1288  0.0222 -0.1732
16639W        W32823  17.542  14.238   5.591 -0.0701  0.0640 -0.1812
16640W        W32824   3.406   1.955   3.201 -0.0294  0.0908  0.0402
16641W        W32825  14.633  12.511  12.670  0.1699 -0.0652 -0.3915
16642W        W32826  17.176  13.296   0.653 -0.0275 -0.2988  0.0598
16643W        W32827  10.861  14.517   3.988  0.2685  0.2984  0.0706
16644W        W32828  12.602  15.696   6.014  0.0138  0.0245  0.0643
16645W        W32829  10.854   5.878  12.159  0.0235 -0.0142 -0.3448
16646W        W32830  12.694   5.756   3.918  0.2091  0.0782  0.1207
16647W        W32831   9.901  13.675   2.289  0.3708  0.2512 -0.0202
16648W        W32832  12.384  10.010   6.456 -0.0264 -0.1140 -0.3049
16649W        W32833  17.873   2.254  11.991 -0.0722  0.3389  0.2737
16650W        W32834   8.346  16.037  15.424 -0.2360  0.0419 -0.1173
16651W        W32835  12.115  12.146   4.185 -0.0708  0.4046 -0.4154
16652W        W32836   7.647   4.502   4.767 -0.1327  0.0873 -0.0079
16653W        W32837  11.656  16.417   4.706 -0.1046 -0.1113 -0.1962
16654W        W32838  13.889   8.262   3.428  0.3200  0.1894 -0.0420
16655W        W32839   7.043  17.279  15.200 -0.0677 -0.0383  0.1233
16656W        W32840   0.201  14.657  12.074  0.2951  0.1662  0.2075
16657W        W32841   4.018   2.534   3.397 -0.1973  0.2007  0.0716
16658W        W32842  17.473  16.962   5.761  0.0056  0.0786  0.0957
16659W        W32843   3.325  15.092   0.387 -0.2207  0.3784 -0.1175
16660W        W32844   1.531  13.920   2.706  0.1523 -0.1817  0.4021
16661W        W32845   7.635  14.753   4.024 -0.0479  0.0619  0.3870
16662W        W32846   2.025  12.361   2.980  0.1646  0.0827 -0.4595
16663W        W32847  15.214  17.258   0.546 -0.4031 -0.2547  0.1822
16664W        W32848  14.996   5.065  15.719 -0.0020  0.1416 -0.0386
16665W        W32849   7.525   7.138   2.404 -0.2389 -0.0861 -0.0917
16666W        W32850   9.776   6.504   2.892  0.0276  0.0314 -0.0718
16667W        W32851  14.379   7.747   5.570 -0.0902  0.0092  0.1615
16668W        W32852  14.102   1.417  12.014  0.1518  0.0171 -0.2014
16669W        W32853  11.588  18.041   0.214 -0.0663  0.0383  0.1224
16670W        W32854   1.979   8.106   0.682  0.0594  0.4832 -0.0391
16671W        W32855  16.358   0.849  13.229  0.1244 -0.0089 -0.0449
16672W        W32856   2.331   9.073  11.684 -0.3761 -0.0040 -0.1464
16673W        W32857  17.318   3.137  16.111  0.3186  0.1423  0.1290
16674W        W32858  15.197   5.015   4.262  0.2498 -0.2174  0.0222
16675W        W32859   0.670  16.955  11.552  0.0685 -0.0279 -0.2508
16676W        W32860   2.733  12.316  15.493 -0.1433 -0.0592  0.0181
16677W        W32861   7.083  14.039   3.468 -0.1751 -0.1564  0.0524
16678W        W32862   1.234  13.833  15.230  0.0070  0.0104 -0.2166
16679W        W32863   5.365  12.757  15.871  0.1210  0.1447  0.2691
16680W        W32864  15.554  13.930  11.254 -0.0998 -0.0011  0.3904
16681W        W32865  11.069   0.822   4.569  0.0997  0.3840 -0.2771
16682W        W32866   0.669   1.338   3.707  0.0493  0.1484  0.1640
16683W        W32867   3.943  16.115  14.250 -0.0008 -0.1321  0.1446
16684W        W32868  15.752   9.521   4.518 -0.2401 -0.1761 -0.0392
16685W        W32869   7.272   3.084   1.639  0.5359 -0.2634  0.2010
16686W        W32870  10.508  17.240   0.125 -0.0521  0.0603  0.0676
16687W        W32871   0.332  17.256   1.326  0.0111  0.0393  0.0685
16688W        W32872  10.487   7.890   4.838 -0.2574 -0.1042  0.0852
16689W        W32873  12.945   5.909   0.752 -0.3183  0.0153 -0.0280
16690W        W32874  15.970   9.039  15.043  0.1398 -0.1148 -0.3582
16691W        W32875  16.708  17.092  15.189  0.1567 -0.1046 -0.0659
16692W        W32876  17.318   8.595   5.460  0.0055 -0.1416 -0.1427
16693W        W32877   9.308   5.911  13.991 -0.0451  0.2132 -0.2550
16694W        W32878   4.203   6.517   3.544 -0.2062 -0.0696 -0.0734
16695W        W32879  12.716  16.271   1.758  0.2558 -0.0034 -0.0973
16696W        W32880  10.021  15.024  12.281 -0.0057  0.2401 -0.1151
16697W        W32881  11.104   1.561   4.099  0.1270 -0.2213  0.1985
16698W        W32882   8.655   9.577  15.528  0.0396 -0.0172 -0.0729
16699W        W32883  18.503   3.740  13.422 -0.3156 -0.1903  0.1140
16700W        W32884  13.851   0.757  16.018 -0.1593  0.2117 -0.0021
16701W        W32885   8.904  11.251  10.152  0.0289 -0.3229  0.1221
16702W        W32886  14.066   6.660   4.833 -0.1299  0.2286  0.0637
16703W        W32887   1.365   3.748   5.019  0.3755  0.0358  0.0501
16704W        W32888   4.608  11.463  15.151 -0.2426  0.1520 -0.1078
16705W        W32889   7.682   1.411  14.825  0.1791  0.2449 -0.0508
16706W        W32890  17.943  16.776   2.063 -0.2047  0.0599 -0.1542
16707W        W32891   5.820   8.870  12.170  0.0189  0.1253  0.2500
16708W        W32892  12.390   8.831  13.473 -0.3050 -0.3452 -0.1717
16709W        W32893  14.055  12.745   3.222  0.2388 -0.1453  0.0121
16710W        W32894   2.471   2.878   3.363 -0.1442 -0.1351 -0.1317
16711W        W32895   1.938   4.324  14.070 -0.2268 -0.3316 -0.3302
16712W        W32896   7.421   4.714  14.010  0.1261  0.1076 -0.0908
16713W        W32897   5.491   7.296   0.295 -0.0110  0.0411 -0.0429
16714W        W32898   5.597  14.877  15.117  0.0794  0.1069  0.2259
16715W        W32899  16.345   4.022   0.529 -0.3013  0.3506 -0.0210
16716W        W32900   0.748  17.584   0.048  0.2570 -0.0435  0.0344
16717W        W32901   1.856  10.645   1.298  0.0757 -0.3046 -0.2506
16718W        W32902  16.275   6.239  15.687 -0.0393  0.2946 -0.2605
16719W        W32903   5.988   4.547   2.336  0.0232  0.0055 -0.0297
16720W        W32904  13.666   3.542  15.001  0.0230  0.2468  0.1782
16721W        W32905   0.222  15.068   4.377 -0.0158  0.0861  0.1192
16722W        W32906  16.623  13.211   0.557 -0.1254  0.1086 -0.2042
16723W        W32907   9.669   9.995   4.524 -0.0256  0.2223  0.1706
16724W        W32908   1.454  14.643   1.911  0.0304  0.0406  0.0542
16725W        W32909   5.490   0.531   0.720 -0.1552 -0.0385  0.1823
16726W        W32910   8.179   9.353   5.174 -0.0003  0.1879 -0.1519
16727W        W32911   6.643  18.452   5.851 -0.4199 -0.0223  0.0392
16728W        W32912   6.229  17.423   1.597 -0.0749 -0.0521 -0.0213
16729W        W32913  13.796   6.960   2.517  0.2700  0.1184  0.2398
16730W        W32914   3.130  16.062  14.438 -0.3535  0.0742  0.1662
16731W        W32915   9.861  17.658  14.755 -0.0174 -0.1411  0.4023
16732W        W32916   4.353   2.396  10.852 -0.0932 -0.1763  0.2085
16733W        W32917  18.067   2.839   0.979 -0.2634 -0.0031 -0.1930
16734W        W32918  16.577  10.543   1.301 -0.1229 -0.2956 -0.2949
16735W        W32919  17.239  16.666  14.270 -0.0695  0.4076  0.0838
16736W        W32920   1.316   6.923   2.305  0.2675  0.0918  0.1238
16737W        W32921  12.021   5.501   3.064  0.1055 -0.0284 -0.0478
16738W        W32922   8.132  16.072  11.433 -0.1536  0.2122 -0.1072
16739W        W32923   1.911   8.870   3.320  0.0332  0.1833 -0.2088
16740W        W32924  17.758   5.654  14.295 -0.3209 -0.2300 -0.0467
16741W        W32925   5.999   1.809  12.145 -0.2084 -0.3665  0.2696
16742W        W32926   4.823   8.178  12.889  0.1463  0.0322 -0.1418
16743W        W32927   5.981   1.238   1.029 -0.1988  0.0685 -0.4130
16744W        W32928  10.547  15.945  12.383  0.1524 -0.0630  0.1502
16745W        W32929   0.132  15.988  13.130  0.0482  0.1374  0.0376
16746W        W32930  14.717   9.126  12.155  0.0560 -0.0635 -0.0094
16747W        W32931   4.890  17.445   4.613 -0.4544 -0.1886 -0.1772
16748W        W32932   5.077  11.260   2.093 -0.1263  0.3590  0.2656
16749W        W32933   1.855  10.323   4.848 -0.1548  0.0961  0.0570
16750W        W32934  12.183   7.211  13.517 -0.0143 -0.3006 -0.1434
16751W        W32935  17.176  13.830   4.141  0.1301  0.2696 -0.1501
16752W        W32936  13.505  16.810   5.428 -0.2073  0.0568  0.1212
16753W        W32937  11.158  11.372  15.511 -0.1405  0.1190  0.2387
16754W        W32938   9.109  12.843  12.576 -0.5331  0.0860 -0.3300
16755W        W32939   1.108  13.072   4.596  0.1770 -0.0853  0.0175
16756W        W32940   5.110   5.999   0.296 -0.0684 -0.4505  0.0882
16757W        W32941  15.938   1.589  14.189 -0.1482 -0.1453  0.1808
16758W        W32942   8.912  13.935  12.081  0.0917  0.0686  0.1807
16759W        W32943  11.453   5.479   2.889  0.0142  0.2296 -0.2610
16760W        W32944   3.638   7.193   1.532  0.0400  0.1331 -0.0076
16761W        W32945  16.149  11.899  13.042 -0.1649 -0.0856  0.0552
16762W        W32946   2.432  14.219  12.876 -0.1358  0.2268  0.1650
16763W        W32947   9.547   3.795  12.492  0.0242 -0.1328  0.0897
16764W        W32948  10.511   9.217   3.531  0.3137  0.2426 -0.5249
16765W        W32949   6.833   6.470   2.175 -0.1751  0.1060  0.1265
16766W        W32950   7.984   1.965  15.745 -0.0742 -0.0107  0.0770
16767W        W32951  16.936  17.648   1.007 -0.2824  0.1829 -0.1976
16768W        W32952  16.178   6.485   4.442 -0.0305 -0.1272 -0.1249
16769W        W32953   9.626   4.576   0.561  0.1607 -0.0873  0.1847
16770W        W32954   3.247   9.269   4.746 -0.2163 -0.0085  0.0534
16771W        W32955  14.539   8.213   4.241 -0.0705 -0.2570  0.1950
16772W        W32956  15.324   4.740  15.436  0.1235 -0.1879  0.0231
16773W        W32957   3.038   2.252  11.371  0.1525  0.0688  0.0300
16774W        W32958  15.809   8.114  15.149 -0.0923 -0.0661 -0.1239
16775W        W32959  13.988  18.204  12.710  0.1303  0.0193 -0.1138
16776W        W32960  11.837   3.202   5.718  0.1795  0.0095  0.0382
16777W        W32961  15.953   0.979  10.734 -0.3745 -0.1232  0.1754
16778W        W32962  10.972   1.019  13.692  0.3030 -0.0879 -0.1598
16779W        W32963  10.120   4.564  15.966 -0.2455 -0.0972 -0.0799
16780W        W32964   0.066  10.271   2.751  0.1099 -0.1434  0.1796
16781W        W32965  18.394   4.037  14.955 -0.1822  0.0315  0.3849
16782W        W32966   1.016  10.040   1.112 -0.1928  0.0175  0.0877
16783W        W32967  16.958   9.721   4.480  0.1992  0.0390  0.3265
16784W        W32968  13.736   0.675   4.988  0.1553  0.0381  0.0192
16785W        W32969   1.046  10.887  11.981 -0.0939 -0.1287 -0.0258
16786W        W32970  17.707   2.676  12.240 -0.2197 -0.0936  0.1164
16787W        W32971  10.860  10.462   4.085  0.2818 -0.1046  0.0886
16788W        W32972   3.777   9.145  12.798 -0.2201  0.1242 -0.2148
16789W        W32973  12.699  11.147   2.404 -0.0463  0.0903 -0.4408
16790W        W32974   5.981  15.690  11.927 -0.1142  0.0279  0.0152
16791W        W32975   2.784  11.014   4.618  0.0401 -0.1004 -0.0001
16792W        W32976   9.361  17.617   2.060  0.3580 -0.3431  0.1021
16793W        W32977   6.497   3.320  15.280 -0.0704 -0.0374  0.0699
16794W        W32978  15.800   7.364   0.970  0.0658 -0.1504 -0.2339
16795W        W32979  13.619  10.280  10.776  0.2144 -0.3346  0.2205
16796W        W32980  12.611   0.384   1.865 -0.0625  0.2730 -0.0585
16797W        W32981  12.197  11.353  13.853  0.4586  0.1881 -0.2842
16798W        W32982  12.618  15.964  12.130  0.0224  0.0178 -0.0160
16799W        W32983   3.633   3.640  14.032 -0.1303 -0.2985  0.1127
16800W        W32984  18.156  16.842   5.213 -0.0820  0.0335  0.1874
16801W        W32985   8.874   1.849  15.909  0.2126 -0.0086 -0.0474
16802W        W32986   6.216   4.356   5.733 -0.0345  0.1591 -0.0711
16803W        W32987   4.615   7.438   4.165 -0.1735 -0.3641  0.2286
16804W        W32988  10.344   0.590   0.144 -0.0624  0.3456 -0.3846
16805W        W32989   0.594   1.425   2.838 -0.1479 -0.0391 -0.0450
16806W        W32990  14.916  16.857   4.391  0.1198  0.0875 -0.1142
16807W        W32991  11.414   4.687  12.209  0.1770 -0.0299 -0.1480
16808W        W32992   4.043  15.144  12.567  0.1304  0.1430  0.0534
16809W        W32993   5.198  14.151   3.972 -0.0971 -0.0828 -0.3323
16810W        W32994  11.383   8.877   3.917  0.2675 -0.0365  0.0397
16811W        W32995   4.255   2.348  13.956 -0.2446 -0.1038  0.2274
16812W        W32996   5.843   7.690   5.481 -0.0699  0.0699  0.0624
16813W        W32997   8.535   1.356   3.163 -0.2176 -0.2963  0.0814
16814W        W32998   5.291   3.543  10.660 -0.0895 -0.0454  0.1194
16815W        W32999  14.408  16.027  13.200 -0.3248  0.2119 -0.3346
16816W        W33000   5.124   6.689  12.739  0.0788 -0.0394 -0.3950
16817W        W33001   6.191   8.051  13.277 -0.1014  0.1636 -0.1012
16818W        W33002  14.825  14.038  15.622 -0.2981  0.0767  0.2340
16819W        W33003   4.552   4.788   5.445  0.2548 -0.3564  0.0779
16820W        W33004   4.521  17.844   4.735  0.1506 -0.2209 -0.0536
16821W        W33005  11.580  17.146  13.877 -0.0135 -0.1393 -0.0255
16822W        W33006  14.567   9.104   5.086 -0.4784  0.2899  0.0432
16823W        W33007  16.463   4.028   5.257  0.0409 -0.2192  0.0925
16824W        W33008   2.300   1.161  11.108  0.3809 -0.0860 -0.0488
16825W        W33009  12.717  13.172  14.411  0.0868 -0.1014  0.4036
16826W        W33010   3.596   5.392  14.567 -0.1800 -0.0172 -0.0983
16827W        W33011  14.358   4.065   3.403  0.2980 -0.0058  0.0856
16828W        W33012   0.749   6.826  15.050  0.2830  0.4013  0.1068
16829W        W33013   0.860  14.103   0.639  0.3515  0.2395 -0.1279
16830W        W33014   3.018  11.008   0.010 -0.0327 -0.3626  0.1582
16831W        W33015  11.703  12.941  13.837  0.0720  0.1418  0.2016
16832W        W33016   8.606  11.574  15.007 -0.2513  0.1016 -0.1848
16833W        W33017   9.414  14.076   4.750  0.1011  0.0890  0.5050
16834W        W33018   8.023  16.273  14.206 -0.0615 -0.2459 -0.0201
16835W        W33019  11.173  13.499   4.667  0.1500  0.0623 -0.2013
16836W        W33020   2.429  16.353   1.355 -0.1597  0.2933  0.0095
16837W        W33021  15.049   0.447   0.650  0.1864  0.0965  0.0782
16838W        W33022   6.017  11.206   2.728 -0.1829 -0.0606 -0.2519
16839W        W33023   9.014  16.685   0.393 -0.2563  0.0013 -0.2377
16840W        W33024   3.913   3.413  15.842  0.1845 -0.0558 -0.1229
16841W        W33025   7.497   9.604   3.363 -0.2582 -0.1508 -0.1662
16842W        W33026   0.277  16.833   0.999 -0.1098 -0.0293 -0.3330
16843W        W33027  12.452  12.282  13.974 -0.0060  0.2640 -0.0467
16844W        W33028   7.817  14.483   4.420  0.1053 -0.0565 -0.0012
16845W        W33029  16.480   8.807   4.946  0.1918  0.3855  0.1636
16846W        W33030  14.100  10.790   0.862  0.0565  0.1644  0.2185
16847W        W33031   0.971   3.912  10.472 -0.2898 -0.0909 -0.5436
16848W        W33032   4.827  10.870   0.427 -0.0491  0.0554 -0.1434
16849W        W33033  17.548   7.875   3.634  0.0676  0.1808  0.3991
16850W        W33034   2.778  14.801  13.990 -0.2236  0.1302  0.0327
16851W        W33035   7.146   6.180  10.371  0.1456  0.1138  0.1002
16852W        W33036   3.859   3.358   0.723  0.3488  0.0121  0.2581
16853W        W33037   7.036  11.932  13.169  0.2856  0.1166 -0.3444
16854W        W33038   0.737  17.823  11.887  0.3591  0.1081 -0.1342
16855W        W33039   0.511   6.185   0.067 -0.0519  0.2702  0.1502
16856W        W33040  14.947   4.219   2.645  0.1505 -0.1084 -0.0868
16857W        W33041   3.881   6.749   2.675  0.0948  0.1451 -0.2397
16858W        W33042  15.256   4.055   3.098  0.3300  0.2099 -0.2038
16859W        W33043   7.608  13.752  13.873 -0.1144  0.2514  0.0545
16860W        W33044  15.437  17.331  14.643  0.2371 -0.0564 -0.0723
16861W        W33045   4.608  16.150   4.599  0.1062  0.1094  0.1697
16862W        W33046   8.492   4.215  14.597 -0.1129 -0.1369  0.0182
16863W        W33047   2.154   2.050  13.869  0.1218  0.3279 -0.0592
16864W        W33048   9.792   6.684  15.456 -0.3057 -0.1474 -0.4512
16865W        W33049  16.100   4.835   5.312  0.0689  0.0537 -0.0733
16866W        W33050   3.702   4.623  12.073  0.0393  0.0033  0.2621
16867W        W33051  11.390   9.736  14.288 -0.0057  0.4312 -0.2281
16868W        W33052   0.052  13.756  14.108  0.0227  0.0984 -0.3163
16869W        W33053   1.963   8.241   5.430  0.2177 -0.0142  0.4254
16870W        W33054   6.605  10.448   3.313  0.0030  0.1156  0.2861
16871W        W33055  11.458   9.390  13.931 -0.1893 -0.1245 -0.0225
16872W        W33056   0.378  12.761   2.766  0.0353  0.0640 -0.0898
16873W        W33057  17.289  18.036  13.028 -0.0469  0.1032 -0.0205
16874W        W33058  10.073   4.886   5.842 -0.1726 -0.0630 -0.2674
16875W        W33059   3.398  14.480   3.265 -0.6289  0.0543  0.1291
16876W        W33060   9.921   1.197  13.631  0.0328 -0.1127 -0.1483
16877W        W33061  13.148   7.977  13.535  0.2678 -0.1307  0.0378
16878W        W33062   8.213   5.115   2.036  0.0998  0.0966  0.0207
16879W        W33063   9.737   0.266  13.698 -0.3743  0.0226 -0.0792
16880W        W33064   8.678  11.997   3.257  0.1850  0.1024 -0.1344
16881W        W33065  17.611   4.608  11.978  0.1949 -0.2604 -0.0410
16882W        W33066  15.596  14.360  14.019 -0.0905  0.2951  0.0187
16883W        W33067   5.273  14.003   0.399 -0.1011  0.0225  0.0475
16884W        W33068   7.077   8.532   3.864 -0.2297 -0.1395  0.4938
16885W        W33069   5.161  17.680  12.328  0.0156  0.4634  0.0260
16886W        W33070  17.585   6.586  14.342 -0.1414  0.4368 -0.2308
16887W        W33071   2.882  16.095   3.897 -0.1367  0.1723 -0.1265
16888W        W33072   7.825  12.635  10.156 -0.0109 -0.0973 -0.0846
16889W        W33073   1.649   7.362  11.326 -0.0189 -0.2025 -0.2924
16890W        W33074   2.869  16.574   0.086  0.0971 -0.0322 -0.0920
16891W        W33075   0.336   3.343  13.120 -0.0419 -0.3577  0.2835
16892W        W33076  13.308   1.836  14.016  0.1347 -0.0547 -0.1245
16893W        W33077  10.605   2.085   1.903  0.0502  0.0867  0.2666
16894W        W33078  16.549   1.985  14.862 -0.1097 -0.1284  0.1399
16895W        W33079  17.134   1.787  13.459 -0.0535 -0.1843 -0.3423
16896W        W33080   1.028   2.220  14.957 -0.0093 -0.1219 -0.2438
16897W        W33081  12.151   6.833  13.237 -0.3753  0.1481 -0.0877
16898W        W33082   8.283  18.320   2.275 -0.2582 -0.0621  0.1008
16899W        W33083   9.895  13.946   3.037 -0.2828 -0.2745  0.0334
16900W        W33084  10.876  15.773  11.972  0.0905  0.1531 -0.1745
16901W        W33085  12.592   4.825   2.564 -0.6208  0.0421  0.1872
16902W        W33086  18.387  13.815  13.588 -0.3353  0.1996  0.0301
16903W        W33087   3.904  14.035  14.308  0.3122  0.0017  0.0521
16904W        W33088  10.839  16.589   4.632 -0.3533 -0.1652 -0.0111
16905W        W33089   3.642  14.857   3.772 -0.0235 -0.0252 -0.0765
16906W        W33090   2.468   4.634   0.993  0.0267 -0.1618  0.1391
16907W        W33091   6.574   9.199   6.053 -0.2189 -0.1346  0.2121
16908W        W33092  12.602  13.833  15.388 -0.1413  0.2407 -0.2398
16909W        W33093  18.149  13.245   1.555  0.1497 -0.1560 -0.0002
16910W        W33094  17.141  13.396  16.107 -0.0821  0.0164 -0.1188
16911W        W33095   9.653   6.397  12.184  0.0181  0.1568 -0.1607
16912W        W33096   4.367  11.059   2.779 -0.0403  0.2486 -0.2388
16913W        W33097   3.875  13.828  11.205  0.3289 -0.2161 -0.2443
16914W        W33098   0.671  12.109   0.399  0.3881  0.0858  0.1717
16915W        W33099   0.568  13.371   0.225 -0.1010 -0.0436  0.1285
16916W        W33100  14.867   6.685  13.558  0.1804 -0.0847 -0.0075
16917W        W33101  17.384   1.365   5.650 -0.0036  0.1500 -0.0499
16918W        W33102  18.461   9.688  11.662 -0.0395  0.0489  0.0401
16919W        W33103   3.696   2.986   0.392  0.2971  0.1743 -0.1200
16920W        W33104  12.621  17.688   5.654 -0.1036  0.0092 -0.1059
16921W        W33105  14.266   5.781  16.145  0.2480 -0.0426  0.1785
16922W        W33106  11.715   4.418   6.245  0.0064  0.1036  0.2117
16923W        W33107   3.825  16.552   0.453 -0.3174  0.0887 -0.1882
16924W        W33108  14.985   6.569   4.694  0.0550 -0.1732 -0.1873
16925W        W33109   3.890  13.796   5.595  0.3424  0.4047 -0.0914
16926W        W33110   1.661  18.034   2.355 -0.2112  0.2887  0.1100
16927W        W33111   4.139   7.752   3.115 -0.1383 -0.2023 -0.2163
16928W        W33112   2.852  16.174  14.964 -0.1846  0.3505 -0.2025
16929W        W33113  14.819  18.160   0.287  0.2770 -0.0473  0.1644
16930W        W33114   0.728   1.677   2.464 -0.1407  0.0301  0.2692
16931W        W33115   1.472  15.531   4.942  0.2581  0.1889 -0.1351
16932W        W33116   1.949   7.656   0.785 -0.0961  0.1222 -0.0118
16933W        W33117   6.623  13.412  14.179  0.0770  0.1131 -0.0431
16934W        W33118  17.705  13.939  14.213  0.1778  0.0008  0.0472
16935W        W33119  10.722   8.638  15.325  0.1965 -0.1290  0.0930
16936W        W33120   8.455   6.550   4.644  0.0207 -0.2700 -0.0163
16937W        W33121   5.430   5.857  10.932 -0.1183  0.3272  0.1529
16938W        W33122  10.486  10.191  15.395  0.2127  0.2307 -0.0269
16939W        W33123   8.690   5.707   1.497 -0.1029  0.1631  0.0643
16940W        W33124  12.675  16.946  13.995  0.0347  0.1828  0.1217
16941W        W33125   7.282   1.131   4.846  0.0347 -0.0454 -0.0668
16942W        W33126   8.966   4.411   5.091 -0.4078  0.2133 -0.1616
16943W        W33127   2.534   6.396   3.677 -0.2034  0.0153 -0.2462
16944W        W33128  17.732   2.772  12.748 -0.1027  0.1358  0.2714
16945W        W33129   9.033   4.861  13.062 -0.2659 -0.1597 -0.1962
16946W        W33130   3.236   5.219   3.580  0.0238  0.1685  0.1292
16947W        W33131  16.197   9.962  11.460 -0.0696 -0.1105  0.0869
16948W        W33132   0.318   9.543   2.107  0.2965  0.1727 -0.4445
16949W        W33133  17.469  11.530   2.095  0.0500 -0.0494  0.0754
16950W        W33134   5.811   0.425  15.863 -0.0394 -0.0609  0.0399
16951W        W33135  18.490   8.809   2.584  0.0445 -0.2123  0.1736
16952W        W33136  10.221   2.976  13.528 -0.2635 -0.2201 -0.0778
16953W        W33137  11.175   1.813   4.813 -0.2071  0.4581  0.2206
16954W        W33138  17.625  11.649  14.269 -0.0417 -0.0667  0.0085
16955W        W33139   2.744  16.920   4.550  0.1436 -0.0791  0.0479
16956W        W33140   4.008  17.198   9.969 -0.0629 -0.1998 -0.0462
16957W        W33141   1.022  10.277   2.578 -0.2634 -0.1455  0.0759
16958W        W33142  14.029   1.542  13.293  0.1078  0.2935  0.1530
16959W        W33143  16.114  16.005   4.915  0.2571  0.0750  0.3635
16960W        W33144  16.492  15.693  11.362 -0.1132  0.1248  0.2296
16961W        W33145   1.563  12.665  11.734 -0.1934 -0.0718  0.0424
16962W        W33146   8.593   0.971   4.576  0.0212 -0.0673 -0.1436
16963W        W33147  17.536   8.688   1.768  0.0094 -0.0132 -0.0119
16964W        W33148   9.712  16.460   2.715  0.2131 -0.2487 -0.0613
16965W        W33149   5.044   5.527   1.167 -0.1724  0.1209  0.0894
16966W        W33150   1.210  12.323  11.956  0.0361  0.0082  0.2638
16967W        W33151  16.990  11.033   0.206  0.1698  0.1504 -0.3471
16968W        W33152   4.424   2.258   3.018  0.0704  0.0098  0.1952
16969W        W33153   7.686   7.026  12.279 -0.0171 -0.0704 -0.0721
16970W        W33154  12.950   9.458  15.514  0.2202  0.1502  0.0839
16971W        W33155   8.258  13.285   2.076  0.1301 -0.2399 -0.1228
16972W        W33156   8.093  10.427   3.685  0.3885 -0.1545 -0.1139
16973W        W33157  14.398  15.932  15.900  0.1455 -0.0471  0.0040
16974W        W33158   6.052   1.412  14.672  0.1563  0.1978  0.1226
16975W        W33159  14.631   9.183  10.805 -0.1381 -0.4292  0.2773
16976W        W33160  17.488  12.243   4.397 -0.0311  0.0366 -0.0465
16977W        W33161   9.797   6.612   4.313 -0.0883  0.2425  0.2500
16978W        W33162  11.767   9.050   3.615 -0.0612  0.3684  0.1046
16979W        W33163   0.838   3.282   0.669  0.2680  0.2441 -0.0151
16980W        W33164   8.631   7.758   6.070  0.0055  0.0131  0.0496
16981W        W33165  14.255   1.652  15.494 -0.0370  0.0082  0.1554
16982W        W33166   7.435  18.155  11.651  0.0446 -0.1023 -0.0366
16983W        W33167   9.248   7.274   3.991  0.2184 -0.2263  0.1166
16984W        W33168   6.646   2.162   3.775  0.1867  0.1057 -0.0769
16985W        W33169   9.478   0.544   1.173  0.0344 -0.2043 -0.0420
16986W        W33170   1.819  14.515  14.969  0.4666  0.0383  0.3073
16987W        W33171  16.932  12.318   3.300  0.2542 -0.1636  0.1112
16988W        W33172   7.203   5.971  11.668  0.2124 -0.0381  0.1675
16989W        W33173  16.434   0.380   3.049  0.2994 -0.3242 -0.1584
16990W        W33174  10.606  10.488   1.888 -0.0025  0.2139 -0.0237
16991W        W33175  17.378   5.552   2.075  0.2842  0.0148  0.1579
16992W        W33176  15.541   3.285  15.196 -0.0588  0.0174  0.0339
16993W        W33177   2.522   8.151  15.917 -0.0749 -0.4054 -0.0538
16994W        W33178   6.423  18.366  16.089  0.1675 -0.0891  0.1171
16995W        W33179  10.907   4.139  11.713 -0.0795  0.5919  0.2075
16996W        W33180   4.232  14.860  14.149 -0.2787 -0.1648  0.1615
16997W        W33181  13.590   6.336   1.518 -0.0550  0.0865 -0.0024
16998W        W33182   6.603   4.284  10.463 -0.2503 -0.4541  0.2357
16999W        W33183   2.208   4.279   1.418 -0.0554  0.0896  0.0958
17000W        W33184  12.322  14.827  11.045 -0.0534 -0.2738  0.1807
17001W        W33185  10.321  14.211  14.766 -0.2400  0.1203 -0.2993
17002W        W33186   3.260  11.710  12.230  0.0790 -0.0509  0.0991
17003W        W33187  12.688   2.444   1.411  0.0527 -0.3124 -0.0098
17004W        W33188   8.376   9.952  15.207 -0.0343 -0.3257  0.1771
17005W        W33189   4.019  11.712   1.986 -0.1516  0.0350  0.1707
17006W        W33190  12.208   7.639   3.851 -0.5135  0.0424  0.2325
17007W        W33191  10.081   9.269  14.511  0.0806 -0.3501  0.1974
17008W        W33192   3.512  17.209  15.901  0.0055 -0.2530 -0.0538
17009W        W33193   0.645  15.967  14.011 -0.0279 -0.0173 -0.3975
17010W        W33194  16.807   5.632  12.911  0.2359 -0.1508  0.1852
17011W        W33195   7.735   0.459  11.254 -0.0679 -0.3235  0.1300
17012W        W33196   7.246   3.590   0.973 -0.2296 -0.0067  0.0195
17013W        W33197   9.351  15.917   0.987 -0.0282 -0.0113 -0.0909
17014W        W33198   9.685   4.347  13.306 -0.3036  0.1805 -0.0937
17015W        W33199  12.999  11.284  14.815  0.0658  0.3710 -0.3102
17016W        W33200  12.975   3.109  14.006  0.1107 -0.1749  0.0784
17017W        W33201   2.720  17.393  15.598  0.2432 -0.2579 -0.0224
17018W        W33202  13.515   1.462  15.028 -0.2234 -0.0656  0.0924
17019W        W33203   8.212   5.294   2.577 -0.3334 -0.1338 -0.0582
17020W        W33204   2.941   4.171   3.335 -0.1189  0.1037 -0.2410
17021W        W33205  16.209   3.396   2.668 -0.3973  0.3046 -0.3067
17022W        W33206   1.428   9.809  15.518  0.2996 -0.0939 -0.0602
17023W        W33207   8.715   9.404  11.280 -0.1441 -0.1179  0.0039
17024W        W33208   0.968  14.138  13.021 -0.1713  0.0647 -0.2048
17025W        W33209  15.742   1.410  13.714  0.0676  0.0730 -0.1866
17026W        W33210   5.046   6.834   2.854 -0.2442  0.0108  0.1240
17027W        W33211   9.294   5.209   5.330  0.2476 -0.0457 -0.1372
17028W        W33212   9.467  13.435  15.537 -0.3202 -0.0523 -0.1286
17029W        W33213  16.658  12.394  10.853  0.2825 -0.2164 -0.1664
17030W        W33214  12.380   8.366  11.478 -0.2007 -0.1146  0.3276
17031W        W33215   8.223  10.590   1.608 -0.2189 -0.0560 -0.0119
17032W        W33216   8.596   9.197   3.959 -0.2370 -0.0379 -0.0441
17033W        W33217  10.175  10.005   4.708  0.0669  0.0235  0.2117
17034W        W33218   9.656  10.648   2.156  0.0078  0.0332 -0.0381
17035W        W33219  10.004  11.131   0.268 -0.1216 -0.2948 -0.0413
17036W        W33220   9.869  11.819   2.809 -0.0838 -0.1390  0.2411
17037W        W33221  10.651  16.847   2.908 -0.0823  0.0194 -0.2075
17038W        W33222  16.112  11.102   5.225  0.3469  0.1206 -0.1081
17039W        W33223  11.084  16.809  15.627  0.0281  0.2321 -0.0323
17040W        W33224  15.626  13.369   2.702 -0.0485 -0.0630  0.0053
17041W        W33225  14.380   5.192  15.295 -0.0223  0.0233  0.0053
17042W        W33226   3.068   6.180  14.570  0.0402  0.1790 -0.0212
17043W        W33227   1.784  11.608  12.144  0.1368  0.1220 -0.1019
17044W        W33228  17.441   2.670   4.579 -0.0045 -0.2395  0.0430
17045W        W33229  12.197  18.174  12.106  0.1413  0.1446 -0.0803
17046W        W33230   9.696   3.585   1.423  0.1669 -0.1149  0.0140
17047W        W33231   1.316   9.760  14.228 -0.2085 -0.0702  0.1525
17048W        W33232  11.262   5.210  16.096 -0.1772  0.2491  0.0478
17049W        W33233   6.718  10.459   1.621  0.4828 -0.0192 -0.0535
17050W        W33234  10.260  13.498  14.010 -0.0638 -0.1284 -0.1049
17051W        W33235  16.840   9.222   0.635  0.1461 -0.0550 -0.0311
17052W        W33236  15.411  13.318  15.000  0.1340 -0.0719  0.1106
17053W        W33237   9.330  10.600  14.069 -0.2783  0.0217  0.0503
17054W        W33238   7.593   2.565   4.867  0.1268  0.0922  0.1623
17055W        W33239   3.788  16.462  16.073  0.0721 -0.0204 -0.0022
17056W        W33240  16.082  11.417   4.664 -0.1052  0.1718  0.1389
17057W        W33241  10.682  10.069   1.009  0.0998  0.0774 -0.2032
17058W        W33242  16.177   6.345   3.002 -0.1120 -0.0882  0.0871
17059W        W33243   0.962  12.544   0.450 -0.0346  0.1232  0.0140
17060W        W33244   5.156   1.082   0.123  0.1050 -0.6239  0.1868
17061W        W33245  14.776   0.435  15.526  0.1933 -0.3277  0.4411
17062W        W33246   6.239   4.575   4.257  0.0354 -0.2718 -0.1978
17063W        W33247  16.787  15.870  12.581  0.1563 -0.0169 -0.2197
17064W        W33248  17.765  13.544  12.080 -0.0496 -0.1068  0.0376
17065W        W33249  11.577  17.018  14.869  0.1521 -0.2204  0.1264
17066W        W33250   5.615   1.489   4.744  0.0774 -0.0042 -0.0028
17067W        W33251   2.625   0.588   2.633 -0.1945 -0.4441 -0.1116
17068W        W33252  14.832   8.604  13.990 -0.0065 -0.0975 -0.4675
17069W        W33253  16.456   2.453   0.634  0.0024 -0.1877  0.1326
17070W        W33254  10.490  12.779   3.997  0.2606  0.1153 -0.2123
17071W        W33255   3.041   6.873   3.179  0.0777  0.3304  0.2918
17072W        W33256  16.102   6.536  11.935  0.1615 -0.2551 -0.0973
17073W        W33257  11.765   2.219  14.858 -0.0951  0.1608 -0.0443
17074W        W33258  12.638   6.871   5.089 -0.0492  0.0776  0.0695
17075W        W33259   8.314  16.047   1.864 -0.3604  0.1308 -0.0502
17076W        W33260   3.929  16.282  12.758 -0.0558  0.3980 -0.2231
17077W        W33261  13.453   8.903  10.851  0.0574 -0.0268  0.2706
17078W        W33262   0.330  17.397  12.762  0.0487 -0.1141  0.0935
17079W        W33263  11.030  16.878  12.300  0.0770  0.0882 -0.4576
17080W        W33264   1.063  13.104   3.679  0.1567  0.0750 -0.0357
17081W        W33265   1.700  17.443   5.613 -0.1351 -0.0220 -0.2051
17082W        W33266   8.264  14.397   4.050 -0.1090  0.3124  0.2579
17083W        W33267  17.893  16.328   0.910 -0.0142 -0.5140 -0.0676
17084W        W33268  13.118   2.699  15.364  0.2728 -0.1642  0.0552
17085W        W33269  12.873   0.835   1.314 -0.3385 -0.1143  0.0363
17086W        W33270  18.264   3.669  16.069 -0.2252  0.1876 -0.0575
17087W        W33271  10.988   3.159   1.387 -0.2159 -0.1551 -0.0023
17088W        W33272  10.174   5.355   1.714 -0.0065  0.1551 -0.1861
17089W        W33273  11.451   1.931   0.164  0.0101  0.0430 -0.1225
17090W        W33274   7.109  16.382  13.072  0.2155  0.1326  0.3341
17091W        W33275  16.916  12.300  11.289  0.3845 -0.0751 -0.1027
17092W        W33276   1.401  10.130   2.052 -0.2456 -0.0435  0.1210
17093W        W33277  17.639   2.197  13.891  0.0279 -0.2008 -0.3491
17094W        W33278   2.824   5.674  10.697 -0.2310 -0.1984  0.1885
17095W        W33279  11.120  14.712   1.808 -0.1283  0.1771  0.0520
17096W        W33280   8.062   0.528   0.206  0.1135  0.1462  0.2349
17097W        W33281   8.413   2.241   2.409 -0.2276  0.1971  0.0236
17098W        W33282  15.040   0.980   4.896  0.0841  0.1490  0.2608
17099W        W33283   2.570   4.547   4.579 -0.0430 -0.0345 -0.0252
17100W        W33284  11.375   3.576  13.911 -0.0424  0.0247 -0.0954
17101W        W33285   6.131   4.697   1.834 -0.1054  0.1098 -0.1089
17102W        W33286   6.908  11.187   5.772  0.0503 -0.3596 -0.0290
17103W        W33287   1.122  11.330   1.217  0.2014 -0.1187 -0.1256
17104W        W33288  10.840   7.617   0.788  0.0037 -0.1903 -0.0525
17105W        W33289   9.506  10.824  11.526  0.3665  0.0159 -0.0268
17106W        W33290   4.388  14.385  11.440 -0.0434  0.0333 -0.0827
17107W        W33291  11.482  14.935   2.101 -0.1350  0.2611 -0.4121
17108W        W33292  14.551   9.709  15.379  0.0694  0.1706  0.0088
17109W        W33293  12.322   1.878   1.373 -0.1630 -0.1048 -0.1827
17110W        W33294   0.899  13.633  13.686  0.0658  0.2204 -0.0625
17111W        W33295  12.947   0.121   4.850  0.3060 -0.1543 -0.2109
17112W        W33296   9.955   9.597  15.056  0.2220  0.0896 -0.1137
17113W        W33297   0.988   3.570   4.164 -0.1798  0.3183 -0.0352
17114W        W33298  13.214  11.278   4.132 -0.0905  0.0892  0.1101
17115W        W33299  13.686  15.885  11.547 -0.0230  0.0773  0.1964
17116W        W33300  15.713  11.058   2.078 -0.0531  0.1676 -0.0345
17117W        W33301   3.674  10.368  15.681 -0.0530 -0.0718  0.0723
17118W        W33302  11.118  14.185  14.315 -0.1090  0.1845 -0.0887
17119W        W33303  13.344  14.514  11.303  0.0196  0.1606 -0.0345
17120W        W33304  14.304  13.727   1.960  0.3007  0.0314 -0.0834
17121W        W33305   0.930   1.833  14.173 -0.1051  0.0245  0.1649
17122W        W33306  13.112   9.348   2.911  0.2633  0.0169  0.1015
17123W        W33307  11.795   0.024  15.559 -0.4425 -0.0750  0.0134
17124W        W33308  15.971   1.241   0.295  0.0110 -0.1579 -0.0293
17125W        W33309  16.481   2.647  16.085  0.0543 -0.1686 -0.3139
17126W        W33310  14.691   1.709   0.042  0.0714 -0.1218  0.0049
17127W        W33311  13.805   6.708   3.013 -0.0552  0.0467  0.1534
17128W        W33312  15.599  18.097   3.176  0.0611  0.1982 -0.1965
17129W        W33313  16.656  10.582  14.335 -0.0694  0.1527 -0.1930
17130W        W33314  10.558  12.177  15.549  0.1552 -0.0062  0.2708
17131W        W33315  12.789  17.776  12.863  0.0612  0.0780  0.0254
17132W        W33316  16.164   4.559   3.189 -0.1043 -0.0600  0.0370
17133W        W33317   3.950  14.378   1.052  0.1889 -0.2379  0.1098
17134W        W33318  15.811  17.104   4.987 -0.2291 -0.0874 -0.2263
17135W        W33319   6.028   1.764   4.910  0.1895 -0.0221  0.0349
17136W        W33320   1.944   0.427   2.528 -0.1063 -0.4153 -0.2003
17137W        W33321  12.458  10.153   4.170  0.3577  0.0154  0.2189
17138W        W33322  16.395  15.675   5.876 -0.1930  0.0810 -0.0179
17139W        W33323  14.263   7.349   3.618  0.1757 -0.1124  0.0414
17140W        W33324   4.219  18.255   1.914  0.0736  0.1836 -0.7148
17141W        W33325  16.943  18.413  13.328  0.3768  0.1316 -0.0861
17142W        W33326  16.225  11.920   1.527 -0.2132  0.3259  0.3727
17143W        W33327  11.248  15.276   2.630  0.1990 -0.1360  0.2171
17144W        W33328   2.591   4.563  15.398  0.1176  0.2700 -0.2324
17145W        W33329   3.778   0.990  13.626 -0.1003 -0.0933 -0.0147
17146W        W33330   0.297   0.664   4.754 -0.3385  0.0933  0.3454
17147W        W33331   9.908  10.953  15.152  0.0427  0.1250 -0.2040
17148W        W33332   7.728   2.872   1.122 -0.0804  0.0078  0.1410
17149W        W33333   1.188   8.025   2.610  0.1832  0.0797 -0.1963
17150W        W33334   9.669  14.879  14.653  0.1332  0.0346 -0.3681
17151W        W33335  12.786   1.473   4.316  0.0277 -0.1461  0.2150
17152W        W33336   4.135  10.508   2.220 -0.0188 -0.0477  0.0317
17153W        W33337   3.048  16.934   0.745  0.0406 -0.1272  0.1592
17154W        W33338   3.343  15.618   2.804  0.2842  0.0306  0.2353
17155W        W33339  16.124   5.264   4.112  0.3370 -0.2614  0.2724
17156W        W33340   6.354   9.485   1.793  0.0100  0.2872  0.0678
17157W        W33341  13.773  15.151   4.950  0.2400 -0.0966  0.0775
17158W        W33342   8.809   1.381  15.994  0.1156 -0.2003 -0.1598
17159W        W33343   6.738  11.548  12.721  0.0106  0.1392 -0.3228
17160W        W33344  15.347  16.937  14.413  0.0441  0.0310 -0.2666
17161W        W33345   3.944  14.275   4.576 -0.2034 -0.2963  0.1972
17162W        W33346  10.254   8.303   2.008 -0.0289 -0.0918  0.3914
17163W        W33347  17.978  14.843  12.944 -0.3686  0.1151 -0.0274
17164W        W33348   6.139   7.865   0.129  0.1024  0.1183 -0.1085
17165W        W33349   6.979   1.692  12.618  0.1738  0.0151  0.1233
17166W        W33350   9.115  16.779   4.935  0.2458 -0.0855 -0.0193
17167W        W33351  10.418  18.017   2.606 -0.1712 -0.2353  0.1288
17168W        W33352   6.928  15.230   2.981 -0.0518 -0.3208 -0.0626
17169W        W33353  13.726   6.415   2.600 -0.0579 -0.1377  0.2628
17170W        W33354   7.566   5.171  11.375 -0.0494 -0.1314  0.1509
17171W        W33355   1.560   2.349  11.586 -0.3074 -0.0556  0.1522
17172W        W33356   1.811  14.227  13.082  0.0168  0.0313  0.0803
17173W        W33357   5.865  16.902   2.324 -0.0155  0.1486 -0.1338
17174W        W33358   9.833  10.539   3.409  0.1076 -0.0721 -0.1593
17175W        W33359  12.185   5.039   5.752  0.3324  0.2955  0.0622
17176W        W33360  13.313  17.753  15.806 -0.4567  0.3635  0.0686
17177W        W33361   5.892  10.843   2.301  0.0383 -0.2640 -0.0422
17178W        W33362   7.634  12.067   0.621  0.3069  0.0452  0.0785
17179W        W33363   3.004   3.424  11.422 -0.0482 -0.1775 -0.0828
17180W        W33364  17.352   0.035  14.958 -0.2944  0.1214 -0.0381
17181W        W33365   2.893   3.528   2.957 -0.2114 -0.1862  0.0655
17182W        W33366  17.739   0.526  13.412 -0.1211  0.2089 -0.0589
17183W        W33367   8.313  14.606   4.620 -0.1698 -0.0947 -0.3328
17184W        W33368  10.279  14.672   0.339  0.0742  0.0141  0.0208
17185W        W33369   2.584   3.010  11.139 -0.0234 -0.2212 -0.1788
17186W        W33370  10.671  16.745  13.723 -0.1987  0.1070  0.0370
17187W        W33371   6.820   7.221   3.728 -0.0246 -0.0139 -0.1307
17188W        W33372   7.718  15.631  15.748  0.0131  0.1418 -0.2149
17189W        W33373   9.121  15.853   4.393 -0.1819 -0.0776  0.2808
17190W        W33374  13.820  13.863   4.155  0.1781 -0.2246  0.0818
17191W        W33375   9.950  12.575  11.530 -0.0190  0.0762  0.1881
17192W        W33376   0.456  11.479   3.659 -0.0301  0.0395 -0.0385
17193W        W33377   1.075  11.909  12.631  0.0598 -0.1103 -0.1576
17194W        W33378   7.808  12.025   2.765 -0.1742  0.2799  0.0884
17195W        W33379   7.848  13.739  14.402 -0.2039 -0.0494  0.6655
17196W        W33380  10.283   2.058   0.975 -0.2126  0.1360 -0.3074
17197W        W33381  15.916   8.141   0.180 -0.0041 -0.2317  0.1494
17198W        W33382  14.959  10.136   0.888 -0.2904 -0.0575 -0.1698
17199W        W33383  15.837  18.124  10.920 -0.0101  0.4263  0.3794
17200W        W33384  11.937  12.558  14.034  0.3131  0.3860  0.0057
17201W        W33385   9.578  17.385   1.108 -0.1909 -0.1646 -0.2308
17202W        W33386   5.151  14.602  10.807  0.0192 -0.4040 -0.1968
17203W        W33387  11.530  15.746  13.473  0.3310  0.0776  0.1425
17204W        W33388   0.700   9.909   3.326  0.0289  0.1075  0.0368
17205W        W33389   0.839  12.925  16.094  0.0450  0.0711 -0.0017
17206W        W33390   6.743   4.326   1.602 -0.2124 -0.1145 -0.0482
17207W        W33391   0.464   9.639  12.485  0.0419  0.1692  0.0051
17208W        W33392   2.151  14.842  14.747  0.2878 -0.1241  0.0639
17209W        W33393  16.470  10.289  12.892  0.1179 -0.0462  0.0697
17210W        W33394   3.972  10.667   1.756  0.1938 -0.0594  0.3358
17211W        W33395   5.883   9.676   1.910 -0.0193 -0.1610  0.2676
17212W        W33396   0.623   6.424   3.231  0.0648 -0.1354  0.1447
17213W        W33397   4.986  15.638  10.354 -0.1009 -0.2500  0.0964
17214W        W33398  11.317  11.634  14.483 -0.2454  0.3267  0.1007
17215W        W33399  13.735  13.868  15.737 -0.2713  0.1163 -0.0874
17216W        W33400   9.641  16.824   4.589 -0.1484 -0.0131 -0.1883
17217W        W33401   3.883   5.836   1.258  0.4148  0.3240  0.2675
17218W        W33402   1.666   9.232  11.151  0.1416 -0.0122  0.1050
17219W        W33403  16.171  17.737  10.829  0.0344 -0.5153  0.2350
17220W        W33404   7.571  13.930   2.489 -0.0103 -0.2175 -0.2502
17221W        W33405  11.727  17.736  12.794  0.0179 -0.1122  0.1214
17222W        W33406  12.289   0.445   0.364 -0.0919  0.1084 -0.2208
17223W        W33407  13.753  10.314  14.420  0.0794  0.0132  0.0995
17224W        W33408  17.426   4.309   4.105 -0.0923  0.1191  0.2157
17225W        W33409   8.284   5.141  15.996 -0.1252  0.1068  0.3942
17226W        W33410  10.248   2.778   1.396 -0.0951 -0.0658  0.0255
17227W        W33411   6.937   7.054   2.904  0.0510  0.2859  0.3050
17228W        W33412  16.380  10.391  11.450 -0.1031  0.2403  0.0706
17229W        W33413   0.973   7.159  11.534  0.2859 -0.3974 -0.2305
17230W        W33414  11.009   2.073   4.136  0.1998  0.1206  0.0129
17231W        W33415   0.155  17.666  11.291  0.0104  0.0018  0.0506
17232W        W33416   2.132   7.635   4.946  0.4128  0.0412  0.0897
17233W        W33417  16.846   0.548   1.675 -0.4340 -0.1279 -0.0207
17234W        W33418  12.254  15.554   2.568  0.2719 -0.0746 -0.1100
17235W        W33419   6.298   0.849   4.019  0.0089 -0.0424  0.1376
17236W        W33420  11.818   0.705  15.320 -0.1333  0.4930  0.0345
17237W        W33421   2.406   6.185   4.479  0.1979  0.3362 -0.2901
17238W        W33422   3.278   7.642   5.029  0.0347  0.3552  0.1952
17239W        W33423  12.289   9.885   1.423 -0.0333  0.1927  0.1953
17240W        W33424  12.120   5.284   4.854  0.1007 -0.4040 -0.1387
17241W        W33425   4.293   5.411  11.788 -0.2640 -0.4418 -0.2899
17242W        W33426  11.621   0.794   6.241 -0.1338  0.6057  0.2277
17243W        W33427  12.302  15.313   3.417  0.1637 -0.0984 -0.3469
17244W        W33428   7.440  11.943  12.369  0.0795  0.2703  0.0693
17245W        W33429   9.195  18.196  14.937  0.1005  0.0397  0.2080
17246W        W33430   2.864   0.709   3.182 -0.2559 -0.1466  0.1707
17247W        W33431  15.790  15.534  15.051  0.3826 -0.0754  0.2453
17248W        W33432  14.446   8.022   2.351  0.1545  0.1055 -0.1149
17249W        W33433   7.309   7.287  11.992  0.0882  0.2876 -0.0696
17250W        W33434  10.876  14.165  13.703 -0.0852 -0.0663  0.0866
17251W        W33435  14.953  14.437  11.749 -0.1415  0.3543 -0.2423
17252W        W33436  11.954  14.982   3.252  0.0122 -0.1700 -0.0842
17253W        W33437  15.038   8.769  14.443 -0.1470  0.2399 -0.0573
17254W        W33438  16.801  17.862   0.159 -0.1568 -0.1404  0.1337
17255W        W33439  11.908   8.104   2.752 -0.0928 -0.1567  0.0303
17256W        W33440  11.556  10.309   2.019 -0.2346 -0.0303 -0.0089
17257W        W33441   5.853   8.247  14.041 -0.2408  0.0865  0.0467
17258W        W33442   3.602   3.288   1.255  0.1997 -0.0219  0.3873
17259W        W33443   5.840  10.279   5.293  0.2740 -0.1788 -0.4485
17260W        W33444  13.749   9.764   0.569  0.2068 -0.1358 -0.0973
17261W        W33445   4.906  18.337   2.664  0.1741 -0.0083  0.1440
17262W        W33446  10.432   9.103   5.777 -0.0726  0.0105  0.0186
17263W        W33447   2.909  13.720  16.044 -0.0215 -0.2945 -0.1869
17264W        W33448  11.223  14.040  12.969 -0.2538  0.1233  0.0196
17265W        W33449  11.155  16.450  13.602  0.0337  0.0554  0.1002
17266W        W33450   8.080  15.642  11.151 -0.2483 -0.1339  0.2361
17267W        W33451   4.931   0.617   2.451 -0.5150  0.0106  0.0471
17268W        W33452   8.421   8.250  14.405  0.1914 -0.1720 -0.0908
17269W        W33453   9.872  10.823  13.866 -0.1041 -0.0171 -0.0290
17270W        W33454   6.227   8.967  15.010 -0.2976  0.0544  0.0626
17271W        W33455   1.744   8.427   1.912 -0.2543 -0.5112 -0.0874
17272W        W33456  12.975   3.328  12.706  0.0265  0.3116 -0.0990
17273W        W33457  13.232   6.167   0.441 -0.0901  0.1190 -0.1524
17274W        W33458  16.115  12.924   4.308  0.1634  0.1059 -0.3214
17275W        W33459  15.189  12.200  13.919  0.1612  0.2808 -0.2467
17276W        W33460  16.148  10.002   2.099 -0.0190 -0.0175  0.0407
17277W        W33461  15.336   5.049   1.932 -0.0471 -0.0138 -0.1232
17278W        W33462  12.165   6.417  13.524  0.0246  0.3392  0.1292
17279W        W33463   9.622  13.711  12.611 -0.1576  0.1017 -0.1701
17280W        W33464  10.363  17.706  12.301  0.0512 -0.2908 -0.2713
17281W        W33465  16.214  13.309   2.797 -0.2924  0.3077 -0.0510
17282W        W33466   5.303   9.466  13.165  0.1761 -0.1556 -0.3066
17283W        W33467  13.832  11.978   2.902 -0.1018  0.2738  0.4550
17284W        W33468  13.518  13.901   0.584  0.2216  0.0073 -0.4919
17285W        W33469   3.742   4.960  14.489 -0.1271  0.1938 -0.1484
17286W        W33470   2.984  12.010  11.305  0.3777  0.0149 -0.2734
17287W        W33471  17.298   2.402  10.707 -0.1438 -0.0252  0.2477
17288W        W33472   6.998   2.034  12.048 -0.1329 -0.0003 -0.1394
17289W        W33473   3.698  16.733   5.299  0.1361  0.1149 -0.0321
17290W        W33474   1.945   2.729  12.798  0.0989  0.1612  0.0446
17291W        W33475   8.116   8.612  11.434  0.0448  0.0669  0.0063
17292W        W33476   7.512   3.124   4.609  0.1825  0.2939  0.4017
17293W        W33477  18.168   8.357   0.099 -0.0034  0.2307  0.3977
17294W        W33478   0.986   4.613   1.437  0.0416 -0.0982  0.0104
17295W        W33479  10.983  17.435  13.205 -0.1062  0.0567 -0.0938
17296W        W33480   4.726  14.687   4.334 -0.1587 -0.1575 -0.2763
17297W        W33481   4.563  10.110   2.580  0.2312  0.0489  0.0913
17298W        W33482   4.856   2.741   3.750  0.2642 -0.1009  0.1239
17299W        W33483  18.269  17.955   2.842 -0.0699 -0.2079  0.1111
17300W        W33484   7.537   4.350   1.896  0.1446  0.0168 -0.0572
17301W        W33485  16.827   5.294  11.174 -0.3224 -0.1952 -0.4035
17302W        W33486   6.272  12.067  12.169 -0.0074 -0.2641 -0.0475
17303W        W33487   7.074   7.231  14.952 -0.0803  0.1377  0.1573
17304W        W33488  18.145  15.190  11.447  0.1540  0.1945  0.6031
17305W        W33489  16.822  16.955  11.587  0.0581 -0.1678 -0.3219
17306W        W33490  17.101   8.309   2.532  0.0960  0.0107 -0.3720
17307W        W33491  15.481  16.790   0.621  0.1711 -0.2451  0.2438
17308W        W33492   3.983   3.609   5.146 -0.2202 -0.4474 -0.2311
17309W        W33493   4.559   2.053   3.498  0.0850 -0.2334 -0.0487
17310W        W33494   0.288   5.408   2.294 -0.0229 -0.1455 -0.2025
17311W        W33495   7.977   9.783   5.306  0.0199  0.0008 -0.0400
17312W        W33496   2.601   4.651   2.031  0.1352  0.0387  0.4107
17313W        W33497   9.319  16.086  11.713  0.4130 -0.0454  0.1751
17314W        W33498  14.134  11.082  12.449  0.0692 -0.1408  0.1902
17315W        W33499  17.799  17.570  14.288 -0.0820 -0.1022 -0.4796
17316W        W33500   6.957   6.900  14.479 -0.1323  0.2691 -0.1698
17317W        W33501  17.690   9.875   2.310 -0.1838 -0.2610  0.2590
17318W        W33502   7.518   8.734  12.429  0.1782 -0.3401  0.1448
17319W        W33503   2.646  16.403  12.960 -0.0055  0.1030  0.1233
17320W        W33504  13.368   6.201   0.925 -0.1719 -0.0267  0.2210
17321W        W33505  11.622   7.068   3.011 -0.0872  0.1755  0.2324
17322W        W33506   6.769   8.230   3.631  0.2830 -0.1364 -0.0234
17323W        W33507  11.454  11.059   1.994 -0.0634  0.0777  0.2903
17324W        W33508  18.253   9.338  15.771 -0.1195  0.1798  0.1186
17325W        W33509   5.285  16.752  13.900  0.0838 -0.1178  0.2173
17326W        W33510  14.044  17.848  13.743  0.0823 -0.2450 -0.3783
17327W        W33511  16.227  12.526   4.591  0.3775 -0.2247  0.2437
17328W        W33512   8.700   8.504   0.743 -0.1401  0.0276  0.0414
17329W        W33513   3.035   0.370   2.236  0.0724  0.1511  0.0121
17330W        W33514  12.700   6.681   3.926 -0.1032 -0.0957  0.0507
17331W        W33515  13.358   8.528   1.494 -0.1947 -0.1233  0.0100
17332W        W33516  11.136  13.585  11.071 -0.1362  0.0595 -0.2150
17333W        W33517  14.690   4.833  12.559 -0.2644 -0.2501 -0.1411
17334W        W33518  10.298   3.878  13.611 -0.2325 -0.0912 -0.0351
17335W        W33519   3.719   5.685  13.547  0.1951  0.0112  0.2717
17336W        W33520  12.317   2.159   2.275  0.5541  0.1189 -0.3661
17337W        W33521   0.794   7.165  11.107 -0.1585  0.2053 -0.0897
17338W        W33522  18.348  12.810   5.764 -0.1869  0.2307  0.3061
17339W        W33523  12.181   3.423  11.394  0.1847  0.1771  0.0484
17340W        W33524   9.014   4.736   6.151 -0.1183 -0.2183  0.2131
17341W        W33525   6.086   7.757  12.293  0.2636  0.0994 -0.2152
17342W        W33526   2.660  14.043   2.221  0.0206 -0.1507  0.0742
17343W        W33527   3.650  16.177   0.928  0.1380  0.0092 -0.4091
17344W        W33528  12.742  15.376  13.913 -0.0714 -0.2872  0.0281
17345W        W33529   5.996   7.117   4.131  0.1334  0.1431  0.1222
17346W        W33530   0.209   1.513  12.646 -0.1763  0.0210  0.1202
17347W        W33531  17.063   0.905  10.681 -0.0683 -0.2502 -0.0776
17348W        W33532   9.996  18.492  11.912 -0.1243  0.0900 -0.2503
17349W        W33533  13.620  14.136  12.215  0.1841  0.3105 -0.1544
17350W        W33534   8.834  16.876   1.781 -0.1549  0.3596 -0.0525
17351W        W33535   8.144   3.293  15.317  0.1060 -0.0869  0.0348
17352W        W33536  14.443  13.710   4.090  0.5115  0.3792 -0.0836
17353W        W33537  17.229  17.244   4.308  0.0027  0.1653  0.0358
17354W        W33538  18.408   6.292  14.684  0.4011 -0.0184 -0.2777
17355W        W33539  12.655  14.980   1.437  0.1351 -0.0316 -0.0268
17356W        W33540  15.936  14.825   3.701 -0.1791 -0.2226  0.2909
17357W        W33541   8.661   4.569   5.845 -0.1190  0.2347  0.0881
17358W        W33542   5.390  17.200   4.109 -0.1304  0.0875  0.2218
17359W        W33543  15.736  12.370  13.806  0.2598  0.1252  0.0254
17360W        W33544  12.095  18.151   0.920  0.3332 -0.0390  0.3254
17361W        W33545  13.600  14.514   2.960  0.2087 -0.1402  0.0289
17362W        W33546   5.535   4.269   3.643  0.2188  0.1650 -0.2046
17363W        W33547   6.094   1.394   0.026 -0.2358  0.0603  0.1177
17364W        W33548  13.208  13.514   5.336  0.4135  0.0125 -0.2240
17365W        W33549   6.129  14.387  15.889  0.0817 -0.0393  0.1038
17366W        W33550  12.967  14.600  15.175  0.2593  0.2692  0.2436
17367W        W33551  16.648  18.117   9.802  0.2489  0.2035 -0.1094
17368W        W33552   7.482   1.077   2.690 -0.1396  0.0562  0.1742
17369W        W33553   3.797   8.675   3.380  0.2075 -0.1257 -0.1673
17370W        W33554  11.204   6.690   2.913  0.1582  0.1009  0.1416
17371W        W33555   7.392  18.142   2.051  0.0314 -0.0479  0.1796
17372W        W33556  12.636   9.779  13.699 -0.1987  0.1831  0.4200
17373W        W33557  17.686   5.899  13.039 -0.0342 -0.2041  0.2779
17374W        W33558  18.226   1.283  10.889 -0.3158  0.0336  0.0238
17375W        W33559   8.100   9.037  14.382  0.0043 -0.0552  0.1525
17376W        W33560   7.210   8.115   2.343 -0.0290 -0.1031 -0.1270
17377W        W33561   3.836   1.549   3.579 -0.4451 -0.0613  0.3093
17378W        W33562  15.536  18.243  12.845  0.1325  0.2017 -0.2911
17379W        W33563  12.546  18.006  11.233  0.0300  0.1240  0.0759
17380W        W33564  15.291   9.637   4.781 -0.2339 -0.0416  0.0760
17381W        W33565  13.824   3.708  12.289  0.5618 -0.1996 -0.2369
17382W        W33566   0.236  12.145   1.845  0.0356 -0.1725  0.1849
17383W        W33567  10.876   1.659   2.380  0.0226 -0.1063 -0.1611
17384W        W33568  17.384   4.176   0.080  0.0253  0.3173  0.0803
17385W        W33569  17.398   5.482   4.018  0.1755  0.0956 -0.0954
17386W        W33570  17.072  12.870  12.011 -0.1686  0.2244  0.0830
17387W        W33571  18.474  12.300   3.589  0.1744 -0.3082  0.0154
17388W        W33572  14.497  12.917   4.819 -0.1695 -0.0419 -0.3087
17389W        W33573   8.595   3.233   0.885  0.0446  0.1963  0.0393
17390W        W33574   0.237  16.555   3.838 -0.4660 -0.0573 -0.0796
17391W        W33575   7.020  10.965  11.971  0.1081  0.1677 -0.1529
17392W        W33576   8.460  12.032  13.896 -0.0313 -0.1925 -0.2149
17393W        W33577  10.635   9.976  14.608  0.0652  0.0452  0.4664
17394W        W33578   4.600   6.657  11.493 -0.1141  0.0362  0.2616
17395W        W33579  13.178   5.603  12.443 -0.0529 -0.0667 -0.2364
17396W        W33580  10.629   9.527   2.013  0.0112 -0.0220  0.0701
17397W        W33581   8.645  17.966   6.053 -0.3625 -0.1650  0.0011
17398W        W33582  10.747  16.042   2.244  0.3558 -0.2258  0.1641
17399W        W33583  15.810  16.854   1.552  0.2872  0.0361 -0.1225
17400W        W33584  14.488  11.817  15.494 -0.1055 -0.2490  0.3483
17401W        W33585   9.620  11.097  14.262  0.0901  0.1787  0.0952
17402W        W33586   0.777   2.386   3.958 -0.3060  0.0164  0.0825
17403W        W33587   3.631  18.152  11.984 -0.3332  0.2609  0.1866
17404W        W33588   5.612   9.119   0.684 -0.1306 -0.2814 -0.2746
17405W        W33589   0.729   0.958   0.819  0.2123  0.0083 -0.0591
17406W        W33590   5.419  12.603  15.355  0.0156  0.0607 -0.2048
17407W        W33591  11.601  17.992  14.827 -0.2212 -0.3237 -0.3832
17408W        W33592  17.147  14.582   5.484  0.1609 -0.4096 -0.0117
17409W        W33593  13.672   4.512   4.591  0.0606 -0.2692  0.0065
17410W        W33594   0.069   5.825   4.975  0.2478 -0.0402 -0.1651
17411W        W33595  13.462   0.306  13.070  0.1367  0.0473 -0.0581
17412W        W33596  11.278  17.031   6.154 -0.2158 -0.2487 -0.1947
17413W        W33597  13.053   8.979   3.363 -0.0067 -0.1195  0.0469
17414W        W33598   0.755   6.369  11.689  0.1320  0.2554  0.1537
17415W        W33599  14.039  15.582  11.831  0.2132 -0.2112  0.1008
17416W        W33600   6.650   2.505  14.921 -0.2753  0.0263 -0.1134
17417W        W33601  18.109  13.026   2.027 -0.2020 -0.1204 -0.3450
17418W        W33602  10.685   1.732   3.304 -0.1318  0.0473  0.0589
17419W        W33603   6.699  14.211  12.855 -0.1591 -0.1567  0.0928
17420W        W33604  16.639   7.586   4.378 -0.2145 -0.2413 -0.0406
17421W        W33605   8.536   1.227  14.539  0.0068 -0.0025  0.1217
17422W        W33606   8.887   3.991  11.867  0.1551 -0.5701  0.0316
17423W        W33607  15.200  13.824  11.577 -0.1396 -0.0281 -0.0822
17424W        W33608   4.442   2.765  15.377 -0.2378 -0.4356 -0.4284
17425W        W33609  14.784  15.406   2.370  0.0829  0.2391 -0.0836
17426W        W33610   7.108  16.386   1.270  0.0270  0.0879  0.1123
17427W        W33611   6.835  17.072  15.564  0.2525 -0.2336 -0.2321
17428W        W33612  16.532  18.302   2.321  0.0790  0.2563  0.1177
17429W        W33613  11.457  12.884   2.575  0.0227 -0.2558  0.2284
17430W        W33614   2.163   8.356   1.597 -0.1447 -0.2234  0.3925
17431W        W33615   4.867  11.952   0.167  0.2005 -0.1841  0.0326
17432W        W33616  12.971  14.876  14.281 -0.3829 -0.1018  0.1011
17433W        W33617   4.572   6.847  14.474 -0.0439  0.0431  0.0076
17434W        W33618   2.834   4.512  12.435 -0.2468 -0.4608 -0.1051
17435W        W33619  13.875   6.541  13.503  0.1631  0.0714 -0.4183
17436W        W33620  18.290  18.331   0.384  0.0783  0.1062 -0.4487
17437W        W33621   3.842   7.414   4.364 -0.2790 -0.4453 -0.1051
17438W        W33622   2.948  16.242  11.441 -0.3725 -0.2201 -0.1509
17439W        W33623  13.488  17.936  11.141  0.1687  0.0362  0.1098
17440W        W33624   2.239  17.928   1.416 -0.3892  0.1635  0.0715
17441W        W33625   0.043  13.235  11.990  0.3471 -0.2554  0.1272
17442W        W33626   8.147   7.039  15.243  0.3382 -0.1945 -0.0335
17443W        W33627   8.306   3.463  14.901 -0.1028  0.2341 -0.0386
17444W        W33628  17.532   1.378   3.447  0.0629 -0.1570 -0.0935
17445W        W33629   3.236  13.630  15.592 -0.2823  0.1246 -0.0649
17446W        W33630   9.517  18.470  15.122  0.0796 -0.3711  0.0808
17447W        W33631  17.169   1.614   2.032  0.0511  0.2685 -0.0552
17448W        W33632  14.833   0.460   1.739  0.2274  0.5686  0.2265
17449W        W33633  11.320  12.955   4.480  0.0493  0.1328 -0.2150
17450W        W33634   9.633  17.133  16.022  0.0793 -0.1668 -0.3991
17451W        W33635  14.867   5.476  16.097 -0.1711  0.3245 -0.0549
17452W        W33636   0.990   2.095   2.840 -0.1739  0.1218 -0.1858
17453W        W33637   4.597   5.687  13.976 -0.0068 -0.0164  0.0377
17454W        W33638   7.241  14.927  12.499 -0.0663 -0.0183 -0.3256
17455W        W33639   8.827  14.556   4.153 -0.1277 -0.2000  0.0840
17456W        W33640   6.696   2.815   2.169 -0.2400  0.0056 -0.1783
17457W        W33641   6.104  17.800   3.930  0.3298  0.1514 -0.0471
17458W        W33642  16.162  15.213  14.748  0.0355 -0.1081 -0.0895
17459W        W33643   8.584   4.835  13.401  0.0857  0.2910 -0.2191
17460W        W33644  17.130   8.825  12.760 -0.0999 -0.0292  0.1118
17461W        W33645  12.312  15.102  13.894 -0.0495 -0.1153 -0.3074
17462W        W33646  10.278  14.678   1.261  0.1151 -0.2249  0.0569
17463W        W33647  14.709   9.849   1.905 -0.2965 -0.0265  0.3493
17464W        W33648   6.612   7.424   5.973  0.2344  0.0111  0.3312
17465W        W33649  15.195   4.321   2.213  0.3174 -0.0884 -0.1792
17466W        W33650   4.164   5.086   5.522 -0.0660  0.0117 -0.0837
17467W        W33651  12.420  12.927   5.265  0.2586 -0.2609  0.0429
17468W        W33652   4.384   6.241  14.373  0.0107  0.1925 -0.0521
17469W        W33653   4.554   3.038   1.163  0.0555 -0.4942 -0.0107
17470W        W33654  12.168  11.053   0.685 -0.2379 -0.1297 -0.1999
17471W        W33655   3.158  11.870  12.927  0.0063 -0.1887  0.0456
17472W        W33656  12.013   8.075  15.426 -0.2467 -0.1192  0.0540
17473W        W33657  11.041  14.850  15.977  0.0267 -0.0867  0.2533
17474W        W33658  16.248  15.552  14.361  0.0071 -0.0332  0.1960
17475W        W33659  14.313  13.941  11.251  0.0188  0.1858 -0.3430
17476W        W33660   1.316  13.944   0.662  0.1049 -0.3857  0.0904
17477W        W33661   7.882   5.780   3.455 -0.2620 -0.3049 -0.1105
17478W        W33662   9.653   4.381  11.857 -0.3438 -0.1780 -0.1380
17479W        W33663   3.502   6.311   5.091 -0.0287 -0.0646  0.1744
17480W        W33664  16.278   6.633  15.982  0.2151 -0.2270  0.0698
17481W        W33665   8.053   7.827   4.952 -0.3759 -0.2312  0.2955
17482W        W33666  12.482   8.070   3.984 -0.3467 -0.3185  0.3271
17483W        W33667   3.159   6.856  15.657  0.0547 -0.0665  0.3076
17484W        W33668  11.853   0.939  11.615 -0.2702 -0.3727 -0.1226
17485W        W33669   9.960   4.828   3.614  0.3176 -0.2408 -0.0716
17486W        W33670   1.082   2.757   4.752  0.0343  0.0194 -0.1092
17487W        W33671  15.106  10.523  15.653  0.0968  0.0471  0.4123
17488W        W33672   2.893   6.711   1.870 -0.1769  0.1316  0.2286
17489W        W33673   4.868   9.677   2.757 -0.3766  0.0039  0.2891
17490W        W33674   0.534  10.399  11.794  0.4238 -0.0947 -0.5431
17491W        W33675  17.335   1.063  15.686 -0.0842  0.2181 -0.1764
17492W        W33676  10.070   7.237   3.110 -0.1046  0.0363  0.0076
17493W        W33677  15.620  18.205  15.032 -0.2224 -0.0826 -0.2804
17494W        W33678   6.051   8.961  13.089  0.0703  0.3316 -0.1883
17495W        W33679  14.191   2.005  11.969 -0.0095 -0.1176  0.1375
17496W        W33680   7.442   1.609  12.414  0.2460 -0.0160  0.0273
17497W        W33681   0.881  16.522   4.134  0.2557 -0.1215 -0.1191
17498W        W33682   4.125  15.651  12.134 -0.2174 -0.2568 -0.0958
17499W        W33683   3.810   1.548  13.385 -0.4171 -0.1191  0.1082
17500W        W33684  15.870  10.974  14.163 -0.1102  0.2823  0.3529
17501W        W33685   3.149   7.100  14.308  0.2194 -0.0387  0.0444
17502W        W33686  16.814  11.160  13.961 -0.3102 -0.0839 -0.0689
17503W        W33687   3.658   2.429   1.026 -0.0025 -0.2968  0.0328
17504W        W33688   6.357  12.200   1.240  0.1397 -0.1917 -0.2205
17505W        W33689  12.840   9.262   1.118 -0.0175 -0.0080  0.2753
17506W        W33690  12.001  13.342   1.708  0.4245 -0.3013  0.0263
17507W        W33691   2.966   4.867  12.796 -0.3200 -0.0592 -0.1099
17508W        W33692   2.719   1.315   0.101  0.1391 -0.0080  0.2665
17509W        W33693  13.808  14.601   3.786 -0.0883  0.0781  0.0945
17510W        W33694   4.910  16.648  11.699 -0.1279 -0.3646  0.2617
17511W        W33695   3.517   4.696   2.844 -0.1022  0.0889 -0.2302
17512W        W33696   2.687   9.167  11.970 -0.0217  0.3232 -0.2035
17513W        W33697   0.595   4.900  12.394  0.0103 -0.1110 -0.2113
17514W        W33698  11.136   9.939  14.655  0.2883  0.3429  0.1857
17515W        W33699   4.778   0.183   2.340  0.0904  0.1311 -0.0306
17516W        W33700   6.647  15.860   0.493 -0.0511  0.1347  0.1371
17517W        W33701   8.793  13.222  15.856  0.1337  0.1212 -0.0863
17518W        W33702  17.106  17.595  11.842 -0.2879  0.3010 -0.1474
17519W        W33703  15.838   6.478  14.973  0.1435  0.1422 -0.0232
17520W        W33704  17.262  10.661  12.468 -0.0728 -0.0409  0.1551
17521W        W33705  10.381   3.403  11.208 -0.0255  0.1013  0.4185
17522W        W33706  10.693  12.463   0.385 -0.1486 -0.1741 -0.0450
17523W        W33707  11.006   2.363  11.252  0.0448  0.0859  0.1655
17524W        W33708   0.536   6.224  12.904  0.0181 -0.1129  0.1071
17525W        W33709  16.113   6.141  15.235 -0.1526  0.0422 -0.1463
17526W        W33710   3.286   2.582  11.049 -0.0811  0.1988 -0.0599
17527W        W33711   3.998   4.040   1.590  0.1159 -0.1229 -0.0157
17528W        W33712  11.804   6.152   2.351 -0.0265 -0.2076 -0.4529
17529W        W33713   0.960  14.872  15.079 -0.5629 -0.0481 -0.2401
17530W        W33714   4.703   4.858   2.995 -0.1303  0.3502 -0.1547
17531W        W33715  15.555  15.848   3.896  0.0363  0.1875  0.0572
17532W        W33716  10.635   2.313  13.372  0.0083  0.1669  0.1753
17533W        W33717  14.819  17.406   0.729  0.2702 -0.1631 -0.1044
17534W        W33718  13.345   9.377  15.038  0.1208  0.1199 -0.0375
17535W        W33719  16.817  16.776   1.314  0.0341  0.2016 -0.1556
17536W        W33720  10.341  17.496  15.677  0.1382 -0.1255  0.1604
17537W        W33721   1.917   9.846   0.805 -0.0233 -0.1835  0.0918
17538W        W33722   6.486   8.282   1.465 -0.0488  0.0584 -0.1203
17539W        W33723  16.119   3.915   4.240 -0.2582 -0.1060 -0.0628
17540W        W33724   2.403  10.271  12.910 -0.0878 -0.1022  0.1123
17541W        W33725   0.262   2.667  15.771  0.1287  0.1170  0.2305
17542W        W33726  14.640   5.204  13.587 -0.0006  0.0373  0.2266
17543W        W33727   7.829  10.147   0.526  0.1361 -0.0190  0.2293
17544W        W33728   1.016   9.818   0.330  0.2580  0.1808 -0.1294
17545W        W33729  17.465   4.654  15.883 -0.0292 -0.2595 -0.0645
17546W        W33730  17.824   8.708   2.776 -0.1007  0.1907 -0.0174
17547W        W33731  14.907   4.196   0.549  0.0471  0.0546  0.0934
17548W        W33732   9.946   4.960  12.494 -0.0963  0.2514 -0.1299
17549W        W33733  16.039   0.591   3.953 -0.0847 -0.2066  0.0508
17550W        W33734   2.458  10.095   5.493 -0.2598  0.0247  0.1373
17551W        W33735  16.076  10.268   4.771 -0.1514  0.0232 -0.2130
17552W        W33736   2.389   0.996   4.609  0.2784 -0.3050 -0.0358
17553W        W33737   7.617  15.982  14.915  0.1925 -0.1594  0.2935
17554W        W33738  16.873  10.644  12.840  0.0830 -0.0311 -0.1349
17555W        W33739   0.445   7.329   1.530 -0.0343 -0.1260  0.0071
17556W        W33740   4.635   4.601  12.603  0.2832 -0.2254  0.0331
17557W        W33741  14.346   9.553   5.243 -0.0946 -0.3298 -0.3348
17558W        W33742   0.966   7.203   4.846  0.1737  0.1051  0.1038
17559W        W33743  11.138  15.121   5.591  0.0471  0.2280  0.0542
17560W        W33744  14.011  12.771  11.218 -0.0124 -0.4469  0.0054
17561W        W33745   5.852  10.217  13.369  0.0291  0.0662 -0.0093
17562W        W33746   0.347   1.428   9.716 -0.4767 -0.0888 -0.1429
17563W        W33747  15.795  11.941   4.826 -0.0586 -0.0002  0.0244
17564W        W33748   8.625  13.853  15.865  0.0336  0.0637 -0.0921
17565W        W33749   1.386  14.177  15.525 -0.1754 -0.0359 -0.1126
17566W        W33750  12.147   5.195  16.130  0.1585  0.2269 -0.1354
17567W        W33751   0.811  15.273   1.715  0.1262  0.1988  0.2811
17568W        W33752   6.415  11.711  15.251  0.1016  0.0867 -0.1670
17569W        W33753   3.198  16.911   3.329 -0.1805  0.0330 -0.0421
17570W        W33754  18.304  16.118  13.899 -0.1431  0.0300  0.1879
17571W        W33755   4.514   5.524   1.476 -0.2616 -0.0580  0.0220
17572W        W33756   3.720  11.345  11.473 -0.0594  0.2146 -0.1626
17573W        W33757  10.854   8.782   3.354 -0.3473 -0.0803 -0.3212
17574W        W33758  15.921  10.572   0.851  0.0619  0.1011  0.0374
17575W        W33759   7.590   5.520  13.945  0.5796  0.0520 -0.0114
17576W        W33760  12.390   0.221  13.474  0.0816  0.0920  0.1656
17577W        W33761   0.657   0.981  13.588  0.0921  0.3922  0.1735
17578W        W33762  14.928  11.590   5.456  0.0730  0.1191 -0.0051
17579W        W33763  11.880  12.305  11.559 -0.1239  0.1384  0.0707
17580W        W33764   2.412   3.660  13.785  0.2364  0.3917  0.2766
17581W        W33765   4.019   2.105   5.488 -0.0931 -0.0020 -0.0572
17582W        W33766  18.224  16.088   1.211  0.1136 -0.1006 -0.0992
17583W        W33767  10.839  10.817  11.800  0.0320 -0.2939 -0.1171
17584W        W33768   2.635  13.000   3.645  0.2460  0.0117  0.1704
17585W        W33769  10.517   4.602   4.079  0.4700 -0.2195 -0.2941
17586W        W33770   8.247   3.545   4.052 -0.0933 -0.0321 -0.0425
17587W        W33771  12.094  14.519   5.478 -0.0073 -0.0003 -0.0124
17588W        W33772   7.504   5.378  12.265  0.1578 -0.3414  0.0776
17589W        W33773   5.886   8.898  11.654 -0.1795  0.2383 -0.0191
17590W        W33774   5.389   7.700  14.498  0.2648 -0.0295 -0.1362
17591W        W33775   3.955  12.712   2.702  0.0373  0.2021  0.1593
17592W        W33776   5.506  10.396   2.533  0.1422 -0.2844  0.2278
17593W        W33777   0.462  16.349   4.437  0.2180 -0.2590 -0.2622
17594W        W33778   9.979   0.503   1.115  0.0600 -0.0323 -0.2550
17595W        W33779  17.220   9.758  15.712 -0.1084 -0.0998  0.1204
17596W        W33780  18.136   8.838  12.759  0.0606 -0.0080  0.0513
17597W        W33781  18.352   7.345   1.660 -0.4051  0.1463 -0.3857
17598W        W33782  12.826   6.216   1.206  0.3847 -0.3495 -0.1284
17599W        W33783  16.814  14.559   3.447  0.1419  0.1835  0.0435
17600W        W33784  10.005  14.465   3.045 -0.4964 -0.2001  0.1073
17601W        W33785   3.831   9.248  16.074  0.2661  0.0909  0.2338
17602W        W33786  14.688  15.366  15.348 -0.1055  0.1584 -0.1050
17603W        W33787  15.890  17.523  12.675  0.4817 -0.2186 -0.0711
17604W        W33788  11.748   2.046  11.746  0.0237 -0.0627  0.0902
17605W        W33789  16.739  13.574   4.334 -0.0634  0.0768 -0.1382
17606W        W33790   7.362   8.438   0.686 -0.2153  0.0541  0.0375
17607W        W33791   1.334  13.107   1.315  0.2294  0.3069  0.3769
17608W        W33792  12.301  17.230  15.591 -0.1955 -0.1106 -0.2608
17609W        W33793   2.945  14.707  11.848  0.2220  0.0177  0.0879
17610W        W33794   8.928   1.719  11.107  0.3663  0.1012  0.4236
17611W        W33795  12.577   5.843   1.962  0.1710 -0.1222 -0.1186
17612W        W33796   8.090   0.421  13.628 -0.1970  0.0243  0.3646
17613W        W33797   7.674   7.904   1.581 -0.0971 -0.0093 -0.2435
17614W        W33798  11.152   0.599  12.886 -0.2413  0.2144 -0.0288
17615W        W33799   8.200  14.795   1.414  0.1077  0.3224  0.0336
17616W        W33800  13.407   0.941  15.188  0.0870 -0.0105  0.1831
17617W        W33801  17.880  16.566  12.565  0.0759  0.1242  0.0221
17618W        W33802   3.090   3.280   2.566 -0.2468  0.1053 -0.4079
17619W        W33803   7.830   1.425   1.943  0.1995 -0.2925  0.1419
17620W        W33804  10.173  15.264  15.302  0.1983 -0.0874 -0.1749
17621W        W33805   7.281  11.275   1.346 -0.0318 -0.0428  0.0575
17622W        W33806  11.025   8.369   5.695  0.0022  0.1676 -0.1290
17623W        W33807   5.070   6.707   0.929  0.1179 -0.0327 -0.0782
17624W        W33808  17.337   6.164   5.403  0.0040  0.3098 -0.0134
17625W        W33809   7.655   1.613  13.692 -0.2220 -0.1785 -0.0299
17626W        W33810  10.276   5.632  16.093 -0.0776  0.0192 -0.0545
17627W        W33811   6.470  15.846   2.448  0.0565  0.1099 -0.0337
17628W        W33812  18.388  15.379   0.302  0.3954  0.0276  0.1944
17629W        W33813   0.998   3.323  10.644  0.1232 -0.0952  0.1313
17630W        W33814   1.502   3.162   1.989  0.2142  0.1887  0.0027
17631W        W33815   5.071   0.870   2.894  0.0232  0.3508  0.0965
17632W        W33816  17.219  16.517   2.543  0.0210 -0.0076 -0.0718
17633W        W33817  14.148   7.280  13.976  0.1846  0.1292  0.0820
17634W        W33818   0.701   3.251   0.162  0.4399  0.0668  0.1779
17635W        W33819   9.786  12.778   0.643  0.3163  0.1142  0.0399
17636W        W33820   8.030   4.149   4.416 -0.0028 -0.0844  0.0293
17637W        W33821   9.379   5.309  13.879 -0.1083  0.2949 -0.0477
17638W        W33822  15.164  15.551  15.412  0.0214 -0.1232  0.1113
17639W        W33823   8.894  11.831  14.157  0.0732  0.0037 -0.0184
17640W        W33824   3.025   0.391  11.525  0.1581 -0.0271 -0.1412
17641W        W33825  13.254  10.682   4.065  0.0932  0.2647 -0.0047
17642W        W33826  12.522   6.990  15.287  0.1915  0.0854  0.1496
17643W        W33827   0.093   0.260   3.414 -0.2357 -0.1523 -0.1723
17644W        W33828  12.082   4.967   0.440 -0.0996 -0.0490  0.1132
17645W        W33829   3.212   7.917   3.161 -0.2816 -0.0926  0.1758
17646W        W33830   5.909  17.765   4.624 -0.0120  0.3268  0.3399
17647W        W33831   6.787  14.945   5.249 -0.1691  0.0598  0.2112
17648W        W33832   8.881   5.104  14.392  0.0864 -0.3396  0.1982
17649W        W33833   5.092  16.787  14.403  0.1019  0.2046  0.1131
17650W        W33834   9.044   4.838  15.864  0.0548  0.0786  0.1397
17651W        W33835  14.196   2.017  13.617  0.0015  0.4065  0.2661
17652W        W33836   1.935   5.036   2.924  0.1054  0.0859  0.0925
17653W        W33837   3.043  13.851   1.979  0.0909 -0.0026 -0.0785
17654W        W33838   3.015   0.327   0.207  0.0348  0.0041  0.0672
17655W        W33839   3.451   7.658   1.513  0.0162 -0.0646 -0.1439
17656W        W33840  17.249   2.151   4.638 -0.1466 -0.1340 -0.2474
17657W        W33841   3.962   5.024   2.545 -0.1840  0.0061 -0.0025
17658W        W33842   9.307   1.738   5.322 -0.1592  0.0929 -0.1050
17659W        W33843  11.226   4.080   1.471 -0.1492  0.0171 -0.2591
17660W        W33844   2.978   2.838   2.280  0.3510 -0.3099  0.1978
17661W        W33845  13.574   5.529  11.755 -0.3365 -0.0850  0.2586
17662W        W33846   5.952   0.886   3.559  0.2178  0.1224  0.1108
17663W        W33847  16.933   9.762   1.976 -0.1429 -0.0911 -0.0654
17664W        W33848  11.447   9.823   4.603  0.1904  0.0279  0.3555
17665W        W33849   1.492   9.014   0.437  0.1722 -0.0754 -0.1206
17666W        W33850   8.680  16.788  11.147 -0.1226 -0.5723  0.1635
17667W        W33851   6.683   5.883  14.696 -0.0303 -0.1320  0.0088
17668W        W33852   2.220   4.522   3.744 -0.2110  0.0737  0.0483
17669W        W33853   6.323  11.086  13.572 -0.1481 -0.0066 -0.1948
17670W        W33854  12.358  12.350   6.065  0.0795  0.1486  0.0503
17671W        W33855  10.832   7.733  11.993  0.2350 -0.0811  0.1244
17672W        W33856  11.710   9.217   1.685 -0.1228  0.0229  0.0096
17673W        W33857   9.103  12.093   5.849 -0.2879  0.1036 -0.1832
17674W        W33858   0.895   6.362   0.415  0.0584 -0.2225 -0.2030
17675W        W33859  17.229   8.670   2.173  0.0591 -0.1197  0.0772
17676W        W33860  16.767   7.414   3.488 -0.0922  0.1490 -0.2164
17677W        W33861  17.019  13.879  11.852 -0.0612  0.3845 -0.0823
17678W        W33862   7.198   9.280   4.666 -0.0119  0.4315 -0.1757
17679W        W33863   7.221  11.810   1.485 -0.1523 -0.0384 -0.0860
17680W        W33864  12.953  14.154   4.305 -0.0025 -0.1090 -0.1901
17681W        W33865   7.011   3.050  12.834 -0.2619  0.0197  0.0675
17682W        W33866  17.726  11.802  10.729 -0.3155  0.3347 -0.0243
17683W        W33867  14.127   5.441   3.211  0.3515  0.1834 -0.0060
17684W        W33868  17.254   7.656   5.104 -0.0837  0.1120 -0.1524
17685W        W33869  17.765  15.456   3.206 -0.2851  0.1883  0.1739
17686W        W33870   8.919  13.259   2.984 -0.3665 -0.4221  0.0618
17687W        W33871   8.222  15.044  12.352  0.0826 -0.0114  0.1052
17688W        W33872  14.749   9.966  11.961  0.0732 -0.3861 -0.0808
17689W        W33873   8.262  14.244  11.611  0.0419  0.1283 -0.0547
17690W        W33874   0.303   9.262  13.365  0.1063  0.2422 -0.1945
17691W        W33875  16.853  10.905   4.410  0.0428 -0.0347  0.1579
17692W        W33876   4.223  13.179   2.986 -0.2607  0.2126 -0.0759
17693W        W33877   6.338  17.756  13.514 -0.1668 -0.0345 -0.0103
17694W        W33878  15.810  11.047   0.749  0.2816 -0.2228 -0.0532
17695W        W33879  16.670   6.957  15.420  0.1574  0.0657  0.3900
17696W        W33880   2.641   7.524   3.776  0.1440 -0.3376 -0.0246
17697W        W33881   6.162  13.571  13.875 -0.1191 -0.0179 -0.0877
17698W        W33882   7.669  15.122  11.850 -0.1559 -0.0354  0.1734
17699W        W33883   5.078   5.865   2.538  0.3469  0.0366 -0.0239
17700W        W33884   8.546  14.021   4.909  0.2262  0.0764  0.1275
17701W        W33885  13.494   3.333  11.817 -0.1328 -0.0136  0.2695
17702W        W33886  15.081  11.245   2.625  0.2671 -0.0109  0.0781
17703W        W33887  10.238  15.756  11.959  0.2268 -0.3620  0.0078
17704W        W33888  12.497  10.287  13.780 -0.0402  0.2345 -0.3999
17705W        W33889  15.788   3.984   1.301 -0.1409  0.0849  0.0784
17706W        W33890   0.877  14.820  12.861  0.1219  0.1110  0.2608
17707W        W33891  15.796   3.453   2.365  0.3043 -0.3438 -0.0711
17708W        W33892  11.807  17.267  14.390  0.0693 -0.1824  0.1792
17709W        W33893   0.380  14.888  13.350  0.1974 -0.1269 -0.0078
17710W        W33894  12.201  15.096  12.801  0.1122  0.0497 -0.2711
17711W        W33895  12.737   9.151  14.088  0.0518 -0.1053 -0.0315
17712W        W33896   5.357   2.504  11.123 -0.2950 -0.0377 -0.0172
17713W        W33897   3.979   6.086   0.124 -0.1471  0.2755  0.1471
17714W        W33898  16.362   3.839   3.571 -0.1873  0.1243 -0.1423
17715W        W33899   8.823  15.777  14.311 -0.2725 -0.2556 -0.0298
17716W        W33900  15.044  14.090   1.627  0.2807 -0.4729  0.0256
17717W        W33901   2.935   9.732   4.247 -0.1178  0.3877  0.3573
17718W        W33902  14.991   5.844   3.185 -0.0163  0.1509  0.2516
17719W        W33903   8.720  16.546   0.860  0.1375  0.3203 -0.0890
17720W        W33904  15.489   3.556   0.658 -0.0455  0.0317  0.1385
17721W        W33905   3.951   5.753  14.646 -0.1031 -0.0285 -0.1868
17722W        W33906   9.759   2.584  12.322  0.0823 -0.0983 -0.1971
17723W        W33907  13.091  10.443   5.987  0.1953  0.4724 -0.1636
17724W        W33908   7.714   0.452  12.776  0.4335  0.0516  0.0029
17725W        W33909  12.332  15.311  15.409 -0.0670  0.1386 -0.2078
17726W        W33910   5.735   4.492   0.289  0.0549  0.0902 -0.0288
17727W        W33911   9.185  16.678  11.962  0.1325  0.0526  0.0801
17728W        W33912   5.688   4.739  15.048  0.1611 -0.0731  0.2769
17729W        W33913   8.120   0.131  11.390  0.0171 -0.1352 -0.3031
17730W        W33914   9.576   5.396   6.454 -0.0197  0.0808  0.2996
17731W        W33915   5.203  10.149   4.704 -0.0616 -0.2878 -0.0298
17732W        W33916   5.784  17.611  15.442 -0.0194  0.0458 -0.1473
17733W        W33917  13.396   6.323   1.967  0.1895 -0.0831  0.1388
17734W        W33918   6.921   1.567   2.196 -0.0011  0.1377 -0.2757
17735W        W33919   3.070   9.757   2.370  0.2063 -0.1055  0.2513
17736W        W33920  18.130  16.262   4.244 -0.1062  0.1453  0.0054
17737W        W33921  16.327  11.190  15.294  0.0350 -0.0282  0.3473
17738W        W33922   6.810   9.648   5.972 -0.3091  0.2631  0.3040
17739W        W33923  16.580   1.170   3.582  0.0122  0.3424 -0.1907
17740W        W33924   5.013   5.764  12.195  0.1005  0.0409 -0.0920
17741W        W33925  11.932   1.037  12.804 -0.1639 -0.3429 -0.2917
17742W        W33926  15.574  17.656  10.892  0.2031 -0.1935 -0.0874
17743W        W33927  16.020  17.934   0.102 -0.2197  0.1073  0.0613
17744W        W33928   1.301  12.078   2.769  0.1067  0.0626 -0.0668
17745W        W33929   2.679  16.826  12.470 -0.1206  0.1385  0.1530
17746W        W33930   8.923   1.143  15.518 -0.0901 -0.0245 -0.1918
17747W        W33931  14.717   0.746  13.508  0.2882  0.2743  0.0076
17748W        W33932  12.270  15.571   3.937  0.1437  0.0498  0.0654
17749W        W33933   7.475   4.218   5.154  0.0538 -0.0139 -0.2078
17750W        W33934   1.271   2.670   9.981  0.3400 -0.0440  0.0659
17751W        W33935   9.640  15.083   3.279 -0.1663 -0.1422 -0.1482
17752W        W33936   8.079   6.701  12.497  0.1459  0.1795 -0.2095
17753W        W33937  10.401   4.638   3.581  0.3025 -0.1268 -0.0538
17754W        W33938   3.916   1.192   4.309  0.3698 -0.3940  0.0161
17755W        W33939   5.532   3.595   5.713  0.1685  0.1367 -0.1140
17756W        W33940   0.137   4.527   0.122 -0.0678  0.0927  0.2535
17757W        W33941   7.782   9.050  11.479 -0.1501  0.0954 -0.1179
17758W        W33942  15.299  14.783   1.603  0.0239 -0.0481  0.0045
17759W        W33943  11.801  13.994  13.637  0.0151 -0.3224  0.2028
17760W        W33944   8.783  11.187   6.025  0.0460  0.0847 -0.0473
17761W        W33945  12.543   1.182   1.901 -0.3740 -0.1198  0.0737
17762W        W33946   6.190  12.491   0.266 -0.0116  0.0743 -0.1795
17763W        W33947  15.002  17.184   5.937  0.0714 -0.1333  0.6637
17764W        W33948   1.246   1.716   1.016 -0.0856 -0.4268 -0.1847
17765W        W33949   6.710  11.035   3.999 -0.0307  0.1656 -0.0138
17766W        W33950  11.131   4.893   1.155  0.2657 -0.0860  0.1542
17767W        W33951  13.730   1.244   1.844  0.0875  0.0867  0.1403
17768W        W33952  16.503   0.159  13.172 -0.2315  0.1826 -0.1862
17769W        W33953  13.302  11.086   5.301 -0.1154 -0.0890  0.2552
17770W        W33954  16.201  13.016   3.445  0.1354 -0.0081  0.1354
17771W        W33955  15.589   4.842   2.891 -0.0771 -0.2509 -0.0982
17772W        W33956   7.358   1.299   0.420 -0.1163  0.2106  0.0415
17773W        W33957   2.418  12.201   4.682  0.2545 -0.0212 -0.2225
17774W        W33958  17.733  16.908  15.053  0.1409 -0.2023  0.0082
17775W        W33959   9.413   1.098  15.280  0.1129  0.0494 -0.0373
17776W        W33960  16.452  17.337  14.632 -0.0991  0.0564 -0.0411
17777W        W33961  10.315  14.276   0.019  0.1150  0.0236 -0.1378
17778W        W33962   4.430   6.990   1.102 -0.0238  0.2555  0.2650
17779W        W33963  10.239   0.240  14.513 -0.0756  0.0131  0.0864
17780W        W33964   4.654  16.850   0.873 -0.0141 -0.0961  0.1633
17781W        W33965   5.506  10.769   4.288 -0.2436 -0.0158  0.0412
17782W        W33966   7.757   2.386   5.279  0.2427  0.1946  0.1412
17783W        W33967  12.175  17.373   2.734  0.1331 -0.0756  0.1586
17784W        W33968  14.309  14.256  12.726 -0.1363  0.0107  0.1140
17785W        W33969   4.646  17.536  12.369 -0.1561  0.1221  0.0255
17786W        W33970  12.778   0.718  12.280 -0.1088  0.0012  0.0238
17787W        W33971   8.339  14.072   3.081 -0.2507 -0.0036  0.1476
17788W        W33972  16.449   1.506   1.369  0.0808  0.1848  0.0171
17789W        W33973   2.557  17.704   4.151  0.1050  0.3438 -0.0261
17790W        W33974   5.269   0.041  12.611 -0.0297 -0.1516 -0.1854
17791W        W33975  14.567   8.765  14.549 -0.0876 -0.1185  0.0419
17792W        W33976   2.158   6.885  14.973  0.0169  0.0623  0.0037
17793W        W33977  10.104   7.523   4.968  0.0224 -0.2072  0.1167
17794W        W33978   3.563   7.118   2.866  0.0926  0.0860  0.1977
17795W        W33979   4.289   8.793  15.139  0.0816 -0.1371  0.0457
17796W        W33980   9.029   6.680  13.485  0.1039  0.0808  0.1338
17797W        W33981  17.662  12.723  15.610 -0.1481 -0.0714  0.1401
17798W        W33982  17.089   8.646  14.314  0.1458  0.3723 -0.2196
17799W        W33983   8.545  12.194  12.937  0.4835  0.1113 -0.0493
17800W        W33984   9.285  15.786   3.944  0.3461  0.1404 -0.0801
17801W        W33985   7.651  11.244   4.404  0.0621  0.0495 -0.0243
17802W        W33986  12.034   8.009   5.521 -0.3151 -0.0116 -0.2870
17803W        W33987  10.972  17.450   4.001 -0.3536 -0.1394  0.1820
17804W        W33988   4.667   8.148  12.007 -0.2991 -0.1448 -0.0713
17805W        W33989   2.394  12.154   3.474  0.2233  0.2669 -0.2618
17806W        W33990  18.389  16.403   2.029 -0.2815 -0.1535 -0.1916
17807W        W33991   7.614  16.089  13.984 -0.1236  0.1788 -0.2118
17808W        W33992  16.075   8.940   5.194  0.1314  0.1708  0.1222
17809W        W33993   7.710  17.068  14.137  0.1654 -0.3705 -0.0153
17810W        W33994   6.554   0.055  13.282  0.0722 -0.0974  0.1647
17811W        W33995  15.315  18.179   1.831 -0.1118  0.0837 -0.0029
17812W        W33996   8.896   0.061  14.657 -0.1276 -0.0357 -0.0631
17813W        W33997  11.314  16.018  13.872  0.0767 -0.1171 -0.3205
17814W        W33998   3.838   9.302   1.190 -0.0205 -0.0843  0.1087
17815W        W33999   4.574  10.396   5.672 -0.0977 -0.0409 -0.0272
17816W        W34000  15.607  16.194   2.631  0.0066  0.2695  0.1536
17817W        W34001  13.506   5.704  14.862  0.3816  0.0127 -0.1479
17818W        W34002  18.370   9.421   4.377  0.2642 -0.0487  0.1335
17819W        W34003  14.894   7.671   1.161 -0.2832  0.0565 -0.0272
17820W        W34004  15.232   9.936  12.819 -0.2696  0.3210  0.0140
17821W        W34005   0.596  14.396  15.719 -0.2129  0.0168  0.2339
17822W        W34006   2.211  11.394  14.266  0.0636 -0.0162  0.1063
17823W        W34007   5.933  15.956   2.512  0.2822  0.0233  0.1174
17824W        W34008   8.730  13.470  11.231  0.0950  0.2704  0.0549
17825W        W34009   4.474  18.190  14.110  0.1536  0.0713 -0.0861
17826W        W34010   5.322  11.894  11.869  0.2121 -0.0923  0.0548
17827W        W34011  16.016   1.971   0.046  0.1389  0.0675 -0.0541
17828W        W34012   9.823   8.500   3.034 -0.1331  0.0945  0.1026
17829W        W34013  17.700   9.419   1.833  0.1553  0.3545 -0.1447
17830W        W34014   7.840   3.162  11.584  0.1975 -0.0307 -0.3827
17831W        W34015   7.574  16.280   0.173 -0.0335  0.2191  0.2515
17832W        W34016   0.617   1.005   1.282  0.3118 -0.0070  0.1455
17833W        W34017  10.772   1.912   1.087 -0.0170  0.3226  0.1400
17834W        W34018   0.142   9.499   0.694  0.1037 -0.2757  0.0908
17835W        W34019  10.213   9.100  13.530  0.0746 -0.0864  0.2483
17836W        W34020   1.937   3.095   3.332  0.3410  0.1963 -0.0626
17837W        W34021  10.181   7.825   1.945  0.0421 -0.0244 -0.1280
17838W        W34022   6.651  12.805  15.609  0.0846  0.3344 -0.1499
17839W        W34023  18.051  11.246   1.819 -0.0280 -0.4344 -0.0283
17840W        W34024   3.387   8.313   2.885 -0.2212  0.1084 -0.1628
17841W        W34025   9.645   9.886   0.966  0.1483 -0.0572 -0.0455
17842W        W34026   5.171  12.204   4.141  0.1127  0.1715  0.0172
17843W        W34027   6.149  11.157   3.763 -0.0141 -0.0727  0.1695
17844W        W34028   7.686  15.594  12.219 -0.0944 -0.2980  0.1582
17845W        W34029   2.528  11.377  12.367  0.0807  0.2209  0.1544
17846W        W34030  16.800   9.124  11.816 -0.3152 -0.2353  0.2548
17847W        W34031   5.048  17.449   2.297  0.3294 -0.2799  0.2240
17848W        W34032   8.258  17.109  15.482 -0.0641  0.0225 -0.4493
17849W        W34033  12.174   4.363   3.520 -0.1187 -0.2267 -0.1042
17850W        W34034  15.344  15.049  13.998 -0.3845  0.3122 -0.0433
17851W        W34035  18.116   3.602   3.861  0.2738  0.1534  0.0638
17852W        W34036  16.406   1.240   0.602 -0.0021  0.0866 -0.1304
17853W        W34037   7.672   9.514   2.322 -0.3075 -0.2325 -0.3010
17854W        W34038   0.332  11.860  14.706  0.1039  0.1803  0.0259
17855W        W34039  13.517   2.379  15.690 -0.2063  0.0335  0.4394
17856W        W34040  12.750  17.311   6.105 -0.5074  0.1092 -0.0611
17857W        W34041   7.526  14.306   6.456 -0.0843  0.1364  0.1442
17858W        W34042  13.564   3.322  10.323 -0.3091 -0.0230 -0.0110
17859W        W34043  13.002  18.108  13.325  0.0386  0.1137  0.1222
17860W        W34044   0.151   2.465   4.539 -0.2978  0.1290  0.0757
17861W        W34045  18.305   7.730   3.862 -0.0646  0.0770  0.2768
17862W        W34046   5.354  13.478  14.930 -0.2226 -0.0701 -0.0551
17863W        W34047   2.939  17.843   3.645  0.0511  0.2421 -0.0586
17864W        W34048  11.346   0.300  15.547 -0.2002  0.4651 -0.0257
17865W        W34049  10.464   3.763   0.310 -0.0197  0.3956  0.2190
17866W        W34050  10.723  14.287   4.438 -0.1360  0.0052 -0.1595
17867W        W34051  10.277  18.144  11.692  0.1670  0.0251  0.1936
17868W        W34052   5.529   7.364   4.071  0.0549 -0.2784  0.0344
17869W        W34053  10.565   5.376   2.787  0.0852  0.0021  0.1067
17870W        W34054  14.541   0.641   0.978 -0.2856 -0.0503 -0.0913
17871W        W34055  10.786   0.951  14.536 -0.1997 -0.2644  0.2124
17872W        W34056  10.175   1.833   4.480  0.2026 -0.1183  0.1203
17873W        W34057  15.382   3.375   4.711  0.1013 -0.1371  0.0955
17874W        W34058   3.081  16.967  14.081  0.1239 -0.0585 -0.0535
17875W        W34059   0.025   6.459   1.824 -0.0964 -0.2806 -0.3657
17876W        W34060   6.883   1.529   0.009  0.2075  0.0033 -0.2688
17877W        W34061  10.723   5.930  11.624  0.2399  0.0481  0.2833
17878W        W34062   3.589   5.778   4.343  0.2380  0.1999 -0.1236
17879W        W34063   1.938  11.418   4.753 -0.1520  0.0211 -0.0880
17880W        W34064   5.547   7.982   5.222 -0.0927 -0.0692  0.0243
17881W        W34065   5.332   3.586   0.385 -0.1369  0.2717 -0.2691
17882W        W34066  16.015  15.118  15.704 -0.1283  0.1478 -0.1774
17883W        W34067   7.783   0.419   2.203 -0.1492  0.2626  0.0277
17884W        W34068  17.608   4.952   3.398  0.1454 -0.0694 -0.0064
17885W        W34069  11.743  11.222  12.365  0.0021  0.0618 -0.0319
17886W        W34070   9.277   2.322  15.657  0.1789  0.0280 -0.3670
17887W        W34071   3.568  17.649  10.883 -0.0169  0.1718 -0.0939
17888W        W34072   8.267   1.059   1.840  0.4250  0.2400 -0.0811
17889W        W34073   3.871  12.593   3.171  0.0221 -0.0772  0.0771
17890W        W34074   3.651   5.511   2.030  0.0434  0.0169 -0.1924
17891W        W34075   5.317   2.815  14.528 -0.0416 -0.0824 -0.0038
17892W        W34076   0.050   8.811  11.977 -0.4045  0.1359  0.0000
17893W        W34077  15.041  14.973  15.541 -0.0797  0.0439  0.0916
17894W        W34078   0.212   9.030   0.433  0.0589 -0.0352  0.1765
17895W        W34079  17.005  12.482   1.850 -0.0082  0.0223 -0.4088
17896W        W34080   3.073   6.928  14.813  0.0826 -0.0921  0.1923
17897W        W34081   9.552   9.148   1.935 -0.3091 -0.0569  0.2741
17898W        W34082  12.635   1.916   2.576 -0.1133 -0.0281 -0.1877
17899W        W34083  10.993  15.714   0.966  0.0163  0.2926 -0.3151
17900W        W34084   2.531   1.059   3.178 -0.2725 -0.2223 -0.2784
17901W        W34085  10.812  10.234  12.589  0.4574 -0.0812 -0.0940
17902W        W34086   7.690  10.134  13.105 -0.1067 -0.1508  0.1623
17903W        W34087  14.835  16.803  14.271  0.1210 -0.0072 -0.1789
17904W        W34088   4.605   5.335   5.419  0.0007  0.0702  0.4288
17905W        W34089  10.100   7.164  11.748  0.1391  0.2398  0.1049
17906W        W34090   2.447   7.099   0.223  0.3478  0.3202 -0.0284
17907W        W34091  18.104  12.015  12.592 -0.2262 -0.0569  0.0952
17908W        W34092  10.740  11.510   1.860  0.1251  0.1200  0.0199
17909W        W34093  17.528  13.884  11.813 -0.3247  0.1166  0.0652
17910W        W34094   7.168   2.592   3.132 -0.2175 -0.1698 -0.1263
17911W        W34095   0.204  17.179   2.954  0.1366 -0.4942 -0.0617
17912W        W34096  11.579   8.500   4.241  0.1774  0.1247  0.0024
17913W        W34097   1.416  18.460  12.648 -0.0008  0.1216 -0.3249
17914W        W34098   4.800  11.523  12.885  0.2351 -0.0715 -0.0816
17915W        W34099   8.815  15.476  12.428 -0.0384 -0.1235 -0.0684
17916W        W34100   3.515   1.445   1.158 -0.0406  0.1588 -0.0664
17917W        W34101  15.185   7.168   4.904 -0.2039  0.0897  0.1745
17918W        W34102   0.105  15.474  11.293 -0.0797 -0.0152 -0.4312
17919W        W34103   6.753  17.919   0.765  0.3171  0.1115  0.1826
17920W        W34104   0.803  12.956   1.748 -0.1027  0.0368  0.0163
17921W        W34105  12.851  16.100   3.229 -0.2116 -0.2732  0.0638
17922W        W34106   0.912  13.627  14.934  0.2112 -0.2173 -0.0882
17923W        W34107   9.177   8.377  13.795  0.2540 -0.0555 -0.2816
17924W        W34108  12.387   0.610  10.989 -0.1712  0.0473 -0.2335
17925W        W34109  11.728   4.174   0.786  0.1466 -0.2830  0.0696
17926W        W34110  18.006  18.168   5.715  0.1646  0.2701 -0.0225
17927W        W34111   1.494   9.532   2.160 -0.4518 -0.0198  0.0286
17928W        W34112  11.670  12.737   1.164 -0.1173  0.1873  0.0842
17929W        W34113  10.783   9.918   4.698 -0.1913  0.1201  0.1775
17930W        W34114  16.809   9.765  14.916 -0.0242 -0.2183  0.2237
17931W        W34115  12.835  12.938  13.310  0.3368  0.0804 -0.0752
17932W        W34116  17.577   7.376  15.001 -0.1578  0.0719  0.0216
17933W        W34117   7.663   2.026   5.766  0.3823 -0.0975  0.1539
17934W        W34118   2.662  14.741  14.923 -0.1595  0.0857 -0.0580
17935W        W34119  14.287   8.201   1.761 -0.0658 -0.4876 -0.3065
17936W        W34120   7.331   2.729  14.169 -0.1104 -0.0176  0.2355
17937W        W34121  10.651   1.050  15.309  0.0449 -0.1208 -0.3603
17938W        W34122  18.090   4.521   0.164  0.1891 -0.0363 -0.2763
17939W        W34123   3.871  11.747  15.670 -0.0780  0.0732 -0.0534
17940W        W34124   5.013  15.897   2.357 -0.0458 -0.0138 -0.1565
17941W        W34125  17.976   9.387  13.640 -0.2619 -0.2988 -0.0073
17942W        W34126  17.358   2.451  11.963  0.0251  0.6193  0.0183
17943W        W34127   8.454   0.610   1.141 -0.1443 -0.0694 -0.1365
17944W        W34128  18.062  13.124   3.903  0.0627 -0.0357  0.0870
17945W        W34129  18.074  12.079   1.929  0.2284  0.1704  0.0510
17946W        W34130  12.973   7.738  11.925  0.0765  0.0996 -0.1056
17947W        W34131  11.036   7.348   4.768 -0.1748  0.2487  0.0213
17948W        W34132  17.236   9.358   2.876  0.0000 -0.4416  0.0423
17949W        W34133   6.337   4.838   5.727  0.2613  0.0387  0.1424
17950W        W34134   0.168   5.079  12.635 -0.0347 -0.3247 -0.1262
17951W        W34135  18.059   6.663  11.968 -0.2419  0.3569  0.3845
17952W        W34136  15.762   6.237   3.271 -0.1648 -0.0994  0.2457
17953W        W34137   0.375  13.430  15.910 -0.1646  0.2000  0.0657
17954W        W34138  16.849  14.784  13.400  0.2187 -0.1482  0.1789
17955W        W34139  10.920  17.596   3.367 -0.1447 -0.0483 -0.0480
17956W        W34140  13.224  13.720  15.811 -0.1616 -0.3472 -0.3640
17957W        W34141   9.324  10.348   6.471 -0.3401 -0.1580  0.0375
17958W        W34142   8.482  16.335  14.996  0.0315 -0.3917 -0.0994
17959W        W34143  10.534   4.087  14.840 -0.2670 -0.1111  0.2584
17960W        W34144  17.476   1.687  14.841  0.0665 -0.0769  0.2747
17961W        W34145  13.558  11.049   0.387 -0.0100 -0.2839  0.0533
17962W        W34146   6.999  16.385   2.634 -0.2470  0.0715  0.3544
17963W        W34147   5.683  14.663  14.623 -0.0101 -0.2611 -0.0162
17964W        W34148  15.751   4.541  15.751 -0.2810 -0.3141  0.5151
17965W        W34149  15.330  16.783   5.010  0.0982 -0.3618 -0.2988
17966W        W34150   5.708  17.939  11.015  0.0079  0.1566  0.0381
17967W        W34151   9.148   8.765  11.786 -0.2133  0.0855  0.1246
17968W        W34152   5.827   3.552   2.111 -0.1247  0.0515  0.3172
17969W        W34153  13.313  12.068   4.927 -0.4715 -0.1030  0.1222
17970W        W34154  10.168  11.157  14.298 -0.0454 -0.0672 -0.0323
17971W        W34155  11.466  12.537   3.623  0.1470  0.3427  0.3271
17972W        W34156   9.475  14.605  12.089  0.1970  0.1813  0.2622
17973W        W34157   5.024   5.373   4.454  0.0982 -0.1045  0.3873
17974W        W34158  11.674  18.485   4.443  0.1001 -0.3484  0.2946
17975W        W34159   8.535   1.710  13.773  0.1873 -0.1826  0.0484
17976W        W34160   6.826  15.492  13.357 -0.1113 -0.0271  0.0140
17977W        W34161   9.551   4.983   4.947 -0.1165  0.1232  0.2483
17978W        W34162   3.031   0.195   2.724 -0.2342 -0.0641  0.0810
17979W        W34163  13.834   3.313  12.739 -0.1892  0.0456 -0.0097
17980W        W34164  14.306   7.749  14.278  0.1500 -0.0058 -0.3453
17981W        W34165  12.867   9.367   4.668  0.0957 -0.0995  0.0499
17982W        W34166   7.221   6.208  12.222 -0.1325 -0.3097 -0.0510
17983W        W34167   0.675  11.999  15.082  0.2578 -0.1683  0.3766
17984W        W34168   9.842   5.757  13.339  0.3481  0.0431  0.2353
17985W        W34169   4.046   7.561   0.173 -0.4105  0.2169  0.0077
17986W        W34170   2.069  16.909   4.782  0.3160 -0.3041 -0.0734
17987W        W34171  13.185  12.837   0.901 -0.0839  0.0632  0.2185
17988W        W34172   2.550  17.315  16.125 -0.0763 -0.1731  0.2201
17989W        W34173  14.101   7.618  15.664 -0.0214 -0.0297 -0.2795
17990W        W34174  15.881   7.914   1.072  0.0498  0.0927 -0.0553
17991W        W34175   5.144   0.287  13.514 -0.1022 -0.0306 -0.1560
17992W        W34176   0.788  12.093   5.328 -0.3368 -0.1364 -0.1813
17993W        W34177  17.271  17.869   4.703 -0.1087 -0.3174 -0.0625
17994W        W34178  15.412   7.926   2.493 -0.1242  0.2825  0.1526
17995W        W34179  11.664  14.080   3.044 -0.2374  0.1750 -0.0375
17996W        W34180   8.631   2.590   5.475  0.0999  0.1091 -0.0630
17997W        W34181   7.316   1.517   0.900 -0.3816  0.0903  0.1254
17998W        W34182   8.863   6.549   2.438  0.1775 -0.0152  0.1844
17999W        W34183   1.765   3.592  12.951  0.2016  0.2759 -0.0387
18000W        W34184  10.729  13.664   4.429  0.1070  0.1409  0.0153
18001W        W34185   5.000   3.547  16.149  0.2556 -0.1179  0.0193
18002W        W34186   1.319   7.878  11.686  0.0010 -0.5805 -0.1554
18003W        W34187   1.648  16.884  11.512 -0.0179  0.2756  0.2709
18004W        W34188  16.806   7.044   2.180  0.0083 -0.0667 -0.0221
18005W        W34189  11.318   4.138  13.214  0.1994  0.1909  0.0885
18006W        W34190  14.769  17.171   0.314 -0.0558  0.3514 -0.0368
18007W        W34191   9.828   8.660  12.582  0.0605  0.0547  0.1194
18008W        W34192  10.049   0.345  13.294 -0.4130 -0.1908 -0.0198
18009W        W34193   1.057   1.279   2.433 -0.1105  0.0563  0.3040
18010W        W34194  12.333   0.375  12.897  0.0079  0.2605 -0.0060
18011W        W34195   7.160  10.888   0.997  0.1171 -0.2910  0.0894
18012W        W34196  11.584   9.646  12.511  0.1709 -0.0347 -0.3779
18013W        W34197   1.363  17.789   3.345  0.0974  0.0101 -0.0225
18014W        W34198  15.359   1.834   0.219 -0.1485 -0.1561 -0.0484
18015W        W34199   1.922   2.745  15.112 -0.0252 -0.1810 -0.0673
18016W        W34200   1.526   6.126   0.724  0.1162  0.0958  0.1070
18017W        W34201   2.644  17.654  14.627 -0.1483 -0.2662 -0.3138
18018W        W34202  15.202   4.590   2.889 -0.2016  0.0876  0.1583
18019W        W34203   1.432   4.056   1.621 -0.2329 -0.3070 -0.1144
18020W        W34204  12.721   6.403  15.988 -0.0335  0.1916 -0.1570
18021W        W34205  10.837   7.769  15.936 -0.1903  0.4562 -0.0087
18022W        W34206  12.612   8.663   3.304  0.2236  0.4181 -0.1264
18023W        W34207  14.215  12.673   2.427 -0.1474  0.3759  0.0264
18024W        W34208  11.745  13.554  12.866 -0.0134 -0.1323 -0.0810
18025W        W34209  16.957  15.751  13.372 -0.1913  0.0767 -0.2346
18026W        W34210  10.223  11.028   1.122 -0.3071 -0.0015 -0.1581
18027W        W34211   9.795   8.124  15.256 -0.2007 -0.1609  0.1165
18028W        W34212  14.314   8.212  14.574  0.1421  0.3235 -0.0259
18029W        W34213  10.484  15.385   2.902 -0.1938  0.0443 -0.2212
18030W        W34214  14.422   2.121   4.073  0.0921  0.1658  0.1970
18031W        W34215   2.343   5.334   0.876 -0.1351  0.1275 -0.2509
18032W        W34216   8.319  16.266   6.055  0.0054  0.2513 -0.0099
18033W        W34217   9.004   4.998   5.703 -0.0674  0.3286  0.1720
18034W        W34218   0.473   1.082   4.544  0.1361 -0.0993  0.1583
18035W        W34219   2.551   5.794  11.093  0.0072  0.1296 -0.3929
18036W        W34220  10.352   5.039   0.037 -0.0545  0.1057 -0.0078
18037W        W34221   1.818   2.837  10.808  0.1467 -0.0820  0.0242
18038W        W34222   3.524   7.785   4.525  0.1131  0.5495  0.0379
18039W        W34223   1.009   4.694  15.985 -0.0309  0.5041 -0.1724
18040W        W34224   1.273   5.420  13.851  0.1236 -0.1185 -0.2337
18041W        W34225  12.364  18.175  13.140 -0.1980 -0.0018 -0.1332
18042W        W34226   0.655   4.750   0.406 -0.2062  0.2059 -0.1170
18043W        W34227   9.168  17.444   2.857 -0.1279  0.0357  0.3696
18044W        W34228   2.891  17.431  13.071  0.0027  0.0851 -0.0319
18045W        W34229  13.941   9.804   5.152  0.0491  0.0145 -0.2475
18046W        W34230   7.779   5.077  11.979  0.2560  0.4141  0.0143
18047W        W34231  11.300   1.060  13.294  0.1114 -0.0295  0.0789
18048W        W34232  12.400  14.861  15.696  0.4706  0.1347 -0.2451
18049W        W34233   3.742  14.163  13.184  0.4547 -0.0154  0.0119
18050W        W34234   5.799   3.148  15.785  0.1561 -0.2295  0.1673
18051W        W34235  17.971   1.712   0.806  0.3936 -0.1433  0.0985
18052W        W34236   0.321   7.141   4.340  0.4926 -0.1585  0.1755
18053W        W34237  15.289   5.940   2.046 -0.3468 -0.0113 -0.0235
18054W        W34238  15.453   2.540   0.896  0.1324 -0.3224  0.2281
18055W        W34239   6.180  13.386  13.396 -0.0144  0.1391  0.0004
18056W        W34240  10.900   5.349   3.870  0.2930  0.1181  0.0852
18057W        W34241  13.805  17.117   1.490  0.0816 -0.1461 -0.0910
18058W        W34242  13.209  14.140  12.622 -0.0974 -0.0765 -0.1243
18059W        W34243  10.242  18.467  13.566  0.0306 -0.2518  0.2288
18060W        W34244  12.039  16.860   2.703 -0.0538  0.0950 -0.0406
18061W        W34245  17.747   6.958   4.700 -0.2929  0.3165 -0.0505
18062W        W34246   2.194  17.315  10.778 -0.3606 -0.1567 -0.2423
18063W        W34247   2.663  10.986  12.103 -0.0177  0.1149  0.0938
18064W        W34248   7.583  16.957  13.670  0.1818 -0.0013  0.0088
18065W        W34249   9.469  17.799   0.749 -0.2269  0.0340 -0.0530
18066W        W34250   8.523  17.333  15.891 -0.3578 -0.0549  0.1359
18067W        W34251   5.168   2.170   5.764  0.1546 -0.0572 -0.3855
18068W        W34252   3.249   8.698   3.207  0.0376  0.2410 -0.1126
18069W        W34253  12.820  14.283   1.697  0.0113 -0.0192 -0.0754
18070W        W34254  14.869  10.911  15.539 -0.0304 -0.0300 -0.0441
18071W        W34255   9.243  14.135   1.935  0.2289 -0.2630  0.4439
18072W        W34256  14.871   0.935  10.933  0.2777  0.0663 -0.0066
18073W        W34257  16.382  14.549  13.626  0.0907  0.0181 -0.0657
18074W        W34258   2.678  17.314  12.136 -0.2407  0.2114  0.1147
18075W        W34259  15.657   8.960  14.435 -0.1380 -0.1901  0.1693
18076W        W34260  13.699   6.026  14.494 -0.3256 -0.1186  0.0114
18077W        W34261  14.882   0.951  15.126  0.1237 -0.0081 -0.0028
18078W        W34262   1.184  11.130   3.028 -0.0728  0.2128  0.1819
18079W        W34263   2.983   6.419   4.023 -0.1806 -0.0828  0.1112
18080W        W34264   2.578  13.034  12.787  0.0943 -0.0016  0.1458
18081W        W34265  15.374   7.076  15.643  0.1891 -0.1610 -0.2957
18082W        W34266   1.670   4.016   3.967  0.1216  0.2117  0.1986
18083W        W34267   7.890   0.190   1.500  0.0855  0.1509  0.0112
18084W        W34268   8.416  11.172  13.957 -0.1345  0.0365 -0.0396
18085W        W34269  14.425   6.725  11.831  0.0949 -0.0122  0.2691
18086W        W34270   7.749  17.816   4.513  0.0525 -0.1693  0.0148
18087W        W34271   9.416   3.034   0.792  0.1756 -0.0837  0.0505
18088W        W34272   9.334   5.648  15.165 -0.0111  0.2373  0.0209
18089W        W34273   5.346  17.633  13.755 -0.1341  0.3141  0.1365
18090W        W34274   8.187   5.283  15.229  0.2771 -0.1147 -0.2112
18091W        W34275  13.699  17.587   5.826 -0.0379  0.0610 -0.2775
18092W        W34276  17.395   3.636  12.497 -0.0865 -0.3769  0.2860
18093W        W34277   7.257  13.926  15.876  0.2195  0.2980  0.0139
18094W        W34278   6.568   1.855  11.749  0.0763  0.2623  0.3409
18095W        W34279  12.707  13.959   0.253  0.0440  0.3657 -0.0075
18096W        W34280   8.566  11.693   1.728 -0.0468  0.1219  0.2304
18097W        W34281   8.879   5.294  15.961  0.2312  0.1568  0.0979
18098W        W34282  16.722  17.491  13.598  0.0388  0.5373 -0.2696
18099W        W34283   2.383  10.268   2.753  0.2966 -0.0593 -0.2376
18100W        W34284   0.184  18.456  15.290  0.0913 -0.0840  0.0980
18101W        W34285  13.446   3.119   1.212 -0.1134  0.1304  0.1127
18102W        W34286  13.613  14.903   6.121  0.1273  0.0098 -0.0332
18103W        W34287   2.959   3.011  12.677  0.1826  0.0888 -0.1034
18104W        W34288   5.543  14.014  12.814  0.0999 -0.3385 -0.0149
18105W        W34289  10.521  15.702  13.771  0.1107  0.1133 -0.0174
18106W        W34290  12.151  12.897  11.600  0.4269  0.2405 -0.1230
18107W        W34291  11.565   2.250  14.302 -0.0568 -0.2089 -0.0943
18108W        W34292   0.997   8.551   3.409 -0.2105 -0.3823  0.1438
18109W        W34293  14.893  16.853  13.503 -0.3606  0.0629  0.1159
18110W        W34294   3.168  16.450   2.542 -0.1705  0.0568  0.1159
18111W        W34295   4.176  12.888   4.974 -0.1636  0.0344  0.0396
18112W        W34296   0.269  14.884  11.557  0.2339 -0.0416 -0.2432
18113W        W34297   9.041   9.250  11.738  0.2306 -0.0987 -0.0582
18114W        W34298  17.195  16.949  15.961  0.3618  0.1490 -0.0360
18115W        W34299   2.652  11.512   2.476  0.2585 -0.1378  0.0281
18116W        W34300   9.109   5.746   3.682 -0.5538  0.2305 -0.3217
18117W        W34301   1.972   9.508   1.448  0.5307 -0.0819  0.3395
18118W        W34302   7.239  17.983   2.552 -0.0690 -0.1415  0.2250
18119W        W34303   8.341  13.084  12.516  0.2996 -0.2844 -0.1183
18120W        W34304  10.771   2.585   4.230  0.1167  0.0067  0.1655
18121W        W34305   4.718  11.734  13.598  0.0279 -0.0190 -0.1648
18122W        W34306   5.640  12.278  11.531 -0.0223  0.2478  0.3525
18123W        W34307  14.064   6.064   4.718  0.2916 -0.0388 -0.4541
18124W        W34308  13.096   6.530  11.861 -0.0334 -0.0047  0.1243
18125W        W34309  10.668  13.483  12.554  0.0176  0.2310 -0.2004
18126W        W34310   7.461   8.688  13.494  0.0076  0.1161 -0.1099
18127W        W34311  13.556  17.437  13.169  0.0946 -0.1856  0.1797
18128W        W34312   6.808  16.647   0.172 -0.1614  0.0289 -0.0783
18129W        W34313  12.730  13.665   1.122 -0.1819 -0.0378 -0.1909
18130W        W34314  17.808   4.525  14.280  0.0277  0.0446 -0.1405
18131W        W34315   7.648  18.269  16.143 -0.2450  0.1746 -0.1031
18132W        W34316  13.462   8.049  11.720 -0.2650  0.1720  0.0913
18133W        W34317   3.171   6.977  12.097  0.0488 -0.0582  0.3692
18134W        W34318   7.137   8.624  12.089 -0.1183  0.3047  0.2571
18135W        W34319   5.506  13.631   1.507 -0.0433 -0.0302  0.0703
18136W        W34320  18.090  15.572   2.764  0.2615 -0.1230  0.0238
18137W        W34321   3.685  13.686   0.224 -0.1523  0.2341 -0.0393
18138W        W34322  14.553  17.946   1.572 -0.0401  0.0512  0.3392
18139W        W34323  10.297   7.052  10.336  0.2853 -0.0041 -0.4799
18140W        W34324  15.349  10.381  14.750 -0.1613  0.0240  0.2864
18141W        W34325   1.796   0.203   4.443  0.0787  0.0458 -0.1071
18142W        W34326   9.744  11.943   1.510 -0.1031  0.2760  0.0580
18143W        W34327  17.239   8.903   1.348  0.1642 -0.0657  0.2539
18144W        W34328  10.733   9.086  12.417 -0.1231  0.1250 -0.2405
18145W        W34329   5.816   2.497   4.091 -0.1080 -0.0343 -0.0955
18146W        W34330  10.771  16.000   3.651 -0.0941 -0.3502  0.0878
18147W        W34331   9.923  14.724  11.880  0.0161 -0.0865  0.0257
18148W        W34332  13.706   0.780   5.602 -0.2827  0.2628  0.0047
18149W        W34333  14.023   0.318   2.175  0.0994 -0.2379  0.2778
18150W        W34334  14.175   0.000  14.020 -0.0764 -0.0056 -0.1898
18151W        W34335  11.864  12.123   0.842 -0.0224  0.1436 -0.2004
18152W        W34336  16.180   0.243  14.530  0.0602  0.0350  0.6901
18153W        W34337  16.554   5.538   5.214 -0.0278  0.0362  0.0922
18154W        W34338   7.443   4.406   0.436  0.0346 -0.1081 -0.1270
18155W        W34339   1.762   2.540   2.679 -0.1229  0.0204 -0.1177
18156W        W34340  11.260   8.001  14.234 -0.0902 -0.0700  0.4228
18157W        W34341  13.803   3.199  12.144  0.1980  0.0861  0.0083
18158W        W34342   7.003   9.839   4.193 -0.0670  0.0537 -0.0853
18159W        W34343   2.941  12.478   1.406 -0.0627  0.0453 -0.2891
18160W        W34344  12.197   3.940   0.747 -0.1110 -0.0429 -0.0429
18161W        W34345  10.958   2.969  12.727 -0.0947 -0.1482 -0.1036
18162W        W34346  12.516   9.448  12.836  0.1881  0.0344  0.2199
18163W        W34347   0.451   6.329   4.312  0.2571 -0.2182 -0.0959
18164W        W34348  10.566   0.716   4.015 -0.0689  0.0543  0.2273
18165W        W34349  17.705   1.849   3.495 -0.0251 -0.2956 -0.1667
18166W        W34350  13.299  14.238   3.339 -0.0509  0.1658  0.0596
18167W        W34351  14.363   3.979   5.012  0.0349  0.4072  0.1521
18168W        W34352  14.314   9.849   1.556 -0.3395  0.0078 -0.1758
18169W        W34353   2.599  16.451   4.777  0.1195 -0.0218  0.0417
18170W        W34354  16.148  11.233  13.692 -0.0410  0.3654 -0.0168
18171W        W34355  15.695   0.429  11.057 -0.0349 -0.4113  0.2360
18172W        W34356   4.798   4.452  13.041 -0.1941  0.2022 -0.2273
18173W        W34357   4.011   6.858  14.486  0.2540 -0.0510 -0.0503
18174W        W34358   2.017  12.241   4.169  0.0181  0.0502 -0.1131
18175W        W34359   8.495  13.456  12.221  0.1742 -0.2103  0.0232
18176W        W34360  15.419  13.427  11.052  0.2559 -0.3856  0.2465
18177W        W34361   4.021   8.299   3.008  0.0384  0.2629  0.0298
18178W        W34362   3.683   8.539  11.553  0.0328 -0.1847 -0.2911
18179W        W34363  11.009   0.620   2.893 -0.2157 -0.0872  0.0169
18180W        W34364  11.437  15.493   2.005 -0.1477  0.2557  0.0929
18181W        W34365  12.672   4.903  14.017  0.0527 -0.1759  0.1398
18182W        W34366   8.667   8.964  11.992  0.1576 -0.1560  0.3314
18183W        W34367   4.949   4.910   1.050  0.0744 -0.2319 -0.1485
18184W        W34368  15.725   4.754   0.142  0.1820 -0.1111  0.1820
18185W        W34369  11.280  10.252   4.996  0.0571  0.1338  0.3000
18186W        W34370   6.957   7.959  13.063 -0.4363  0.1537  0.2456
18187W        W34371   9.573   9.421   1.398 -0.0664  0.0816  0.1012
18188W        W34372  15.640  17.150   2.937  0.3015  0.0344  0.0813
18189W        W34373   4.011   2.638   6.003  0.0848 -0.0280 -0.1014
18190W        W34374   5.722   9.834   0.632  0.1493 -0.0102 -0.3095
18191W        W34375   5.391  14.756  10.386  0.3257 -0.0043  0.0016
18192W        W34376  14.618  14.570   2.359 -0.3876  0.2679 -0.0432
18193W        W34377   5.313   7.857  14.966 -0.2961 -0.2820  0.1926
18194W        W34378  17.439   6.297   0.949  0.0525  0.1609  0.2527
18195W        W34379  11.468   4.713  14.864 -0.1649  0.0466 -0.1373
18196W        W34380  17.382   9.074   5.224 -0.0817  0.2705 -0.1595
18197W        W34381   8.088  15.818   3.341 -0.1514 -0.2110 -0.1446
18198W        W34382  16.993   1.040   4.687 -0.3136 -0.2339 -0.5122
18199W        W34383   1.717   6.961   3.850  0.0545 -0.3823 -0.3587
18200W        W34384   0.447   6.358   3.773 -0.0422  0.0485 -0.0101
18201W        W34385   0.188   2.187  15.680 -0.0406  0.1234 -0.3614
18202W        W34386  11.033   5.664  11.155  0.1524  0.2275  0.1791
18203W        W34387   7.752  15.087   5.401  0.1710 -0.0166 -0.1235
18204W        W34388   2.543   5.914  12.376  0.2148  0.0838 -0.1980
18205W        W34389  12.356  14.954   4.787 -0.1014  0.3978  0.0074
18206W        W34390   7.667  16.860   5.107 -0.3224 -0.1683 -0.2405
18207W        W34391   1.589  11.083   4.478  0.0390  0.0726  0.1310
18208W        W34392   2.832  14.135   4.420  0.1727 -0.0108  0.2854
18209W        W34393  16.489  10.923  16.127 -0.1236 -0.1834 -0.1957
18210W        W34394   7.560   6.439  13.180 -0.2662  0.1464  0.1460
18211W        W34395  17.545  16.231  14.379 -0.1236 -0.2325 -0.2012
18212W        W34396  16.750   1.783   3.182  0.0389 -0.2223 -0.1350
18213W        W34397   6.832  11.569  11.746 -0.0115  0.2238  0.2154
18214W        W34398  12.816   4.952   4.459 -0.0414 -0.1850  0.0223
18215W        W34399  11.938  15.489   2.020  0.2669  0.1076  0.1835
18216W        W34400  16.146   7.599  13.340  0.4356  0.3501 -0.0794
18217W        W34401   5.036   1.589   0.163  0.1128  0.0090  0.0331
18218W        W34402  13.203   0.798  16.081 -0.1298 -0.0546  0.0619
18219W        W34403   6.543   1.616   4.550 -0.0951  0.1278  0.0461
18220W        W34404   7.976   5.297  11.591 -0.0787 -0.2457 -0.1181
18221W        W34405   8.950  16.719  14.284 -0.1243  0.1729  0.3646
18222W        W34406   0.478  13.874   1.971  0.0778 -0.0458 -0.2302
18223W        W34407   8.536  17.407  12.746  0.2982  0.3108 -0.1368
18224W        W34408  18.259  15.766   4.045  0.0587 -0.1854 -0.0705
18225W        W34409  12.183   6.055  11.877  0.2937 -0.0705  0.1176
18226W        W34410  16.116   2.904  13.801  0.1039 -0.0343  0.0865
18227W        W34411  15.616  13.979   5.556  0.2592  0.1258 -0.2202
18228W        W34412   5.872  15.290   4.229  0.0922 -0.0136 -0.1144
18229W        W34413  17.351   8.215   4.031  0.0283  0.1338 -0.2558
18230W        W34414   2.105   6.949   4.246  0.0142  0.3358 -0.0559
18231W        W34415  10.024   0.364  11.005 -0.0449  0.1052  0.0950
18232W        W34416  11.069   6.834   0.214  0.1714 -0.1195 -0.1135
18233W        W34417  16.873   8.138  13.247  0.1359 -0.0742 -0.1908
18234W        W34418  11.024   7.815  10.312  0.2400 -0.1663  0.1027
18235W        W34419  14.914  11.659   4.361  0.0435 -0.0534 -0.2150
18236W        W34420   2.918   8.091  14.136 -0.0111 -0.0220 -0.0318
18237W        W34421  18.353   1.554  14.344 -0.1153 -0.0394  0.2084
18238W        W34422  15.260   9.863   5.310 -0.4324  0.0014  0.1600
18239W        W34423  11.776  13.698  11.595 -0.1857 -0.1867 -0.1028
18240W        W34424   6.810   7.289   0.135  0.1432  0.0617  0.0018
18241W        W34425   2.459  11.510   4.913  0.1068  0.0662 -0.0540
18242W        W34426   7.017   5.420   4.654 -0.0581  0.0945 -0.2116
18243W        W34427  15.959  11.645   5.178  0.0193  0.3044 -0.1541
18244W        W34428  16.555   3.745   4.782  0.0045  0.2094 -0.2608
18245W        W34429   9.410   1.255  15.792 -0.1724 -0.1128  0.1147
18246W        W34430   4.837  15.832   5.490 -0.0414 -0.2762 -0.1639
18247W        W34431  12.838   5.231   0.242 -0.0934  0.2401 -0.0072
18248W        W34432  10.815   0.427   3.716  0.3446 -0.1383 -0.0077
18249W        W34433   1.819  18.348  12.274 -0.2005  0.0120  0.1203
18250W        W34434   2.144   2.848   3.755  0.1247  0.1520  0.0761
18251W        W34435   9.234  10.485  11.766  0.2807  0.0279 -0.1617
18252W        W34436   0.452   3.897   2.708  0.2190 -0.1773  0.0205
18253W        W34437   4.937   5.448   1.700  0.0481  0.3999  0.1386
18254W        W34438   1.914   7.917  13.009 -0.1314  0.4164 -0.4095
18255W        W34439  13.482  11.014   4.810  0.0840  0.2753 -0.2850
18256W        W34440  12.340  16.881   0.826  0.0880 -0.0099 -0.1523
18257W        W34441  18.208   7.793  14.177 -0.0763 -0.0098  0.1940
18258W        W34442  15.274  17.548   2.024 -0.3217  0.3238  0.0898
18259W        W34443   2.386  16.304   3.055 -0.1176  0.1296 -0.1966
18260W        W34444   2.105  11.756   3.942  0.0720 -0.1765 -0.0125
18261W        W34445  14.048  17.245  14.633 -0.2060 -0.1520  0.1355
18262W        W34446   1.226  11.527   2.714  0.0377  0.2174 -0.2146
18263W        W34447  16.674   5.433  13.767  0.1283  0.0995  0.1771
18264W        W34448   0.643  16.584  14.247 -0.1431  0.0181 -0.1701
18265W        W34449   3.073  17.979   0.029 -0.0875  0.0865  0.1104
18266W        W34450   0.720  10.389   3.115 -0.0733  0.0186  0.1081
18267W        W34451  11.429   5.793   6.347 -0.0510  0.0894  0.2669
18268W        W34452  13.597   4.425   1.826 -0.0119  0.1181 -0.1433
18269W        W34453   5.883  14.549   2.503  0.0240 -0.4666 -0.1280
18270W        W34454  17.609   0.512  11.896 -0.2078 -0.0478 -0.0278
18271W        W34455   9.338  14.263   5.452 -0.0157 -0.1489 -0.0608
18272W        W34456   9.543   8.515   5.766 -0.4131 -0.0663 -0.1298
18273W        W34457   2.214  13.100   0.224  0.4883 -0.3397 -0.3426
18274W        W34458  12.792   5.403   0.735  0.1821 -0.0754  0.2285
18275W        W34459  15.936   1.871   3.431  0.2696 -0.2928  0.3594
18276W        W34460   8.207  15.102  11.715  0.0500  0.2904 -0.2242
18277W        W34461   6.779  16.802  12.213  0.1698 -0.0049 -0.1301
18278W        W34462  13.899   4.511   3.220 -0.0356 -0.0328 -0.1424
18279W        W34463   9.111   5.883  12.813  0.0385 -0.0764  0.1637
18280W        W34464  12.325   4.548  12.465 -0.0373  0.2166  0.1107
18281W        W34465   6.975   0.981   0.987  0.1557 -0.0239  0.0293
18282W        W34466   7.007   5.737  11.223  0.3693  0.1120 -0.1379
18283W        W34467  11.970  14.223   2.707  0.1811  0.2371  0.2188
18284W        W34468  12.547   7.840   1.396  0.1829  0.1625  0.0090
18285W        W34469   5.365   7.813   5.619 -0.0154 -0.1056  0.1065
18286W        W34470  15.089   9.159   1.704  0.0767 -0.2633  0.0723
18287W        W34471   5.396   1.208   2.391  0.2064 -0.0983 -0.3116
18288W        W34472   9.706   8.142   0.851  0.0167  0.1763 -0.1473
18289W        W34473   6.805   2.794   1.199 -0.1220  0.0348 -0.0581
18290W        W34474  16.035  12.878   2.527  0.2061 -0.1214  0.1285
18291W        W34475   7.434  15.624   1.098  0.0631  0.2597 -0.1246
18292W        W34476  12.615  13.920  13.337  0.2664 -0.3153 -0.3090
18293W        W34477  15.767  15.643   1.464 -0.0238  0.0245  0.0112
18294W        W34478   3.602   7.434   3.854  0.3541  0.0637 -0.2556
18295W        W34479   9.880  16.800  11.485 -0.0270  0.0447  0.0692
18296W        W34480   6.895  10.199  12.190 -0.1393  0.0905 -0.1476
18297W        W34481  15.913  18.486   0.928 -0.0342 -0.3643 -0.0631
18298W        W34482  13.680  16.170  16.080  0.2598 -0.1931 -0.1481
18299W        W34483  18.076  12.465   0.716 -0.0027  0.1336 -0.1240
18300W        W34484   8.773  13.576   0.604 -0.0991  0.1296  0.3582
18301W        W34485   8.942  15.606   0.951  0.1057  0.1748  0.3715
18302W        W34486   8.729   3.255  14.733  0.1259  0.1978 -0.1921
18303W        W34487  14.251  10.142   2.864 -0.0566  0.0220 -0.0531
18304W        W34488   1.369  16.413  12.641  0.1118  0.1576  0.3045
18305W        W34489   3.482  12.353  14.849  0.0030  0.1769 -0.0103
18306W        W34490   0.101   5.177  14.805 -0.1808 -0.0039  0.0317
18307W        W34491  15.155  11.152   4.223 -0.1011 -0.0264 -0.1032
18308W        W34492  11.962   6.113   4.276 -0.4219 -0.0620  0.0555
18309W        W34493  10.190  12.226  13.648  0.5281 -0.1773  0.2882
18310W        W34494   0.981   9.615  12.583  0.0947  0.2907  0.0088
18311W        W34495   9.603  13.178  12.421 -0.0597  0.2239 -0.0535
18312W        W34496   0.582   8.331   1.204  0.0905  0.0252 -0.1358
18313W        W34497  13.098  15.249   4.800 -0.0350  0.0603 -0.0667
18314W        W34498  16.695  13.211   0.077  0.2004 -0.0201 -0.1420
18315W        W34499   3.043  14.244   2.402  0.1423 -0.1218 -0.4184
18316W        W34500   2.634   6.016  15.011  0.0848  0.2051 -0.3250
18317W        W34501  16.550  11.381   4.627  0.3050 -0.1454 -0.0599
18318W        W34502  15.777  10.944  11.221 -0.4965  0.2997 -0.3578
18319W        W34503   2.630   9.720   0.698  0.0331 -0.1461 -0.0895
18320W        W34504  16.053  12.125  15.008 -0.0614 -0.0732 -0.0393
18321W        W34505   5.646  13.451  13.585  0.0392 -0.0355  0.3108
18322W        W34506   1.814   5.897   0.283  0.1264 -0.0955  0.0887
18323W        W34507  14.758   0.556  12.612  0.1051  0.1755  0.1065
18324W        W34508  12.859  15.207   1.815  0.3386 -0.1307  0.1770
18325W        W34509   1.804  17.016  14.105  0.0414 -0.1952  0.2430
18326W        W34510   4.809  18.521  12.027 -0.1718 -0.0736  0.0210
18327W        W34511   5.317   6.600  15.744  0.0749  0.2022  0.1487
18328W        W34512  17.025  18.389   2.140 -0.2208  0.1193 -0.1994
18329W        W34513   9.163  15.463  12.917  0.1316  0.1455 -0.2515
18330W        W34514  14.115  12.624  13.441 -0.0973  0.4611  0.2293
18331W        W34515  14.173   6.991   2.048  0.0676 -0.0977  0.1045
18332W        W34516  15.416   7.704   1.002 -0.2250 -0.1747 -0.0446
18333W        W34517  14.463  10.365   5.576 -0.2114  0.1413  0.1757
18334W        W34518  13.785   0.335  13.983  0.0729 -0.1547  0.0009
18335W        W34519  13.161  12.600   1.813  0.0288 -0.0137  0.1385
18336W        W34520   8.303  10.920   4.525 -0.3863 -0.3392  0.2105
18337W        W34521   5.649   6.215  15.145 -0.6333 -0.0539  0.1005
18338W        W34522   0.658  15.726   1.738 -0.1426 -0.2052 -0.2603
18339W        W34523   2.922   9.555  11.691 -0.2232 -0.3298  0.0119
18340W        W34524   3.550  13.751  13.358 -0.3183 -0.0417 -0.2037
18341W        W34525   9.156  14.293  11.847 -0.0722  0.2817 -0.1009
18342W        W34526  15.446   4.740   3.761  0.3036 -0.0754  0.0527
18343W        W34527  15.485   9.088  13.990 -0.0580 -0.0829  0.1084
18344W        W34528  16.921   9.075  14.472  0.1053 -0.4253 -0.4596
18345W        W34529  17.552   9.886  12.750  0.1746  0.0172  0.2391
18346W        W34530  17.641  12.919   3.698 -0.2866  0.1505 -0.0628
18347W        W34531  10.378   2.048   3.061  0.0162 -0.0038  0.0765
18348W        W34532  12.440   7.791   5.372 -0.0662 -0.3980  0.1710
18349W        W34533   3.604  15.611  11.216 -0.1476  0.1414  0.3136
18350W        W34534   7.740   3.909   0.114 -0.0267 -0.1441  0.0891
18351W        W34535  15.826  16.542  15.968 -0.1692 -0.2873 -0.1340
18352W        W34536  17.353  16.306   4.722  0.2404  0.0519  0.0775
18353W        W34537  13.323  14.710   5.703  0.4069 -0.1104 -0.0551
18354W        W34538  17.784   5.847   2.204  0.3496  0.0412  0.1386
18355W        W34539  15.511  11.111  15.210  0.0444  0.0064 -0.0212
18356W        W34540  13.028   1.515  13.743 -0.3281  0.1160 -0.2551
18357W        W34541   4.167   3.478   0.274  0.1091 -0.1328  0.0365
18358W        W34542   6.399   7.403   5.144 -0.0254 -0.3089 -0.1878
18359W        W34543   3.009   2.713  15.031 -0.0553 -0.0553 -0.5130
18360W        W34544  10.896   7.249   1.630 -0.0093  0.1289  0.0111
18361W        W34545  10.588   4.603   2.224  0.0082 -0.0732  0.2232
18362W        W34546  14.359   1.447  12.872  0.0295 -0.3116 -0.0164
18363W        W34547   1.602   5.530  13.220 -0.0979 -0.0525  0.1062
18364W        W34548  16.757  10.619   5.222  0.0600 -0.0840 -0.0308
18365W        W34549   9.787   9.530   4.854  0.2470  0.0544  0.1441
18366W        W34550   7.016  12.467   5.349 -0.1954 -0.0350 -0.5351
18367W        W34551   9.837  11.144   2.026 -0.1613  0.2351 -0.0568
18368W        W34552  14.497  12.266   2.555  0.1753  0.1171 -0.1485
18369W        W34553   7.689   4.252   2.571  0.0825 -0.1376 -0.1614
18370W        W34554   3.726   7.179  14.210 -0.1353  0.0302 -0.1228
18371W        W34555   8.908   7.482   2.338 -0.0292 -0.0807  0.1220
18372W        W34556   1.617   5.725  14.170 -0.3434  0.2460 -0.0210
18373W        W34557  16.861  16.246   1.026 -0.2102 -0.3540 -0.1357
18374W        W34558   7.665  10.814   4.106 -0.2398  0.0072  0.0334
18375W        W34559   4.983  12.143   2.619 -0.3651 -0.1271 -0.2529
18376W        W34560   6.127  10.774  15.041  0.0848  0.1429 -0.0062
18377W        W34561  15.605   0.616  12.549 -0.2908  0.0973 -0.0095
18378W        W34562   5.850   4.082  16.033 -0.3231 -0.4803  0.1094
18379W        W34563   6.430  16.490   4.569  0.0643 -0.2252  0.0082
18380W        W34564  12.302  17.242  12.314 -0.0312 -0.1464  0.1250
18381W        W34565   2.933   6.276   4.992  0.0744 -0.0307  0.0536
18382W        W34566  12.693   7.311   0.216 -0.0945  0.1995  0.0239
18383W        W34567   9.208  13.802  11.659 -0.1649 -0.1302  0.2750
18384W        W34568   1.826   9.232  12.331  0.3411  0.0942  0.1620
18385W        W34569  15.913   3.209   3.951  0.1544  0.2292  0.0536
18386W        W34570   0.529   4.859  16.011  0.2222  0.0689 -0.0955
18387W        W34571  15.031   5.907  13.988 -0.0134  0.0020  0.1516
18388W        W34572  14.499  14.297  13.883  0.0573 -0.1105 -0.1585
18389W        W34573   4.692   3.856  14.241 -0.2412 -0.1585 -0.3475
18390W        W34574   8.886  13.871   2.078  0.3729 -0.1316 -0.1078
18391W        W34575   7.710   1.539  13.151 -0.1167  0.3125  0.0539
18392W        W34576  12.488  15.479   1.516 -0.1489 -0.0217  0.1882
18393W        W34577   6.134   1.088  11.603 -0.2447  0.0852 -0.0327
18394W        W34578   0.450  15.155   5.390 -0.0755 -0.1853  0.0353
18395W        W34579   9.982   8.957   2.981 -0.0662 -0.1598  0.1155
18396W        W34580   2.890  12.614   3.937 -0.2297  0.1589 -0.2983
18397W        W34581  13.740  16.209   3.154  0.3687  0.5892  0.0409
18398W        W34582   9.852  12.584   3.292  0.1103 -0.1410  0.2800
18399W        W34583  14.636   6.747   0.798  0.1340 -0.0186  0.0367
18400W        W34584   8.459   6.008   5.364 -0.2682 -0.2349 -0.0843
18401W        W34585  16.404  10.851  11.219  0.0331  0.0733  0.0367
18402W        W34586   2.579   1.515   4.740  0.0468  0.0582 -0.0864
18403W        W34587   5.606  14.598  11.909 -0.0404  0.0956  0.0368
18404W        W34588   8.514   9.404  11.781 -0.0712 -0.0135 -0.1842
18405W        W34589  12.061   9.826  12.370 -0.0355 -0.0733  0.1070
18406W        W34590   3.164  13.926  14.782 -0.3213  0.1047  0.0421
18407W        W34591   1.743   5.670   0.795 -0.0160 -0.0003 -0.2192
18408W        W34592   6.992  15.924   0.869 -0.2738 -0.1632  0.0566
18409W        W34593   0.328   2.169   1.788  0.0202  0.0453  0.0875
18410W        W34594  13.198   1.045   0.816 -0.4743  0.2025  0.1119
18411W        W34595   4.538   2.824   2.532  0.0154  0.2822  0.1766
18412W        W34596   8.030   5.687  11.225  0.2293  0.2292 -0.1003
18413W        W34597  11.312  10.999  13.384 -0.2636 -0.3229 -0.1366
18414W        W34598  18.144   5.492   2.911  0.2672 -0.3961  0.2096
18415W        W34599  16.796   1.661  15.325 -0.2512  0.2014  0.0574
18416W        W34600  10.289  14.011   4.391  0.1014  0.1496 -0.1198
18417W        W34601  15.835  14.437   3.341 -0.4440  0.0541  0.0439
18418W        W34602   2.493  14.974  12.739 -0.0953 -0.2977 -0.0595
18419W        W34603   4.159  13.804   0.238 -0.0554  0.0717  0.0438
18420W        W34604  13.386   8.442   5.586  0.1562  0.5016 -0.2237
18421W        W34605  14.336   7.761  12.071  0.1306  0.0223  0.2970
18422W        W34606  18.102   3.355  14.131 -0.0282 -0.3270  0.3343
18423W        W34607  18.322  12.855   0.280  0.1120 -0.0591  0.1824
18424W        W34608   9.640   0.784   3.117  0.2390 -0.0890  0.2175
18425W        W34609   6.938   4.273  13.857  0.0197  0.2502  0.4533
18426W        W34610   8.315  14.229   3.566 -0.0260  0.0527 -0.2566
18427W        W34611   9.262   1.645  12.514  0.2422  0.1018  0.2769
18428W        W34612   5.440  14.792  12.404  0.0508 -0.1595 -0.3888
18429W        W34613  11.353  17.730   4.251 -0.2968 -0.0258  0.0592
18430W        W34614   5.855   8.349  12.074 -0.3721 -0.1937 -0.1224
18431W        W34615  15.666   1.373  14.614  0.0118 -0.0861 -0.2005
18432W        W34616   2.252  11.644  16.036 -0.2977 -0.1251 -0.0214
18433W        W34617   2.146   7.165   2.080 -0.2169  0.3062  0.0158
18434W        W34618  17.252  12.587   4.808  0.0366 -0.3002  0.0430
18435W        W34619  16.459   3.136  14.775  0.0014 -0.2545  0.0186
18436W        W34620  13.074  14.690   4.285  0.3213  0.2396  0.1253
18437W        W34621  17.060   8.257   3.045  0.1806 -0.1387 -0.0254
18438W        W34622   6.167  13.272   4.153  0.2581  0.0972 -0.0861
18439W        W34623   3.405   9.473   3.716 -0.2509 -0.0142 -0.1825
18440W        W34624  12.675  11.439  12.886  0.0234  0.0338 -0.0675
18441W        W34625  10.201   0.922   6.085 -0.0153 -0.0344  0.3823
18442W        W34626  11.555   4.985   1.653 -0.2123 -0.1123  0.1070
18443W        W34627  14.128   0.299   4.527 -0.1378 -0.2471  0.0162
18444W        W34628  15.773   3.198  12.972  0.0728  0.0809 -0.0195
18445W        W34629   3.647  14.904   3.234 -0.1184 -0.0699  0.0484
18446W        W34630   4.351   6.077   0.507 -0.2626 -0.3570 -0.0832
18447W        W34631  17.818   4.749   2.259  0.2481  0.0759  0.4160
18448W        W34632  12.068   6.042   3.776  0.1929 -0.2835  0.2944
18449W        W34633  12.918   6.764   1.994 -0.1624  0.0468 -0.0351
18450W        W34634  17.709   3.581  11.565 -0.1280  0.2755 -0.0125
18451W        W34635  17.798  18.461  12.234 -0.1978  0.0739  0.0084
18452W        W34636   1.079   9.822   2.948  0.0440 -0.1281 -0.2325
18453W        W34637   6.737  16.613   2.193 -0.1909 -0.1214  0.0790
18454W        W34638  17.395   5.928  14.519  0.1274  0.1145  0.0617
18455W        W34639   5.249   2.144   0.903  0.0422  0.2630  0.1760
18456W        W34640  12.833  16.212  11.703  0.0555 -0.3067  0.1449
18457W        W34641   3.672  17.961  14.903  0.1877  0.0458 -0.1476
18458W        W34642  13.309   1.105  13.585 -0.2498 -0.2496 -0.1509
18459W        W34643   9.939  16.248  12.228 -0.0814  0.1470  0.2223
18460W        W34644  18.090   0.734   4.137  0.1868 -0.2137 -0.1735
18461W        W34645  13.162  15.044  12.861  0.0861 -0.1142  0.0092
18462W        W34646   8.123  15.608   3.819  0.0600 -0.4298 -0.0763
18463W        W34647   9.201  13.846  12.944 -0.0936 -0.3465 -0.3500
18464W        W34648   6.445   3.883  12.651  0.1034 -0.0131  0.3942
18465W        W34649   0.005   8.709  11.472  0.1222 -0.0282  0.0128
18466W        W34650   5.200   0.356  14.079  0.2328  0.1031 -0.2295
18467W        W34651  11.131   6.286  12.476  0.1226  0.0474 -0.2642
18468W        W34652  16.382  10.955   4.320 -0.0626 -0.3977 -0.3326
18469W        W34653   3.135  17.913   1.729 -0.2009  0.4586 -0.0611
18470W        W34654   7.426  11.570  14.292 -0.2669 -0.0511 -0.2308
18471W        W34655   0.566  16.168   3.960  0.1089  0.0182  0.1699
18472W        W34656  14.075   2.911  15.146 -0.1417  0.2244  0.1349
18473W        W34657   8.550  11.518   0.605 -0.0613  0.0132 -0.1691
18474W        W34658  12.982   5.754   2.853  0.0217 -0.2648 -0.0635
18475W        W34659  10.076   8.083  11.279 -0.1413  0.0164  0.0043
18476W        W34660  11.118  14.290   1.222  0.0961 -0.3263  0.2056
18477W        W34661   9.208   6.179  12.116 -0.0397  0.1687  0.3431
18478W        W34662   3.851   7.245   5.178 -0.3965 -0.3055  0.2948
18479W        W34663  16.814  15.934  15.001  0.0883 -0.1843 -0.2024
18480W        W34664   4.772  17.230   1.759 -0.1089  0.0096  0.3008
18481W        W34665  10.876  12.428  11.120 -0.6126  0.0729  0.4920
18482W        W34666  16.474   7.879   2.541  0.2570  0.0126 -0.0118
18483W        W34667   6.974   7.753  14.761  0.1714 -0.3430 -0.0330
18484W        W34668  10.520   9.712   3.572 -0.0030 -0.1145 -0.1314
18485W        W34669  18.414   3.765  14.306  0.1552 -0.3942 -0.0415
18486W        W34670  15.329   8.084   3.208 -0.1340  0.2643 -0.1470
18487W        W34671  17.259   6.977   5.854  0.2376  0.0983 -0.2025
18488W        W34672   1.417   8.631  15.789  0.2177  0.1466 -0.0919
18489W        W34673   1.987  10.782   0.503 -0.1029  0.0498 -0.0835
18490W        W34674   2.536  15.239   3.100  0.2326  0.0873 -0.2191
18491W        W34675  16.718  13.975   0.057 -0.1181 -0.1491  0.0706
18492W        W34676   6.290   4.111  14.152 -0.0052  0.0695 -0.0311
18493W        W34677   7.599   0.429   4.008 -0.1417  0.0379 -0.1503
18494W        W34678   4.308  11.085  15.000 -0.1715  0.0557  0.0758
18495W        W34679   9.161  11.776   3.384  0.0843  0.0863 -0.0053
18496W        W34680  18.338   7.816  14.642 -0.3911 -0.0535 -0.0913
18497W        W34681   6.517  16.359   2.705 -0.1093 -0.1855  0.1256
18498W        W34682  16.128  14.234   4.813  0.1007  0.0848  0.1297
18499W        W34683   8.377  13.156   3.065 -0.0241 -0.3205  0.2636
18500W        W34684  17.466   8.594  13.931  0.1315  0.0635 -0.0917
18501W        W34685   9.721  10.851   1.175  0.1083  0.2623  0.4551
18502W        W34686  12.765  12.833   3.755  0.0523  0.0263 -0.2154
18503W        W34687  10.277   8.888   0.397  0.2271 -0.1939  0.3070
18504W        W34688   4.697  12.379   4.083  0.1528 -0.1805 -0.2686
18505W        W34689   3.239   7.801  12.435  0.1295 -0.1226 -0.0581
18506W        W34690  17.696   5.854  13.846 -0.0623  0.4511  0.1137
18507W        W34691   8.316   5.888   0.303 -0.1007 -0.0731 -0.0484
18508W        W34692   4.323  13.329   3.610  0.4218  0.0439  0.0119
18509W        W34693  10.405  17.805  12.800 -0.1896  0.1668 -0.1289
18510W        W34694   8.600  12.752  14.802  0.0449 -0.2122 -0.5640
18511W        W34695  12.104  14.085  15.784 -0.3267  0.2002 -0.3009
18512W        W34696  13.793  14.354  12.642  0.2062 -0.2030  0.0209
18513W        W34697   8.607   0.861   3.163 -0.1828  0.4370 -0.0328
18514W        W34698  10.787  14.954  11.668  0.2594  0.0634 -0.3069
18515W        W34699   0.370   8.458  15.482 -0.1648  0.3562 -0.1372
18516W        W34700   3.805  17.495   3.367 -0.1635 -0.2007  0.1223
18517W        W34701  17.989  13.854  11.236  0.0703 -0.1429  0.0674
18518W        W34702   9.232   4.309  15.861 -0.2113 -0.1954 -0.1539
18519W        W34703  10.026  16.781  14.348 -0.0792  0.0698 -0.0799
18520W        W34704   1.846  14.220   3.396  0.1459  0.1847  0.0192
18521W        W34705  15.248   9.068   3.213  0.2958  0.3485  0.1241
18522W        W34706  14.891  13.613   4.542 -0.0975  0.1514 -0.0512
18523W        W34707   1.988   7.652   2.226  0.2370 -0.1922 -0.1986
18524W        W34708   6.303   1.932  11.245  0.0812 -0.2921  0.1386
18525W        W34709  12.156  12.470  15.500  0.1347 -0.1948  0.2364
18526W        W34710   3.091  16.728   4.835 -0.0244 -0.4001  0.0474
18527W        W34711  10.521   0.337  13.549  0.0538 -0.1368  0.2135
18528W        W34712   1.957  12.997   2.405 -0.1694  0.4848  0.1378
18529W        W34713  14.142   9.974  15.292  0.1687 -0.0701 -0.2058
18530W        W34714  14.108  14.626   1.099  0.2239  0.0627 -0.0196
18531W        W34715   0.743   5.315  10.923  0.0371  0.3151  0.0275
18532W        W34716   0.661  15.225  14.831 -0.2353 -0.2230  0.3683
18533W        W34717   9.793   1.954   5.282  0.1345 -0.0080 -0.1976
18534W        W34718   8.302   5.676  14.946  0.2129  0.1765 -0.0715
18535W        W34719   6.837   6.909   1.591  0.3755 -0.0419  0.0449
18536W        W34720   5.940   9.219   1.570 -0.0198 -0.0914 -0.3847
18537W        W34721   1.900   2.502   0.323  0.3247 -0.1138 -0.1358
18538W        W34722  16.606   8.638  14.338  0.1138  0.0708  0.1186
18539W        W34723  17.223   3.746  11.523  0.2075  0.1389  0.0835
18540W        W34724   3.842  18.105  14.036 -0.0649  0.0290  0.0018
18541W        W34725  17.726  15.878   2.996 -0.0345 -0.1734 -0.0686
18542W        W34726   1.917  11.662   0.320 -0.2845  0.1638  0.1406
18543W        W34727  13.738   0.996   3.527 -0.3234 -0.3937 -0.0086
18544W        W34728  16.037  10.858   4.792 -0.1383  0.0218  0.3472
18545W        W34729  11.168   8.984  13.756 -0.0982 -0.0049 -0.1035
18546W        W34730   9.613  10.533   0.670 -0.1401  0.1453 -0.0928
18547W        W34731  18.098   7.653   1.989 -0.0225  0.1382  0.4575
18548W        W34732   1.149  17.534   1.727  0.0545  0.1087 -0.2597
18549W        W34733   3.836   9.033  14.328  0.2035 -0.0054  0.1990
18550W        W34734  16.790   7.201   4.682 -0.2657 -0.0324 -0.3532
18551W        W34735   8.113   3.023   1.766 -0.2737  0.1460 -0.0839
18552W        W34736   3.739  15.945  10.804 -0.0725 -0.0581 -0.0889
18553W        W34737  13.970  10.592   2.096 -0.0634 -0.1373  0.2469
18554W        W34738   4.654  13.100   3.322 -0.1992  0.0673  0.0993
18555W        W34739   5.786   0.059   1.572 -0.3373 -0.1037 -0.2986
18556W        W34740   3.220   3.720   3.302  0.0082 -0.2263  0.0624
18557W        W34741  11.680   5.606  12.395 -0.2304 -0.2545  0.0005
18558W        W34742  13.693   6.747   2.019 -0.3190  0.1131 -0.0066
18559W        W34743   1.084  13.070  12.634 -0.1150  0.1566 -0.4653
18560W        W34744  13.357   8.116  15.298 -0.0705  0.1298 -0.0039
18561W        W34745   8.013  10.916   3.699  0.1427  0.0099 -0.0413
18562W        W34746  10.931   3.298   3.643  0.0518  0.0021 -0.2049
18563W        W34747   3.661   3.716  12.417  0.0603  0.2758 -0.1612
18564W        W34748   9.007  17.731  14.956  0.0357  0.0951  0.0298
18565W        W34749   9.582   7.344   5.814  0.3894 -0.1535  0.0128
18566W        W34750  10.548   2.050  14.203 -0.0059 -0.2149  0.0236
18567W        W34751   5.511  17.069   4.661 -0.2682 -0.4344  0.1619
18568W        W34752   6.430  16.930   2.454 -0.1067 -0.2219 -0.2152
18569W        W34753   3.099   9.808  13.204 -0.1616  0.2148 -0.2464
18570W        W34754   4.994  14.709   1.150  0.1979 -0.1298  0.2634
18571W        W34755   1.981  13.382  16.007  0.0588  0.2265  0.0075
18572W        W34756   5.019  16.491   0.017 -0.1345  0.0136  0.1035
18573W        W34757   9.626  13.253   5.322 -0.2147  0.2287 -0.1608
18574W        W34758   4.257  13.206   1.613 -0.0081  0.1749  0.1216
18575W        W34759   5.589  13.195   3.246 -0.1057 -0.2301  0.1796
18576W        W34760   2.503  12.588  14.821 -0.0625  0.3002 -0.0326
18577W        W34761   6.286   0.036  12.798  0.0439 -0.2750 -0.0821
18578W        W34762  17.249   8.911  11.861 -0.2856 -0.0262 -0.0244
18579W        W34763  17.201   1.847   3.382 -0.2510  0.3406 -0.0392
18580W        W34764  15.673   1.590  16.019  0.0702 -0.2462 -0.1190
18581W        W34765  16.991  15.858   1.395  0.2976 -0.3958 -0.4106
18582W        W34766  16.163   9.288  13.603  0.5865  0.1033  0.2485
18583W        W34767   2.472  11.787   6.530 -0.2168 -0.0409  0.1737
18584W        W34768  17.351  18.293   5.037  0.1297  0.3099 -0.0546
18585W        W34769   2.772  10.816  11.594  0.0313  0.2211 -0.5025
18586W        W34770   0.010  13.840  12.649  0.0040 -0.3509 -0.0885
18587W        W34771  10.820  15.193   0.859 -0.4409  0.0388  0.2100
18588W        W34772  10.479   4.933  14.032  0.0095  0.0624  0.0305
18589W        W34773  12.959   2.227  14.153  0.2820  0.2008 -0.0511
18590W        W34774  11.401   3.799  15.541 -0.0762 -0.1492 -0.0252
18591W        W34775  16.196   0.938  15.351  0.4043 -0.2012  0.1353
18592W        W34776  15.514   9.526  16.067 -0.0301 -0.2028 -0.3346
18593W        W34777   7.498  10.775  12.005  0.1295 -0.1360  0.0573
18594W        W34778   0.835   9.659   4.900  0.0173  0.0747 -0.1398
18595W        W34779  15.067   8.281  11.722  0.1537 -0.1091 -0.3040
18596W        W34780   7.800   0.791  14.967  0.2050  0.1470  0.0534
18597W        W34781   2.880   6.533  12.931 -0.0736 -0.1565 -0.2925
18598W        W34782  14.380  15.369  13.210 -0.3486 -0.0981  0.4396
18599W        W34783  10.180  11.712  15.505 -0.1094 -0.1539  0.1992
18600W        W34784  11.782   3.643   4.322 -0.0886  0.0657 -0.1619
18601W        W34785  17.457   7.306  14.517 -0.4531  0.5141  0.0060
18602W        W34786  15.033   3.997  10.922 -0.3226  0.0950 -0.2728
18603W        W34787  14.714   3.457  13.806 -0.1784  0.1603  0.2292
18604W        W34788   9.359  15.567  15.774 -0.2235 -0.2359 -0.1687
18605W        W34789   0.682  14.695   3.528  0.1499 -0.0519 -0.1179
18606W        W34790  14.074   5.070   6.256 -0.2451 -0.1979 -0.0110
18607W        W34791  13.250   5.998   1.356 -0.1355 -0.1723 -0.0672
18608W        W34792   8.430  14.715  11.496 -0.0082 -0.0235 -0.2088
18609W        W34793  16.718  14.932   5.694 -0.0192 -0.1897  0.1533
18610W        W34794   3.198   4.584   0.060 -0.0920  0.0848  0.1421
18611W        W34795  17.661  17.368  11.239  0.4415 -0.2535 -0.1310
18612W        W34796   0.750  16.807  14.678 -0.3065  0.3216 -0.2018
18613W        W34797   5.839  12.049   1.777  0.0745  0.0503 -0.0985
18614W        W34798  10.335   8.092  15.285 -0.2074  0.0889 -0.1591
18615W        W34799   4.953  13.654  15.658 -0.2668 -0.1430 -0.1910
18616W        W34800  10.243   4.041  12.058 -0.0245  0.1698 -0.1167
18617W        W34801   0.046  12.211  14.416  0.2489 -0.1028 -0.4585
18618W        W34802   3.693   6.548  13.477 -0.4081  0.0008  0.1725
18619W        W34803   4.302   3.431  14.901  0.0336 -0.0533  0.0912
18620W        W34804  14.051   7.853   2.026 -0.1086  0.1481 -0.1680
18621W        W34805   7.378   8.211   4.713 -0.1947 -0.1358  0.0311
18622W        W34806   5.515  10.587  12.459  0.2022  0.1176  0.0306
18623W        W34807  14.490  16.903   1.620 -0.1111 -0.5666  0.2202
18624W        W34808  13.150  11.122  12.998 -0.0509 -0.0800  0.1599
18625W        W34809  10.534  10.557   0.965  0.1848 -0.0360 -0.0943
18626W        W34810   3.796   0.574   1.469 -0.0351  0.0117 -0.0770
18627W        W34811   1.955   3.735   4.923  0.4100 -0.0123 -0.2949
18628W        W34812  14.565   4.542   0.309 -0.0794 -0.0694 -0.3265
18629W        W34813   5.143   0.688   5.050  0.1513  0.0267  0.0129
18630W        W34814  14.681  16.611   2.486  0.4332  0.1295  0.0890
18631W        W34815   8.563   5.399   0.180 -0.4340 -0.0316  0.2248
18632W        W34816  11.825   7.398   4.597  0.1912 -0.1030  0.1319
18633W        W34817   0.645  18.211  15.180  0.0745  0.1220 -0.1784
18634W        W34818   8.060   6.285   5.477  0.2057 -0.2936 -0.0213
18635W        W34819   3.101  17.305   3.821  0.0554 -0.0732 -0.1252
18636W        W34820  18.138   2.977   0.370 -0.0313 -0.0310  0.0474
18637W        W34821   6.422   9.438   6.478  0.0993 -0.0468 -0.1748
18638W        W34822   3.467  14.552  12.658 -0.0213 -0.0518  0.2062
18639W        W34823  14.042   4.264  15.603  0.2672 -0.1873  0.2332
18640W        W34824   6.916  18.491   5.036  0.3016  0.2536  0.0502
18641W        W34825  10.870  17.546   1.365 -0.1612  0.1668  0.0423
18642W        W34826  13.750   6.572   1.048  0.1992 -0.0723  0.1378
18643W        W34827   3.484   6.656   3.034  0.1836  0.1861  0.1974
18644W        W34828  13.793   7.121  12.703  0.1785  0.2329  0.0410
18645W        W34829  10.422  14.877  12.035 -0.2704  0.0619  0.0110
18646W        W34830   8.558   3.127   4.018  0.1815 -0.0393  0.0825
18647W        W34831   5.310   7.313  12.240  0.1318 -0.1531 -0.2149
18648W        W34832  17.463  10.806   5.061  0.0189 -0.2192 -0.1618
18649W        W34833  11.372  11.886  15.709  0.0408 -0.3100  0.1070
18650W        W34834   5.326  17.580  15.807 -0.1765 -0.5093 -0.1287
18651W        W34835  17.225  14.166  15.100 -0.2146  0.0282 -0.2144
18652W        W34836   9.868   1.668   1.962 -0.1496 -0.2303  0.2460
18653W        W34837  13.708  13.027  13.220 -0.1266  0.3281  0.3168
18654W        W34838   7.647  13.221  16.106 -0.1623 -0.2307  0.0179
18655W        W34839  15.057  11.789   0.343  0.1141  0.0031  0.1620
18656W        W34840   9.748  15.278   5.301  0.2402 -0.0303  0.1295
18657W        W34841   0.333  10.514   0.503  0.2172  0.1975  0.1331
18658W        W34842  12.703  17.582  12.226  0.0802 -0.2321  0.1158
18659W        W34843  11.126   2.895   3.965  0.2683 -0.0210 -0.0089
18660W        W34844   9.596  14.633   4.160 -0.3785  0.2148  0.0356
18661W        W34845   0.621   8.544   3.092  0.0924  0.2315 -0.0865
18662W        W34846  10.019   4.811   4.870  0.4045 -0.1271 -0.2039
18663W        W34847   7.927  14.019   5.352 -0.3835 -0.3327  0.2424
18664W        W34848   0.225   2.719   1.740  0.2429  0.1333 -0.1106
18665W        W34849  14.114  16.359  12.319 -0.0492  0.1621  0.2826
18666W        W34850   7.618   6.639   2.164 -0.0177 -0.1027 -0.0064
18667W        W34851  17.432  17.752  11.499  0.1505 -0.1939  0.0620
18668W        W34852   8.915  16.930   3.093 -0.2379  0.0324  0.0161
18669W        W34853  10.508  15.671   0.700 -0.2547  0.2138  0.1290
18670W        W34854   6.628   2.041  13.400 -0.0194 -0.1916  0.3889
18671W        W34855  16.536   9.215   1.012 -0.1735 -0.2418  0.1829
18672W        W34856   2.748   7.758   3.108  0.2412 -0.1333  0.1002
18673W        W34857  10.573  17.178   4.400  0.1270 -0.1250  0.2313
18674W        W34858   1.645   5.646  14.840 -0.2491  0.2261 -0.0279
18675W        W34859  14.296   8.806  13.256  0.1674  0.0070  0.1002
18676W        W34860  15.629  10.561  11.692 -0.0928  0.0089  0.0133
18677W        W34861  11.999   2.945   0.649 -0.0702  0.1449  0.0716
18678W        W34862  10.095   9.785   3.153  0.3788  0.1659  0.0131
18679W        W34863   7.137  10.605  12.437 -0.1929 -0.0073  0.0759
18680W        W34864  13.066  14.002   5.358 -0.2888 -0.0792  0.4166
18681W        W34865  13.275  12.990  15.975  0.2424 -0.0153 -0.2049
18682W        W34866  14.898  11.824  15.969  0.1977  0.2103  0.1229
18683W        W34867   5.087  10.163   3.429  0.0862  0.1344 -0.4202
18684W        W34868   3.393   2.550  13.681  0.1807  0.1000 -0.0815
18685W        W34869  11.926   2.285   2.537  0.1881  0.2128  0.1653
18686W        W34870   2.698   4.246   5.174 -0.0427  0.1378  0.1911
18687W        W34871  17.505   0.627  14.969  0.1756  0.1367  0.1749
18688W        W34872  11.575   0.578   1.846  0.0801  0.1402  0.1150
18689W        W34873   1.903   3.498  10.715 -0.1362  0.1420  0.0627
18690W        W34874  16.067   4.398   4.280 -0.2714  0.0855 -0.3243
18691W        W34875  14.517  10.792   3.837 -0.2859  0.0399  0.0297
18692W        W34876   8.544   1.739  14.258  0.0496 -0.1261 -0.0036
18693W        W34877  18.484  11.577  11.580 -0.2874  0.1677 -0.1542
18694W        W34878  13.580   0.529   0.185  0.1508  0.0119 -0.1224
18695W        W34879   6.384  13.755  15.681  0.2856 -0.3546 -0.0235
18696W        W34880  14.653   7.376  14.995 -0.0175 -0.1697  0.1488
18697W        W34881  17.050  11.976  12.410 -0.0855 -0.4559  0.3827
18698W        W34882  15.886  11.563   3.842 -0.5642 -0.0741  0.2030
18699W        W34883  16.704   2.909  11.891  0.3338  0.1922 -0.2149
18700W        W34884  15.476   0.516   1.354 -0.1166 -0.1180  0.3441
18701W        W34885   7.021   0.479  12.384 -0.0786 -0.0495 -0.1906
18702W        W34886  11.271  12.664   1.402 -0.2819 -0.0782  0.0543
18703W        W34887  13.741   7.820  11.328 -0.1327 -0.0631  0.5448
18704W        W34888   4.607  14.639   1.741 -0.0157 -0.0725 -0.0472
18705W        W34889  10.509  11.223  16.066 -0.3930 -0.4155  0.3472
18706W        W34890  11.240   1.148  16.128  0.2340  0.1953  0.0474
18707W        W34891   0.249  12.492  14.838  0.0027 -0.0455  0.0755
18708W        W34892  14.987   2.236   1.623  0.0992  0.2817  0.0672
18709W        W34893   5.902  10.858   3.377  0.2814  0.1035  0.1463
18710W        W34894  17.700   9.109  11.679 -0.2716  0.0359  0.2445
18711W        W34895  11.479   4.798   3.087 -0.1552 -0.0565 -0.0876
18712W        W34896  14.275  17.339  15.518 -0.0677  0.0326 -0.0513
18713W        W34897  14.275   9.402  14.396  0.0761 -0.2299 -0.1589
18714W        W34898   9.802   7.784  14.178 -0.2627 -0.2931  0.1796
18715W        W34899  16.450   4.044  10.902  0.0685  0.1647 -0.1145
18716W        W34900   9.842  10.751   2.957  0.0837  0.1393  0.0197
18717W        W34901  16.037  10.931   1.220 -0.1284  0.1564  0.0782
18718W        W34902  10.903   7.278  16.031  0.1190  0.1791 -0.1970
18719W        W34903   7.613  18.238   4.664 -0.3626  0.1572  0.3012
18720W        W34904   0.411   9.894   4.741  0.1155  0.0978 -0.2070
18721W        W34905   7.908   1.442   1.027 -0.2323 -0.1926 -0.3356
18722W        W34906  15.384   0.672   4.508 -0.4838 -0.2311 -0.0015
18723W        W34907   8.723  10.413   1.903 -0.2839  0.1971  0.1931
18724W        W34908   9.700  16.173   3.964  0.0541  0.1789  0.0076
18725W        W34909   5.302   4.746  13.798  0.1233 -0.0348 -0.3135
18726W        W34910  17.000  15.788  14.434  0.1066  0.0228 -0.2332
18727W        W34911   0.342  17.017  14.502 -0.0515 -0.1013  0.3242
18728W        W34912   6.328  17.699   4.895  0.0298 -0.1648  0.0604
18729W        W34913  13.713  14.723   5.298 -0.3551  0.1887  0.1546
18730W        W34914   9.272  15.873  14.953  0.0067 -0.0856 -0.0443
18731W        W34915  16.913  15.792  13.943  0.0031 -0.2081  0.0622
18732W        W34916   1.537   7.796   5.286  0.0474 -0.1179  0.3231
18733W        W34917   3.237  12.926   4.099 -0.1434  0.0694  0.1326
18734W        W34918   2.777   6.481  13.436  0.0130 -0.2446 -0.1857
18735W        W34919   4.505   4.369   1.810  0.3510  0.4369 -0.4265
18736W        W34920  10.221   0.794  15.289 -0.2220  0.2185  0.1504
18737W        W34921   6.539  16.783   3.147 -0.0434 -0.1072  0.5246
18738W        W34922   2.568  14.844  12.201 -0.0889  0.0516 -0.2081
18739W        W34923  13.613   0.311   5.481 -0.2052 -0.0317 -0.3262
18740W        W34924   1.026   3.101  14.519  0.1610 -0.0476  0.1278
18741W        W34925  17.518  14.250   4.277  0.1658  0.2542  0.1103
18742W        W34926   9.099   0.903   1.820  0.3475 -0.4495  0.0095
18743W        W34927   2.470  15.632  12.741 -0.2596  0.2880 -0.2207
18744W        W34928   6.565  10.978  14.901  0.5704  0.3281 -0.2047
18745W        W34929  13.873  14.753   5.767 -0.1556 -0.0308  0.2100
18746W        W34930   0.257   3.219  15.182 -0.1276  0.1107  0.0860
18747W        W34931  17.616   6.172   4.109  0.0697 -0.1830  0.1651
18748W        W34932   6.660   4.606   3.993  0.0274  0.1064 -0.1458
18749W        W34933  11.132  16.683  11.496  0.2879  0.0858  0.0120
18750W        W34934   9.480  10.630  14.556  0.2103 -0.0694 -0.3177
18751W        W34935  17.146   9.092   4.390  0.0968 -0.0698 -0.0989
18752W        W34936  17.670   8.556   2.312 -0.1464  0.0800 -0.0924
18753W        W34937  15.233   9.459  13.133  0.0751 -0.1586  0.0044
18754W        W34938  18.401  12.367   4.692  0.3183 -0.2537  0.1727
18755W        W34939   1.124   3.599  15.974 -0.0610  0.3942 -0.2674
18756W        W34940  11.783  10.439   4.969  0.0906 -0.0517  0.1214
18757W        W34941  15.021   4.556   4.483 -0.0329 -0.1559 -0.1316
18758W        W34942  12.002   7.343   3.316 -0.0375 -0.4301 -0.0465
18759W        W34943   6.602  10.494   2.613  0.0836  0.1371  0.0144
18760W        W34944  16.782   3.035  11.338 -0.1234  0.0304  0.2071
18761W        W34945  18.092  15.758   4.517  0.1071 -0.1020 -0.2167
18762W        W34946  13.733   1.839   2.269  0.3904  0.3120  0.0466
18763W        W34947  14.688   3.237   2.412  0.1528  0.0909  0.0573
18764W        W34948   8.091  11.757   2.491  0.2102 -0.0440  0.0697
18765W        W34949   9.980  12.391   2.755 -0.1364  0.0150 -0.2042
18766W        W34950  12.907  10.812  15.118 -0.1407 -0.0163  0.0874
18767W        W34951   0.378  15.781  15.317  0.2149  0.1690 -0.5258
18768W        W34952  13.667   2.173   3.706 -0.0468 -0.1484 -0.2647
18769W        W34953   3.278   3.120  15.033 -0.5393 -0.0201 -0.2028
18770W        W34954  13.350  11.227   2.019  0.1954 -0.1829 -0.2384
18771W        W34955  17.038  13.021  11.475  0.2949 -0.0737 -0.2388
18772W        W34956  16.682   2.491   4.039 -0.0456 -0.1663  0.2256
18773W        W34957  17.307   6.079   1.765  0.0348  0.2328  0.2282
18774W        W34958   7.524   7.199   0.824 -0.4811 -0.0956  0.0004
18775W        W34959   4.458  10.439   0.434  0.0995  0.1081  0.1841
18776W        W34960   5.604   4.598   2.682  0.3147  0.1930  0.2116
18777W        W34961   6.627  17.616  14.430 -0.2206 -0.3073  0.0516
18778W        W34962   3.286   9.233  11.885 -0.0345 -0.1805 -0.0620
18779W        W34963  14.560   4.393  11.796  0.3923 -0.0106  0.2493
18780W        W34964   7.411   5.007  15.741 -0.0100 -0.3372  0.1656
18781W        W34965   6.572   8.707  14.670 -0.1716  0.1333  0.0636
18782W        W34966   9.411  17.969  12.286  0.1897 -0.0272 -0.3299
18783W        W34967  13.947   4.432  13.035 -0.1111 -0.2452 -0.0355
18784W        W34968  11.868  10.443   4.040 -0.1621 -0.2505 -0.0812
18785W        W34969   9.073  13.899   4.240 -0.2031 -0.1821  0.4907
18786W        W34970  11.672   0.966   0.823  0.3863 -0.1111  0.0786
18787W        W34971  12.797   0.616   0.885  0.0425 -0.1586 -0.1016
18788W        W34972   4.352  14.043   5.710  0.0099  0.1039  0.1539
18789W        W34973   8.824   5.618  14.649 -0.1472 -0.2980 -0.2964
18790W        W34974  15.069   1.662  12.333 -0.1986  0.0653  0.0663
18791W        W34975   4.986   2.796  14.956 -0.0048 -0.0823  0.1384
18792W        W34976  17.286  11.678   1.583  0.3794 -0.3165 -0.3141
18793W        W34977  10.327  16.172   3.472  0.1353  0.0866 -0.1848
18794W        W34978  14.851  13.301  15.121  0.1990 -0.1105 -0.1940
18795W        W34979  13.127   6.485   3.542 -0.0503  0.0274 -0.3021
18796W        W34980   5.307   2.397   2.775 -0.0862 -0.3103 -0.0948
18797W        W34981   3.739   0.225   3.210  0.1341  0.0307 -0.1305
18798W        W34982  17.705   1.584   0.198 -0.1128  0.2748  0.1804
18799W        W34983   0.729   4.552   4.699 -0.0826  0.0459  0.1838
18800W        W34984  10.620  15.450  15.575 -0.2967 -0.0907  0.0401
18801W        W34985  13.947   2.320  12.252 -0.0114  0.0872  0.0831
18802W        W34986   1.226   5.955   5.213 -0.2598 -0.1372  0.1166
18803W        W34987   9.638  10.799  12.003  0.1904  0.2017 -0.3234
18804W        W34988  16.138   8.913  15.787  0.3243 -0.3579 -0.3396
18805W        W34989   6.905  14.253  15.193  0.1321  0.1450  0.0216
18806W        W34990   5.626  17.128   0.082 -0.1003 -0.1879  0.2333
18807W        W34991  10.807   8.735   1.522 -0.1457  0.1006 -0.0459
18808W        W34992   1.344   4.227   5.226 -0.0482 -0.0696  0.0757
18809W        W34993   1.598  16.733   1.900  0.0499 -0.1625 -0.3191
18810W        W34994  14.511  16.968  10.000  0.0721 -0.1545  0.1427
18811W        W34995   7.936  16.258  15.227 -0.0870 -0.0742 -0.3247
18812W        W34996   8.855  10.857   4.675  0.0112 -0.0925  0.1443
18813W        W34997   8.095   0.037  16.108 -0.1166  0.0809 -0.0843
18814W        W34998   2.419   9.252   2.942 -0.2595  0.1090  0.1815
18815W        W34999   4.245  10.016   0.050 -0.0359 -0.0356  0.0776
18816W        W35000  10.919  17.383   6.000 -0.2190 -0.0524  0.0458
18817W        W35001   5.548   5.950   2.325 -0.3632  0.1288 -0.3553
18818W        W35002  16.717   4.913  15.591  0.0709 -0.2620  0.2695
18819W        W35003   1.094   6.889  13.484  0.2040 -0.0208 -0.0515
18820W        W35004   0.559  17.858   0.572  0.1768 -0.0027 -0.2317
18821W        W35005   7.696   5.877  12.419 -0.2601 -0.1113  0.1809
18822W        W35006  10.710  12.384   5.374 -0.1157  0.0891 -0.2529
18823W        W35007   4.791   3.219   1.681  0.1483 -0.2498  0.1107
18824W        W35008  12.487   6.934  12.541 -0.3682 -0.4362  0.0049
18825W        W35009  13.549  17.385  14.865  0.1985 -0.0495 -0.2775
18826W        W35010  11.940  12.156   3.580 -0.0592  0.1367  0.0664
18827W        W35011  17.074  13.848  12.498  0.0774 -0.0915 -0.1266
18828W        W35012  16.427  15.364  11.011  0.1982 -0.3246 -0.0254
18829W        W35013   9.293   7.573  12.870  0.0645  0.0341 -0.0230
18830W        W35014   4.687  11.177   3.437  0.0095  0.1286  0.1333
18831W        W35015  17.755  11.547  12.030  0.2287 -0.0945 -0.1403
18832W        W35016  11.362  15.252  13.586  0.1102  0.0443 -0.0372
18833W        W35017  11.053  18.425  12.799  0.1642  0.5158  0.0019
18834W        W35018   8.131  10.807  13.775  0.4447 -0.0743 -0.2189
18835W        W35019  13.670  15.235  11.940 -0.2050 -0.2155  0.2812
18836W        W35020  12.845  13.130  11.024 -0.1621 -0.1485 -0.1250
18837W        W35021  10.405   6.465  14.316 -0.0464  0.0808 -0.0282
18838W        W35022  14.777  18.475  10.896  0.2292  0.1266 -0.1986
18839W        W35023   8.279   1.005  14.977  0.1054  0.4194 -0.1779
18840W        W35024   5.819  14.526   1.706 -0.1898  0.0315  0.1403
18841W        W35025   4.940   4.873  14.235 -0.5364  0.2280  0.1281
18842W        W35026  13.283  11.441   6.005 -0.1557  0.3250 -0.2123
18843W        W35027   0.866   3.143  11.557 -0.3449 -0.1090 -0.0366
18844W        W35028   1.182  13.845  11.457  0.1986 -0.1517 -0.2730
18845W        W35029  17.176   4.396  12.881 -0.1089  0.0227 -0.1303
18846W        W35030   4.469  14.315   4.145  0.1643  0.1385 -0.2222
18847W        W35031  16.858  10.473  13.365  0.0926  0.0919  0.0547
18848W        W35032   1.869   2.894  14.280  0.2512  0.2331  0.2382
18849W        W35033  16.064  11.354  11.007  0.1926  0.2628  0.2355
18850W        W35034   5.331   2.620   4.009  0.3165 -0.2182 -0.3804
18851W        W35035   2.892  13.425   0.869  0.3196  0.1552 -0.1400
18852W        W35036   7.802   7.213  14.281 -0.2296  0.1645  0.1113
18853W        W35037   2.482  12.233  16.000 -0.4395 -0.1095  0.2370
18854W        W35038   5.212  14.329  12.009  0.4141 -0.0351 -0.0331
18855W        W35039   6.183  17.383   9.888 -0.3868 -0.1638  0.0003
18856W        W35040   8.768  12.704  14.290  0.0626  0.3691  0.0500
18857W        W35041  12.164   0.531   2.675  0.1403 -0.1310  0.0222
18858W        W35042   1.686  15.967   5.610  0.0993  0.1924 -0.3068
18859W        W35043  14.933  15.187  14.147  0.2669 -0.2130 -0.1073
18860W        W35044   1.976   1.535   0.116 -0.0089  0.0448  0.0213
18861W        W35045  10.320  13.283   2.499  0.5272 -0.3117 -0.1873
18862W        W35046  11.720  16.237  13.533  0.0833  0.3017  0.3226
18863W        W35047  14.955   6.495  16.118  0.0566  0.2055 -0.0475
18864W        W35048  18.380   5.183  13.014  0.0378  0.2671  0.4061
18865W        W35049   1.506   3.678   4.362 -0.1753  0.2744  0.2582
18866W        W35050   8.983  15.336   3.166  0.1129 -0.0878  0.1279
18867W        W35051   9.110   0.072   2.233 -0.2435 -0.2866  0.0389
18868W        W35052   5.538   4.404   4.627 -0.1509  0.1284  0.3367
18869W        W35053  12.006  11.612   3.280 -0.2293  0.1143 -0.2109
18870W        W35054   6.549   5.883   3.530 -0.0723  0.1249  0.1597
18871W        W35055  10.173  17.280   5.649 -0.3345 -0.1649 -0.0535
18872W        W35056  12.648   3.987   1.634 -0.1764  0.0643 -0.1177
18873W        W35057  12.372  12.561   3.809 -0.1137  0.1361 -0.2384
18874W        W35058   9.175  14.273  11.287  0.0058 -0.0646 -0.2973
18875W        W35059  15.541  14.035   4.171  0.0626 -0.1856 -0.1841
18876W        W35060  15.603   6.629  11.874 -0.3106 -0.0920 -0.3079
18877W        W35061   8.603  15.261   0.166 -0.1395  0.0162  0.2065
18878W        W35062  17.122   1.072  14.129 -0.1261  0.1782  0.5115
18879W        W35063   4.084   9.293  12.346 -0.0015 -0.2810  0.0900
18880W        W35064   2.354   8.170  13.866 -0.1677 -0.1780  0.2250
18881W        W35065   5.624  11.278   5.206  0.2549  0.1205 -0.0640
18882W        W35066  13.875  12.308   4.292  0.0250 -0.0405 -0.0358
18883W        W35067   4.343  13.183  15.927  0.1188 -0.1965  0.0473
18884W        W35068   0.808   9.070  15.246  0.3040  0.1581  0.0170
18885W        W35069   4.678   7.754   3.279  0.1742 -0.1602  0.0315
18886W        W35070   7.759  13.445   3.662 -0.3148  0.1743 -0.0121
18887W        W35071   3.194  11.089  13.370  0.3002  0.1530 -0.3505
18888W        W35072   0.143  18.274   3.380 -0.0516 -0.3072 -0.4025
18889W        W35073  18.161  18.226  10.936 -0.1758 -0.2596 -0.0077
18890W        W35074  12.994  10.716  13.213  0.4146 -0.2671  0.5645
18891W        W35075  12.275  12.149  13.510  0.0301 -0.0575  0.0036
18892W        W35076  11.986   7.718   6.193  0.0158 -0.1001 -0.0443
18893W        W35077   6.464   3.730   2.298 -0.3725  0.2820  0.3223
18894W        W35078   4.307   9.862  12.173  0.0301 -0.1936  0.1120
18895W        W35079   6.471  15.793  15.849 -0.0224  0.0347  0.1318
18896W        W35080   3.730   7.391   0.521  0.0160 -0.1398 -0.2278
18897W        W35081   6.540  15.062   1.203  0.2353 -0.1910  0.0464
18898W        W35082   7.050  10.656  12.966 -0.0780 -0.2723 -0.0420
18899W        W35083   3.988   0.463  12.026  0.0153 -0.1818 -0.0627
18900W        W35084  14.464   5.279   0.201  0.0202  0.0016 -0.0786
18901W        W35085   3.974  11.059   1.347  0.3821  0.1583 -0.1088
18902W        W35086   5.688   7.844   2.313  0.0884  0.1998 -0.2149
18903W        W35087   0.425   9.792   3.843  0.0393  0.1254  0.0196
18904W        W35088  14.513  15.080   3.878  0.1210 -0.1506  0.0857
18905W        W35089   7.025  13.139  14.154  0.2052 -0.3282 -0.0644
18906W        W35090   2.225  15.447   1.232  0.2156  0.0236 -0.0289
18907W        W35091   2.351   5.917   0.370  0.3100  0.0882 -0.1473
18908W        W35092   2.773  16.421  12.102  0.0762 -0.2120  0.2656
18909W        W35093   2.303   9.263   1.770  0.0734 -0.0325 -0.0789
18910W        W35094  13.906  10.144   3.697 -0.1796  0.0176  0.0788
18911W        W35095  13.413   0.972   4.187 -0.0864  0.0207  0.1468
18912W        W35096  15.114   0.051   1.499  0.0235 -0.0001 -0.2009
18913W        W35097  16.783   4.830   3.728 -0.1191 -0.1117 -0.1994
18914W        W35098   3.951  12.121   4.374  0.1322  0.0250  0.1066
18915W        W35099   7.789   8.970  15.846 -0.4075 -0.2437 -0.1515
18916W        W35100  14.376  14.206   1.838  0.1258  0.1513 -0.1357
18917W        W35101  11.721   7.123   5.080  0.3408 -0.1512  0.2780
18918W        W35102  14.735   2.979  11.908  0.2548  0.0092 -0.1332
18919W        W35103  11.853  18.033   3.350 -0.0027 -0.1859 -0.2473
18920W        W35104   9.511   7.712  15.185  0.0134  0.0901  0.1779
18921W        W35105  13.652   7.091   5.299 -0.2383  0.0084 -0.0965
18922W        W35106   9.782   0.445  14.375  0.1083 -0.3081 -0.1038
18923W        W35107  11.114   5.870   3.974 -0.2140 -0.0859 -0.0137
18924W        W35108  16.723  16.082   5.793  0.0597  0.3894 -0.3282
18925W        W35109  12.054   4.244  13.720 -0.3199  0.2898 -0.1367
18926W        W35110  15.506   9.966   6.122  0.2029 -0.4291  0.2165
18927W        W35111   6.425  15.661   1.051 -0.1001 -0.0561 -0.1704
18928W        W35112  11.425   7.767   2.229 -0.0233  0.0076 -0.1901
18929W        W35113  12.629  12.758   1.783  0.2616  0.0466  0.0869
18930W        W35114  11.208  12.824   2.996  0.1156 -0.1689  0.0179
18931W        W35115   0.057   7.380   3.055 -0.3737 -0.0519  0.0361
18932W        W35116   1.509   3.432  15.457 -0.0809  0.1769 -0.1393
18933W        W35117  14.110  16.123   1.991 -0.1846  0.1699  0.1230
18934W        W35118   8.594   9.610   2.595 -0.2254 -0.2738 -0.0863
18935W        W35119  16.315   3.113   0.018  0.0444  0.1792  0.0937
18936W        W35120  15.786  13.402   0.261 -0.4116 -0.1477 -0.1433
18937W        W35121  10.105  12.565  12.676 -0.1587 -0.2238  0.0925
18938W        W35122   6.765   3.313   2.305 -0.1548 -0.0451  0.0745
18939W        W35123  10.179  11.707  13.756 -0.1902  0.2858 -0.0646
18940W        W35124  11.390  12.393   0.975  0.3930 -0.0630 -0.1229
18941W        W35125   9.308   4.328   0.848  0.3607 -0.4670  0.1417
18942W        W35126  12.444  10.134  15.815  0.0763 -0.0944 -0.0709
18943W        W35127  11.066  15.199   3.063 -0.1727 -0.0482 -0.3172
18944W        W35128  13.458   8.649   1.979 -0.4149 -0.4160 -0.5212
18945W        W35129  17.179  17.527  13.392 -0.1950  0.1046 -0.1716
18946W        W35130  12.057  18.183  12.652 -0.1726 -0.1000  0.2832
18947W        W35131  10.533   8.754   0.750 -0.1845 -0.0658 -0.0085
18948W        W35132   2.479  11.486  12.937 -0.0171 -0.1443  0.1886
18949W        W35133  14.903   2.319   5.178 -0.3473  0.0509  0.0112
18950W        W35134   7.239  15.652   2.990 -0.0399 -0.0573 -0.0729
18951W        W35135   8.330   8.346   3.016  0.2598  0.0073  0.1840
18952W        W35136   2.251   8.375  14.295  0.1234 -0.1736  0.1074
18953W        W35137  15.645   5.413   0.241  0.5207  0.0168  0.0668
18954W        W35138   5.872   4.536   1.101  0.0101  0.3839 -0.0601
18955W        W35139  15.237   8.724   1.066 -0.1696  0.1523  0.2147
18956W        W35140  17.241   6.204  12.231  0.2509 -0.3404 -0.0601
18957W        W35141   7.692   9.380   5.427 -0.0761 -0.4021  0.3420
18958W        W35142   2.615   6.900  15.859 -0.1323  0.0169  0.0156
18959W        W35143  13.973   7.637  13.091 -0.1327 -0.5371 -0.0023
18960W        W35144   5.293   7.639  11.767  0.0078 -0.1484 -0.0307
18961W        W35145  13.493   3.171   5.004  0.0556  0.0959 -0.0577
18962W        W35146   1.678   3.409  10.042  0.0994  0.1800  0.3288
18963W        W35147   0.744  10.977  13.478 -0.0519  0.1380  0.0280
18964W        W35148  14.938   5.028   1.643  0.2327  0.1281 -0.0529
18965W        W35149   9.913   7.140  15.716 -0.1556  0.1054 -0.2055
18966W        W35150  17.004  17.697   2.861 -0.4229 -0.2008  0.1163
18967W        W35151  12.560   2.048   3.723  0.1050 -0.0993  0.2380
18968W        W35152   0.472   5.799   1.536 -0.2321 -0.0882 -0.2567
18969W        W35153   1.914  18.115  15.113 -0.2633 -0.0977 -0.0204
18970W        W35154   8.938  11.763   0.874  0.1328  0.0882  0.2293
18971W        W35155   4.434  15.145   3.594 -0.0945  0.0371 -0.3430
18972W        W35156  14.842  12.733  15.723 -0.2089  0.0319 -0.2030
18973W        W35157   3.019   4.411   0.559  0.3357  0.1918 -0.1446
18974W        W35158   0.671   6.639  11.246 -0.1469  0.0235  0.4772
18975W        W35159  10.597   3.233  14.395  0.0281  0.1054  0.4474
18976W        W35160   5.878  16.410  11.685 -0.4206  0.0708  0.0853
18977W        W35161  14.607  14.108   0.460 -0.1042  0.1787 -0.0368
18978W        W35162   2.967  10.645   4.013  0.0069 -0.1906 -0.3271
18979W        W35163   4.119   2.806  11.236  0.0435 -0.1124 -0.0158
18980W        W35164  10.732  17.745   0.223 -0.0472 -0.0224  0.4190
18981W        W35165  17.383   3.240  11.368  0.2567 -0.0502 -0.3017
18982W        W35166  15.283   4.235  11.290  0.0089 -0.0727 -0.2441
18983W        W35167   8.805   1.571   4.562  0.1282 -0.0723  0.0003
18984W        W35168  13.974   0.692  14.380  0.0706  0.2273  0.2023
18985W        W35169  15.814   6.154  11.659 -0.1885 -0.4338  0.1433
18986W        W35170   9.515  12.248  15.525  0.0353 -0.2291  0.3463
18987W        W35171   1.978   9.604   3.863  0.1607  0.3309 -0.1927
18988W        W35172   5.974   8.637  15.566  0.1036  0.4006  0.0009
18989W        W35173   3.183  11.901   4.576  0.1465 -0.1699  0.0509
18990W        W35174   5.309   7.090  11.410  0.2167 -0.0890  0.0286
18991W        W35175  13.558   5.916   4.807  0.0563 -0.2830  0.0493
18992W        W35176  15.780  16.133  11.445  0.0433 -0.0904  0.0564
18993W        W35177  15.406   4.738   1.337 -0.2566 -0.0599 -0.2226
18994W        W35178   2.597   6.016   4.029  0.0310  0.0640  0.0551
18995W        W35179   0.289  11.760  13.715 -0.2322 -0.3425 -0.0499
18996W        W35180  13.691  12.875   0.720 -0.1676  0.1237 -0.0378
18997W        W35181  11.373   3.638  10.733 -0.0764 -0.0911 -0.4743
18998W        W35182  11.486   5.739   0.709  0.2011  0.0893  0.2568
18999W        W35183   3.104  13.363  11.869 -0.2812 -0.2542 -0.1193
19000W        W35184   9.852  12.886   0.050 -0.0063  0.3893  0.1393
19001W        W35185   1.492   2.927   1.480  0.1734 -0.3564  0.0165
19002W        W35186   0.827   8.621  15.431 -0.2726  0.2148 -0.0806
19003W        W35187   2.883   5.497   0.053  0.1051 -0.2850  0.0322
19004W        W35188   7.314   9.249   1.206 -0.0916  0.0178  0.0452
19005W        W35189   7.028  16.406   3.619  0.1441 -0.2355  0.1452
19006W        W35190   3.152   7.790   4.132  0.1532 -0.1648  0.1476
19007W        W35191   4.599  11.954   2.851 -0.1563 -0.0150  0.0565
19008W        W35192   6.997  13.593   3.973  0.4317 -0.3397  0.1074
19009W        W35193   0.060   4.446  15.225  0.1949  0.4894 -0.0892
19010W        W35194  12.508   6.946  14.184  0.0276 -0.1840 -0.2040
19011W        W35195   9.553   5.845   3.892 -0.2276  0.0136 -0.0956
19012W        W35196   6.286  18.010  11.173 -0.1239 -0.5602 -0.0030
19013W        W35197   9.180   9.419   3.205  0.1851 -0.0777 -0.0244
19014W        W35198   5.793  17.293  12.888  0.0861 -0.0879 -0.2880
19015W        W35199  14.027  11.586   5.939 -0.0507 -0.0955 -0.2273
19016W        W35200   1.911  10.065   1.367  0.1466 -0.0346  0.1099
19017W        W35201   1.474   5.338   2.718 -0.4921 -0.3522 -0.1654
19018W        W35202   0.224   9.237   4.111 -0.3658 -0.1636 -0.1751
19019W        W35203  10.268   1.426  12.533 -0.4154  0.0082  0.1737
19020W        W35204   0.108   0.773   4.155 -0.0441  0.0421 -0.0170
19021W        W35205  14.909  11.450  14.609 -0.0177  0.1888 -0.0704
19022W        W35206  10.301  13.185  11.443 -0.0593 -0.2440 -0.1750
19023W        W35207   5.004  13.343   1.390  0.1261 -0.1169 -0.4546
19024W        W35208   9.163  14.931   4.079  0.1729 -0.0862  0.2095
19025W        W35209  16.853  13.669   0.478  0.1590  0.0198 -0.0746
19026W        W35210   1.910   2.562  15.901  0.1482 -0.4020  0.1332
19027W        W35211  13.891   8.683  11.994  0.0022 -0.1321  0.0642
19028W        W35212  16.268  16.808  10.328 -0.0504 -0.1974 -0.3431
19029W        W35213   1.857   9.071  13.232 -0.1798  0.2009 -0.0686
19030W        W35214   3.247   9.760  12.624  0.0090 -0.3955  0.0593
19031W        W35215   0.701  10.259   0.738  0.0480  0.2507 -0.1737
19032W        W35216   0.579  18.282  12.897  0.2556  0.1364 -0.4655
19033W        W35217   3.492  16.208  14.102  0.1251  0.0573 -0.3122
19034W        W35218  13.248   7.290  16.109 -0.4577 -0.0704 -0.1138
19035W        W35219  12.766   8.607  12.323  0.1036  0.4887  0.3724
19036W        W35220  12.679   6.242   2.936  0.0335 -0.0057 -0.1743
19037W        W35221   8.297   0.432   3.503  0.0442  0.0192  0.0493
19038W        W35222  18.270   3.571  10.867 -0.2216  0.1567  0.0541
19039W        W35223   2.601  17.028  14.051 -0.1104 -0.0643 -0.2174
19040W        W35224  16.105  18.237   5.369  0.2597  0.0650 -0.4032
19041W        W35225   2.962   0.803  14.769  0.0243 -0.0301  0.1397
19042W        W35226   5.578   9.941   4.961 -0.0877  0.1671  0.1357
19043W        W35227  17.508  14.144  15.502  0.2300 -0.2933 -0.0314
19044W        W35228  10.879   5.711  14.549 -0.0936  0.0175 -0.1031
19045W        W35229   0.721  14.774   5.444  0.0436 -0.0103 -0.1693
19046W        W35230   9.882   2.584  10.993  0.1112  0.1750  0.0263
19047W        W35231  16.957   4.881   1.617 -0.1066 -0.1050 -0.2011
19048W        W35232   8.817  12.024  11.032  0.3403 -0.3760 -0.1635
19049W        W35233  13.351   9.737  15.493 -0.1686 -0.0366  0.0534
19050W        W35234   4.541   1.657   1.104 -0.0489 -0.0714  0.0320
19051W        W35235   4.719  17.142  15.455  0.1959 -0.0910 -0.0760
19052W        W35236   8.262  15.065   5.387  0.1299 -0.2284  0.1730
19053W        W35237   4.908   5.954  13.552  0.0732 -0.3178 -0.0672
19054W        W35238  18.319  14.712  11.518 -0.0630  0.4092  0.0076
19055W        W35239  12.353   5.869  14.938  0.1459 -0.2960 -0.0767
19056W        W35240   7.610  16.897  11.994  0.1436 -0.1988 -0.0870
19057W        W35241  10.565  14.467   5.543 -0.0462 -0.0770 -0.2859
19058W        W35242  15.848  17.022  12.521 -0.0266 -0.0817  0.2227
19059W        W35243   0.097  13.835  11.689 -0.2326 -0.1498  0.3272
19060W        W35244   2.163   7.083  11.205  0.1413  0.3525 -0.2867
19061W        W35245  13.194   1.828   3.169 -0.2289  0.0506  0.3134
19062W        W35246  15.143   9.856   3.009 -0.0141 -0.1936 -0.1329
19063W        W35247  14.477  14.771   3.037  0.0483 -0.0812  0.1470
19064W        W35248  11.687   5.316   4.467  0.0311 -0.1099  0.3692
19065W        W35249   7.108  12.378   0.171 -0.0833 -0.2040  0.0565
19066W        W35250  16.020  13.103  12.943 -0.1062 -0.2328  0.0085
19067W        W35251   0.316  13.416   0.612 -0.0587 -0.1645  0.1637
19068W        W35252   4.393  11.455   3.121  0.0898  0.0390  0.1525
19069W        W35253  16.522  15.173  15.747 -0.2715 -0.0976 -0.1322
19070W        W35254   6.779   3.987  12.299 -0.1745  0.0293 -0.0978
19071W        W35255   7.397   6.213   1.125 -0.0043  0.1623  0.0108
19072W        W35256   9.343   2.549  12.633 -0.1639  0.1589  0.0462
19073W        W35257   5.198   9.570  10.873 -0.1678 -0.4771  0.0544
19074W        W35258  13.271  13.229  13.338  0.1451 -0.0513 -0.0717
19075W        W35259  12.600   7.294   3.532 -0.0123 -0.0738  0.0229
19076W        W35260  17.608  11.982  12.794  0.0349  0.1833 -0.0990
19077W        W35261   1.669   7.490   4.864  0.2338 -0.1694 -0.1770
19078W        W35262   7.768  15.715   4.195  0.2323 -0.1649 -0.1330
19079W        W35263  15.995  13.511  12.025 -0.3917 -0.0020  0.2055
19080W        W35264   4.477   5.741  12.118 -0.4405  0.2501 -0.1138
19081W        W35265  13.567  17.387  11.337 -0.3171  0.2879 -0.0286
19082W        W35266  11.597   6.865   5.993 -0.1196 -0.2834 -0.0447
19083W        W35267  16.073  10.603   2.156  0.0470 -0.1048 -0.2942
19084W        W35268  11.973  14.506  12.862  0.1149  0.1435 -0.5634
19085W        W35269   3.765  10.193  13.411  0.1200 -0.4050  0.0661
19086W        W35270   6.564   5.135   0.181 -0.1911 -0.3544 -0.2769
19087W        W35271  17.545   7.226   1.366 -0.0252 -0.3268  0.1207
19088W        W35272   6.804  11.999   1.655 -0.2700  0.1324 -0.3374
19089W        W35273   3.264   7.280  12.567 -0.0482  0.4087 -0.1761
19090W        W35274  12.706   6.344   4.886 -0.3378 -0.0594  0.0055
19091W        W35275  17.462  13.149  11.782  0.1877  0.2368  0.0011
19092W        W35276   8.376   2.199   5.069 -0.2255 -0.2294  0.0743
19093W        W35277   4.299  16.281   4.102  0.0883 -0.2829  0.1901
19094W        W35278   2.505   8.365   5.246  0.4600 -0.1742  0.0373
19095W        W35279   9.961  13.037  14.823 -0.0171 -0.1227 -0.1838
19096W        W35280   0.340   4.430   0.865  0.2925  0.2023  0.0437
19097W        W35281   1.624   0.248  16.031 -0.0806  0.2409  0.0556
19098W        W35282  13.933   6.055  12.478  0.1786  0.2836 -0.3082
19099W        W35283   4.076   4.578   5.296  0.2260 -0.2128 -0.0493
19100W        W35284  14.780  16.901  11.655  0.2358  0.0770  0.2357
19101W        W35285   2.811   7.432  12.516 -0.3735  0.4637  0.0307
19102W        W35286   5.232   4.947  14.811 -0.0314  0.2971  0.0399
19103W        W35287   0.643   5.230   5.339  0.1920 -0.0143  0.0779
19104W        W35288  17.053   8.119   4.915 -0.0402  0.1302 -0.0071
19105W        W35289   8.303   6.531   3.089 -0.0336 -0.2465  0.4099
19106W        W35290  18.082   1.352   5.212  0.2318 -0.3474 -0.2135
19107W        W35291   5.351   8.750  15.119 -0.0127 -0.1484 -0.1316
19108W        W35292   5.137   0.438   3.738  0.0656 -0.1561 -0.1988
19109W        W35293  12.444  15.914   4.966 -0.1730  0.0602 -0.1145
19110W        W35294   9.127   6.157   5.852  0.0088 -0.1017  0.0739
19111W        W35295   8.205   8.918   0.943  0.0659 -0.3403  0.1373
19112W        W35296   8.544   1.946   5.513 -0.0726  0.1003  0.0521
19113W        W35297  16.860  13.095  14.836 -0.0768  0.0920  0.1599
19114W        W35298   0.946  14.672   2.171  0.2226 -0.1910  0.2565
19115W        W35299  14.794   9.783  12.420  0.0871 -0.0081  0.1671
19116W        W35300   6.723   1.633  11.168 -0.0121 -0.4806  0.0757
19117W        W35301  11.773   6.580   4.430 -0.1913  0.4134  0.1978
19118W        W35302  14.221  11.307  14.184 -0.3888 -0.2390 -0.1037
19119W        W35303   3.499   0.512  14.599 -0.1781  0.2335 -0.2504
19120W        W35304  11.230   1.132  14.656  0.2977  0.0483 -0.3840
19121W        W35305  16.207  16.054  12.410 -0.2608 -0.1880 -0.1092
19122W        W35306  16.384   0.010   0.611  0.0706  0.3743  0.0202
19123W        W35307   3.019  18.495   4.076  0.3403  0.0782 -0.3693
19124W        W35308  14.809  14.162   4.097  0.0737  0.3933 -0.0341
19125W        W35309   7.376  11.126   0.354 -0.0773  0.0856 -0.1586
19126W        W35310   6.622  10.459  14.077  0.0299  0.1898 -0.0204
19127W        W35311   7.045  13.938   0.163 -0.1466  0.2802  0.0341
19128W        W35312   1.478  14.214   3.069  0.0082 -0.1167  0.2270
19129W        W35313  17.581   8.998  15.138 -0.0598  0.2496  0.1252
19130W        W35314  12.070  12.911   1.916  0.1627 -0.0157  0.0774
19131W        W35315   5.071   4.388   4.367  0.0169  0.2029  0.2936
19132W        W35316  14.879  14.947   4.629 -0.1865  0.1520 -0.3038
19133W        W35317   0.802   9.243   1.159  0.2104 -0.3197 -0.2677
19134W        W35318  14.368   3.784  15.466 -0.3150 -0.2810  0.0792
19135W        W35319   8.944  12.253   4.870 -0.0235 -0.0054 -0.1357
19136W        W35320  15.416  13.143  15.891  0.0123  0.3770 -0.0477
19137W        W35321   4.593  17.920  11.900  0.1382 -0.0181  0.0887
19138W        W35322  12.628   7.908   3.450  0.3211 -0.0488 -0.1253
19139W        W35323   7.259  12.413  12.621 -0.0253  0.1366  0.1280
19140W        W35324   7.659   3.308   0.860  0.0262  0.0646 -0.0201
19141W        W35325   2.500   8.869  14.493 -0.0142  0.0269 -0.0317
19142W        W35326  17.860  15.660   1.836 -0.1039  0.2505 -0.1966
19143W        W35327   0.788   8.363  15.899 -0.1282  0.1645  0.0267
19144W        W35328  12.212   1.902  11.889  0.1994 -0.1255  0.2502
19145W        W35329   8.162  11.294   5.233  0.0697 -0.0980  0.0285
19146W        W35330  12.752   4.743  12.684  0.1917 -0.1206  0.1182
19147W        W35331   0.269  16.688   4.737  0.0718  0.3205 -0.1779
19148W        W35332  12.040  10.799   2.540 -0.2512  0.0924 -0.0692
19149W        W35333   7.785   2.085  14.385 -0.2634 -0.0072 -0.0642
19150W        W35334   2.960   6.804  13.865 -0.0635 -0.1186 -0.0559
19151W        W35335   4.592   1.747  12.183  0.2984 -0.0806  0.1416
19152W        W35336  16.181  14.017  15.253  0.1744  0.0674 -0.4665
19153W        W35337   4.000   7.071  12.747  0.2848  0.0610 -0.0287
19154W        W35338  18.075   8.321  12.081 -0.3169  0.1919  0.0650
19155W        W35339   6.911  12.762  13.188 -0.0689 -0.0340 -0.2173
19156W        W35340   5.382  17.799  15.281  0.1508 -0.0916 -0.1235
19157W        W35341  11.502   6.234  15.040 -0.3723  0.2284  0.0165
19158W        W35342  12.563   3.012  14.297  0.1714  0.4868  0.0792
19159W        W35343   6.159  13.916   0.069  0.0942 -0.1754  0.0583
19160W        W35344   8.250  17.825   2.345  0.2303 -0.1290  0.2902
19161W        W35345   3.017  11.840   5.940 -0.1630  0.2332  0.1499
19162W        W35346   2.782  15.047   1.810 -0.0676 -0.1953 -0.4232
19163W        W35347  16.217   1.469  13.470  0.0429 -0.1375 -0.2642
19164W        W35348   0.582  13.916  12.699 -0.1782 -0.2570 -0.0424
19165W        W35349  15.860   4.753  11.983 -0.1200 -0.1164 -0.2716
19166W        W35350  14.879  14.757  11.322 -0.0679 -0.1909 -0.0058
19167W        W35351   2.579   6.558  14.080  0.0444 -0.0090  0.0406
19168W        W35352   2.805   6.688   2.377  0.0167 -0.2355  0.2470
19169W        W35353   4.451  13.427   2.103  0.1322 -0.0940 -0.1041
19170W        W35354   9.771  11.497  13.123  0.3414  0.1583  0.1054
19171W        W35355   1.115   5.721  12.178  0.2971 -0.1810 -0.1691
19172W        W35356  15.768   5.683  14.400 -0.0870 -0.1263 -0.0403
19173W        W35357  15.689   9.263   2.476  0.0088 -0.3537  0.0933
19174W        W35358   3.787   3.972  13.672 -0.2955  0.0956  0.2169
19175W        W35359  16.713   4.763  13.588  0.3623  0.1236 -0.0467
19176W        W35360   0.203   8.600   5.278 -0.1513 -0.0194  0.2306
19177W        W35361  13.790  15.519  13.801  0.2123  0.0120  0.5691
19178W        W35362   8.865  18.015  14.567  0.1175 -0.2004 -0.2067
19179W        W35363   3.786   6.128  13.741  0.0734 -0.3054 -0.2958
19180W        W35364   1.897  15.785   6.044 -0.0068  0.0165 -0.1229
19181W        W35365   9.923   3.157  10.980 -0.1279 -0.0305  0.0023
19182W        W35366   8.017   9.896  12.729 -0.0536 -0.1707 -0.1280
19183W        W35367  17.587   9.778  12.274  0.2372 -0.0519  0.2411
19184W        W35368   1.330   3.259  13.195 -0.2149  0.0970  0.0064
19185W        W35369   5.793  18.301  11.317 -0.2726 -0.2527 -0.0318
19186W        W35370  16.230  17.351  12.237  0.1380 -0.0149  0.1306
19187W        W35371   3.026  11.245  11.873 -0.0822  0.0970 -0.0174
19188W        W35372   0.526   0.241   0.351 -0.2674 -0.3095 -0.0789
19189W        W35373   1.356   8.966  11.508  0.2576  0.0100 -0.3375
19190W        W35374  15.948   0.433   2.767  0.0391  0.1060 -0.0199
19191W        W35375  13.530   1.594   4.915 -0.0014 -0.0369 -0.1920
19192W        W35376   7.205   0.888  15.638 -0.2173 -0.1063 -0.2911
19193W        W35377   6.239  17.827   0.948 -0.2560  0.0634 -0.3918
19194W        W35378   2.538   1.714   1.520  0.2178  0.0308 -0.0717
19195W        W35379   0.052  11.995  12.669  0.0335  0.0532  0.2130
19196W        W35380  10.126  16.951  15.989 -0.2425 -0.0699 -0.1623
19197W        W35381   2.703   2.275   0.937  0.0479 -0.1008 -0.1826
19198W        W35382  14.210  16.116   4.970 -0.0336  0.2150 -0.0623
19199W        W35383  13.834  17.262  15.246 -0.1790  0.1560  0.2561
19200W        W35384  17.397   2.990   4.981  0.0637  0.1981 -0.0394
19201W        W35385   2.850  10.051  15.769  0.1425  0.0518 -0.2215
19202W        W35386   9.923  17.284  11.686  0.0622  0.1877  0.2090
19203W        W35387  14.138   3.057   5.523 -0.0454 -0.1472  0.0833
19204W        W35388  10.787   8.548   1.975 -0.1003 -0.0974 -0.0192
19205W        W35389  13.263  13.355  11.882  0.2135  0.2509 -0.1004
19206W        W35390  18.087   4.142  14.112  0.1503 -0.0794  0.1072
19207W        W35391   6.326  15.852  12.297 -0.2554 -0.6290 -0.1085
19208W        W35392  10.403   4.220  12.548 -0.1752 -0.0986 -0.0324
19209W        W35393   1.570   5.190   5.136  0.1589  0.0933  0.0924
19210W        W35394   2.672   5.147  11.980 -0.1135 -0.1078 -0.1382
19211W        W35395   6.412  17.804  14.029 -0.2990 -0.1156  0.1930
19212W        W35396  16.020  13.276   2.155 -0.1379  0.0070  0.0989
19213W        W35397  11.288  13.163  14.100  0.2540  0.1021  0.1944
19214W        W35398  11.766  14.231  11.629  0.1995  0.2132  0.5023
19215W        W35399  15.279  16.540  16.019 -0.3984 -0.0868 -0.2979
19216W        W35400   2.459   8.879  15.559 -0.2921 -0.0024  0.1569
19217W        W35401  13.860  16.314   4.739 -0.0961 -0.0620 -0.2255
19218W        W35402  16.144   3.151   5.506  0.0263  0.2290 -0.1528
19219W        W35403   2.393  12.704   5.042 -0.0097  0.0162  0.0058
19220W        W35404   2.203  14.760  14.194 -0.3140  0.0442  0.2130
19221W        W35405  17.384  12.408   5.385  0.2206 -0.0583 -0.3499
19222W        W35406  12.084  14.318  13.961 -0.2440 -0.1028 -0.3171
19223W        W35407   4.417  17.694   0.237 -0.0715  0.0346 -0.3258
19224W        W35408   3.797   4.290  12.406 -0.1915  0.1409 -0.2476
19225W        W35409   9.077   6.926   1.070  0.0544 -0.0976 -0.1565
19226W        W35410  11.725   2.574  15.787 -0.2548 -0.0384  0.1674
19227W        W35411  10.077  15.932  13.833 -0.0232 -0.1206  0.0716
19228W        W35412   0.003  14.519   3.610 -0.0247 -0.2375  0.1123
19229W        W35413  10.448  15.239   1.217  0.3124 -0.3827 -0.2082
19230W        W35414   4.332   3.822   4.535  0.2564  0.1747 -0.1642
19231W        W35415  15.259   5.016  12.310  0.1391 -0.2005 -0.4045
19232W        W35416  18.211   8.616   3.493 -0.0925 -0.1934  0.2553
19233W        W35417  16.446   6.807   3.782  0.0654 -0.1945  0.3568
19234W        W35418  10.719   2.848  15.653  0.2224 -0.2804 -0.0572
19235W        W35419  14.534  17.160  10.768  0.4132  0.3944 -0.1624
19236W        W35420   6.359  15.523  15.129 -0.0713 -0.4152  0.0024
19237W        W35421  11.537  12.325   2.762 -0.0117 -0.1933  0.2021
19238W        W35422   2.470  11.155  15.016  0.0261 -0.1971  0.3651
19239W        W35423   9.767   6.038  13.764  0.1413  0.4016  0.4124
19240W        W35424   5.860   9.151   5.655 -0.2489  0.3390 -0.1687
19241W        W35425   2.021   6.419   2.146  0.2938  0.1666  0.1542
19242W        W35426   7.971  12.688   4.920 -0.2101  0.1086  0.1190
19243W        W35427   4.473  10.613  12.844  0.2435 -0.1569 -0.0688
19244W        W35428   9.166   2.114  12.684  0.0335 -0.0884 -0.2696
19245W        W35429   8.619  11.086   4.205  0.5932  0.0921 -0.2426
19246W        W35430   7.783   9.683   1.834  0.4505  0.1116 -0.0644
19247W        W35431   0.389  18.318   0.650  0.2625  0.0213  0.1082
19248W        W35432   1.260  15.898   5.191 -0.1493 -0.0761 -0.0021
19249W        W35433   8.814  16.587   2.683  0.3932 -0.3184 -0.0156
19250W        W35434   0.663   2.950  10.777 -0.3024 -0.2761  0.0021
19251W        W35435   7.003  15.581   2.444  0.0029  0.2243 -0.1366
19252W        W35436  12.307  17.867   3.558 -0.2396 -0.0711  0.0462
19253W        W35437   0.328  16.043   0.299  0.1200  0.2272 -0.1207
19254W        W35438   5.701   0.166  14.302  0.2619 -0.1760 -0.0353
19255W        W35439  10.069   4.816  13.689  0.0620 -0.2487  0.0829
19256W        W35440   9.737   4.024  12.910  0.0380 -0.2900 -0.0395
19257W        W35441   6.883  12.514   1.927  0.0740 -0.0967  0.1053
19258W        W35442   4.704   9.873   3.598  0.2583 -0.1632 -0.3801
19259W        W35443  13.964  18.107   4.735 -0.1129  0.2296 -0.2472
19260W        W35444  11.373   6.458   0.181  0.4514 -0.1253  0.3979
19261W        W35445   5.551  18.319  13.392  0.4234  0.1583 -0.2383
19262W        W35446  10.506  15.725  13.284 -0.1874 -0.2131 -0.0409
19263W        W35447  12.933  11.438  12.052 -0.0401  0.0226  0.0027
19264W        W35448  11.900   1.931   0.420 -0.0642 -0.0117  0.0897
19265W        W35449   9.636  15.506   0.157 -0.0930  0.0584  0.0167
19266W        W35450  13.190   3.239  15.599 -0.0884  0.1759 -0.1779
19267W        W35451  17.264  16.122  10.994 -0.1842  0.2216 -0.0956
19268W        W35452  14.786   1.124   3.432 -0.0749  0.1088  0.0387
19269W        W35453   3.992  18.243   3.978  0.2427 -0.1274 -0.1271
19270W        W35454  17.482  18.145  15.793  0.0179  0.0418  0.1268
19271W        W35455  15.354  12.669  13.929 -0.2605 -0.3116 -0.2876
19272W        W35456   0.369   0.158   2.967  0.1308  0.4411 -0.1222
19273W        W35457   6.959   0.737   4.735  0.3134 -0.0813 -0.0834
19274W        W35458  17.267  13.503  12.036  0.0933  0.1848  0.0144
19275W        W35459   3.817  11.585  14.870  0.0392  0.0877 -0.0947
19276W        W35460  15.928   1.203  12.137  0.1560 -0.0114  0.1620
19277W        W35461   8.028   7.558   3.220 -0.0088  0.2164  0.1736
19278W        W35462  15.722   0.151   3.312 -0.0769 -0.2218  0.1386
19279W        W35463   3.980  12.629   5.394 -0.2041 -0.0031  0.1818
19280W        W35464   0.412  13.138   1.507 -0.3086 -0.1523 -0.0369
19281W        W35465   7.884  13.363  12.165  0.1370  0.0116 -0.0072
19282W        W35466  12.893  16.181  12.976 -0.1373  0.1886  0.0837
19283W        W35467  10.261   6.933  14.285 -0.0824 -0.1354  0.5306
19284W        W35468  10.795  15.178  11.121  0.1823 -0.1471 -0.0892
19285W        W35469  18.190  14.579  15.581  0.1683 -0.0569 -0.0234
19286W        W35470   4.667   4.861  13.388  0.0266  0.2169 -0.3012
19287W        W35471   0.691   2.702  14.467  0.0180  0.2655 -0.2605
19288W        W35472  17.104   5.756  15.371 -0.2244 -0.1250 -0.4185
19289W        W35473   3.434  16.458  11.353 -0.0030  0.0894 -0.2178
19290W        W35474  11.729  11.247  10.559 -0.0033  0.0258 -0.2073
19291W        W35475  13.830   9.810   2.211 -0.1329 -0.0612  0.2246
19292W        W35476  13.317  12.402  14.522 -0.2165  0.2992 -0.1096
19293W        W35477  11.759  15.554   4.198  0.0901  0.1707  0.0988
19294W        W35478   4.669   0.075  12.555 -0.0363  0.0019 -0.0502
19295W        W35479   8.712  12.200   1.766  0.0951 -0.1662  0.3016
19296W        W35480  17.821  17.678   3.868  0.1975 -0.1401 -0.1983
19297W        W35481   2.057  15.842   5.357  0.0433  0.1194 -0.0734
19298W        W35482  12.019  14.452   3.914 -0.0111 -0.0017 -0.0234
19299W        W35483   4.008   4.370  11.119  0.0105 -0.3043 -0.0465
19300W        W35484   0.793  16.038   5.401 -0.2810  0.0122  0.1955
19301W        W35485  13.156   0.247  11.615 -0.2441 -0.2112 -0.1204
19302W        W35486  14.486  17.751  14.639 -0.0338  0.0078 -0.1370
19303W        W35487   2.821   7.793  10.971 -0.0839 -0.2132  0.2277
19304W        W35488   6.230   9.563  14.322 -0.0430  0.1087 -0.2275
19305W        W35489  11.041   9.766   5.498 -0.0790  0.1382  0.1091
19306W        W35490   4.784  16.023  11.216 -0.1769 -0.1244  0.2809
19307W        W35491  10.950   4.084  15.356  0.0506 -0.0977  0.0781
19308W        W35492   5.784   8.123   5.665 -0.0686 -0.1005  0.0709
19309W        W35493  11.392   0.720   2.327  0.0958  0.0581 -0.0024
19310W        W35494   8.849  10.027   4.987 -0.0912 -0.1175  0.0744
19311W        W35495   7.663  16.568  15.501  0.1345  0.2981  0.2196
19312W        W35496  17.790   4.564   3.134 -0.0502 -0.0912 -0.1260
19313W        W35497  14.123   7.108   5.037 -0.0530 -0.0360 -0.0974
19314W        W35498  18.476  14.981   1.206 -0.1752 -0.1734 -0.0823
19315W        W35499   5.646  11.795   5.241 -0.3720 -0.1862  0.0650
19316W        W35500  12.067  10.332  12.254  0.1599  0.0188  0.0867
19317W        W35501   4.106   9.457   4.961  0.2655 -0.0459 -0.3545
19318W        W35502   0.524  17.284   3.362  0.0144 -0.0977 -0.2904
19319W        W35503   8.732   3.458  11.080  0.0581 -0.1480 -0.1600
19320W        W35504   6.892  14.423  16.133 -0.0209  0.0548 -0.0376
19321W        W35505  14.452  16.791   4.201 -0.0149  0.2374  0.2271
19322W        W35506   0.602  11.233  15.470 -0.1412  0.1006 -0.4775
19323W        W35507   9.735   9.743  12.853 -0.2024  0.2208  0.0611
19324W        W35508  18.439  11.898  14.008  0.0016  0.2180  0.0066
19325W        W35509  16.177  15.321  15.283 -0.0328  0.0044  0.0958
19326W        W35510   9.420   4.031   3.477  0.0653  0.2719 -0.2049
19327W        W35511   7.296   3.222   3.145  0.3469  0.2256 -0.0188
19328W        W35512   9.038  14.733   5.337  0.0413 -0.4044  0.1755
19329W        W35513   3.084  11.809  14.882 -0.2288  0.1490  0.0615
19330W        W35514  11.749   2.922  15.476  0.0671 -0.0690  0.2728
19331W        W35515   3.105   6.120  11.637  0.0954  0.1544 -0.1029
19332W        W35516   8.086  17.811   4.973 -0.1293  0.0768  0.5033
19333W        W35517   2.902  17.425   1.474 -0.2833 -0.0518 -0.1196
19334W        W35518  17.553  13.744   3.136  0.0511  0.3560  0.1741
19335W        W35519   9.839  14.524  12.443  0.3204  0.1356  0.2019
19336W        W35520   4.602   7.716  13.068 -0.1534 -0.0097 -0.1084
19337W        W35521   4.283   8.279  15.788 -0.2026  0.2258 -0.0642
19338W        W35522   0.824   6.911   2.298  0.1468 -0.2305  0.0514
19339W        W35523   5.876   4.281   6.096  0.2254 -0.0653 -0.1283
19340W        W35524  16.376  18.362  14.340  0.0198  0.2935  0.1085
19341W        W35525   6.022  13.894   4.266  0.0036  0.0809  0.2278
19342W        W35526  13.097   8.330   0.988  0.4100 -0.1519 -0.4521
19343W        W35527   5.165  15.890   4.701  0.1181  0.1851 -0.0628
19344W        W35528   6.933  15.531   3.907 -0.0817  0.1395  0.2923
19345W        W35529   9.867  10.700  16.001  0.0340 -0.3287  0.0029
19346W        W35530   2.586   3.839  12.329 -0.2275 -0.0683  0.0969
19347W        W35531   0.351  16.540  11.710  0.1638  0.1711 -0.3122
19348W        W35532   5.872   1.868  10.991  0.3627  0.2364  0.3155
19349W        W35533   2.510   4.979   0.603 -0.1038  0.0466  0.2566
19350W        W35534   7.894  17.862  11.517 -0.2139  0.1030 -0.1670
19351W        W35535  12.454  13.108  13.854 -0.0540  0.0971 -0.1251
19352W        W35536  13.774  14.175   4.580 -0.0160 -0.1760  0.0387
19353W        W35537  12.180   3.623   2.831 -0.0292 -0.1118 -0.3425
19354W        W35538  14.771   8.189   3.142  0.1565  0.2502  0.1665
19355W        W35539   2.069  17.148  13.348 -0.1495 -0.0922  0.4845
19356W        W35540  11.605   5.571   2.438 -0.0717  0.0161  0.0675
19357W        W35541  18.106   4.508  10.843  0.1633  0.0070  0.2210
19358W        W35542  16.387   0.151  11.658  0.3663  0.0257  0.1556
19359W        W35543   1.960  14.010   4.867 -0.2545 -0.0576  0.2287
19360W        W35544   5.403   3.943   4.653 -0.2063  0.1008  0.0091
19361W        W35545   1.240   1.252   4.002 -0.3128  0.2812  0.1682
19362W        W35546   5.693  11.396  14.873 -0.1580  0.0049  0.1427
19363W        W35547   4.459  13.766  13.379  0.0089  0.1091 -0.1135
19364W        W35548   5.182   6.578  11.397  0.3386 -0.0295 -0.1422
19365W        W35549   3.249   8.133   4.867 -0.1427 -0.2970  0.3691
19366W        W35550  12.129  16.538   5.992  0.2387 -0.1931 -0.2816
19367W        W35551  15.226   1.045   1.243  0.2012 -0.0399  0.3356
19368W        W35552   0.269   5.139   0.186 -0.0486  0.0210  0.2482
19369W        W35553   5.597   1.588  10.389  0.0922 -0.1096 -0.2303
19370W        W35554   6.034   4.524  12.285  0.1259 -0.0763 -0.0313
19371W        W35555   8.948   2.998  12.400  0.4235  0.2223  0.5502
19372W        W35556  10.079  10.744   4.429 -0.1336  0.2340  0.2624
19373W        W35557   5.964  17.213  14.630  0.0548 -0.0475  0.2400
19374W        W35558  16.041  15.373  13.237 -0.0667 -0.1389  0.1064
19375W        W35559   8.637   7.326  16.020  0.3495 -0.7270 -0.3925
19376W        W35560  14.526   6.049   1.433  0.2438 -0.0811 -0.0624
19377W        W35561   9.726   7.159   0.685  0.0674  0.1847  0.0615
19378W        W35562   6.769  17.962   3.111  0.2447 -0.1752 -0.2489
19379W        W35563  16.191   2.092  11.797  0.1844 -0.0347  0.0329
19380W        W35564   2.775  16.052   0.055  0.3786  0.2440  0.0596
19381W        W35565  18.414   0.285   0.373 -0.0335  0.0093  0.2128
19382W        W35566  14.486  14.514  11.051  0.3180 -0.1407 -0.3416
19383W        W35567  16.223   4.454   1.391 -0.1094  0.0297 -0.1800
19384W        W35568  13.442  11.018  15.588 -0.1019 -0.0426 -0.3069
19385W        W35569   1.012  12.774  15.432  0.5327  0.1412 -0.0200
19386W        W35570  14.658  15.714   0.796  0.0267  0.1462  0.0328
19387W        W35571  15.935  17.753  12.178 -0.2945  0.1831 -0.2543
19388W        W35572  13.339  17.862  12.976 -0.0437 -0.2280  0.1443
19389W        W35573   2.197  14.092  13.721 -0.1468 -0.0491  0.0750
19390W        W35574   8.769   1.215   1.686  0.1175  0.0514  0.1085
19391W        W35575   5.411  11.505  13.503  0.1142  0.0554 -0.0285
19392W        W35576  17.553   2.169   1.997 -0.1583 -0.0314  0.0757
19393W        W35577  16.601   7.076  15.910 -0.0050 -0.1107  0.2586
19394W        W35578  13.374   3.690   0.266  0.3241  0.3902  0.1621
19395W        W35579   6.723   1.211   4.702 -0.1442 -0.0969 -0.0126
19396W        W35580   5.364  11.703   0.097  0.2847 -0.5864  0.1591
19397W        W35581   8.082   9.818  14.010 -0.1610 -0.0960 -0.0877
19398W        W35582   5.353   5.305  12.179 -0.1445 -0.2433 -0.2096
19399W        W35583  11.006  11.928  11.216 -0.1699 -0.1806  0.0694
19400W        W35584  15.335   3.626  10.894 -0.0696  0.0461  0.0511
19401W        W35585  17.894  15.380   0.474  0.0002 -0.3163 -0.4325
19402W        W35586   4.765  14.214  12.618  0.1584  0.0376 -0.0135
19403W        W35587   0.935  14.581  13.382 -0.1704 -0.1764  0.0394
19404W        W35588   1.785   6.322   3.664  0.0227  0.2913  0.0795
19405W        W35589   6.007   0.217  11.622  0.1700 -0.3451  0.1100
19406W        W35590   2.808   3.887  11.499  0.2235  0.0037 -0.1033
19407W        W35591  10.530  10.087   5.751 -0.0166 -0.1737  0.1221
19408W        W35592  12.042   7.129  14.007 -0.0279 -0.2655  0.2421
19409W        W35593   5.417   4.833   3.673 -0.0521  0.0410 -0.1179
19410W        W35594   1.982   0.106  15.187 -0.1225  0.3404 -0.1895
19411W        W35595   3.991   0.739  15.299 -0.0421 -0.0508 -0.1356
19412W        W35596  15.475   4.692   6.047 -0.1894  0.0534  0.0480
19413W        W35597   6.312  11.708   2.564 -0.0984 -0.1860 -0.0886
19414W        W35598  14.359  16.444   1.377  0.0725  0.2901 -0.3912
19415W        W35599   4.851  14.109   3.598 -0.0056  0.1187 -0.2223
19416W        W35600   4.707   1.149   6.332  0.2284  0.0720  0.0529
19417W        W35601  11.282  11.279   3.480  0.1345 -0.3307  0.3254
19418W        W35602  15.190   8.223   1.736 -0.4372 -0.1729 -0.0436
19419W        W35603   9.756  12.145  11.721  0.2817  0.0580 -0.1577
19420W        W35604   9.914   3.235   3.310 -0.1907 -0.0678  0.0217
19421W        W35605  10.529  16.750  14.269  0.2510  0.0142  0.0254
19422W        W35606   2.123   7.152  15.920  0.0240  0.0882 -0.1166
19423W        W35607  12.903  14.343  13.527  0.0875  0.3434  0.1697
19424W        W35608  16.847   5.442  15.666 -0.2198 -0.0369  0.2499
19425W        W35609   8.611  13.662   2.900 -0.0384 -0.0817  0.0447
19426W        W35610   2.320   6.350  15.301  0.1172 -0.1719 -0.0740
19427W        W35611   9.374  11.540  14.162 -0.3138 -0.1458  0.0216
19428W        W35612  17.143   7.903   5.757  0.1223 -0.1450  0.0823
19429W        W35613   8.019   7.863   0.546 -0.3961  0.0522 -0.1515
19430W        W35614   2.957  10.869  15.711  0.0206  0.0373 -0.0973
19431W        W35615  14.485   8.384   4.740 -0.0400  0.2580  0.0951
19432W        W35616   3.047   5.384  13.907 -0.3309  0.0715 -0.1151
19433W        W35617   2.204   3.828  14.719  0.3473 -0.0861  0.0258
19434W        W35618   5.349   2.166  15.408 -0.3180  0.0404 -0.0934
19435W        W35619   0.224  18.310  13.833 -0.1876 -0.0790 -0.3040
19436W        W35620   0.425   3.474   5.452  0.1926 -0.0214  0.0195
19437W        W35621   8.212  16.813   1.164  0.0269 -0.0745 -0.2425
19438W        W35622   1.781   3.298  15.105  0.1773  0.0117  0.0882
19439W        W35623   4.432  17.510   1.501  0.0984 -0.1566  0.0225
19440W        W35624  10.189  10.453  12.431 -0.2963 -0.0861 -0.1945
19441W        W35625  16.763  14.137  14.670  0.1054 -0.2599 -0.4072
19442W        W35626  12.060  14.054   5.183 -0.0439  0.0653  0.1120
19443W        W35627   2.935   0.879   0.456 -0.0968 -0.0045 -0.3080
19444W        W35628   6.180   2.319   1.990  0.0779 -0.2151  0.0416
19445W        W35629  18.351   1.820  11.856  0.1482  0.0722 -0.0211
19446W        W35630  14.562   0.708  11.493 -0.1150 -0.0109 -0.4322
19447W        W35631   5.253  15.098  14.286 -0.0413 -0.1343 -0.1080
19448W        W35632  10.276   6.441   0.609  0.1490 -0.1716 -0.2471
19449W        W35633  13.227   2.687   0.309  0.1738 -0.0454 -0.2326
19450W        W35634   4.480   0.142  11.270  0.0184  0.0887 -0.0577
19451W        W35635   7.485   4.861   4.258 -0.0010  0.1150  0.1724
19452W        W35636  18.425   9.598  13.403  0.0494  0.1289  0.1257
19453W        W35637   3.554   7.919   2.388 -0.1015  0.1986 -0.1145
19454W        W35638   2.077  18.323   1.141 -0.1062  0.1505  0.4477
19455W        W35639   2.455   0.810  13.731  0.0309 -0.0470 -0.1088
19456W        W35640  12.112   8.560  11.896  0.1302  0.1075  0.1597
19457W        W35641  16.447  15.917  10.852 -0.1588 -0.0777  0.0919
19458W        W35642  11.735   4.349  15.834  0.0093  0.0095 -0.0021
19459W        W35643   1.369   9.142  16.039  0.1695 -0.1195  0.6977
19460W        W35644  16.299  17.978   1.868 -0.0937  0.2986  0.3836
19461W        W35645  17.033  12.236  13.186 -0.1531  0.4105  0.1492
19462W        W35646   8.249   9.167   1.519 -0.1108 -0.0330 -0.3084
19463W        W35647   7.408   1.939   4.302  0.0333  0.3222  0.0334
19464W        W35648   3.072   9.438  13.825  0.1032 -0.1455 -0.1998
19465W        W35649   9.829   7.657   4.525  0.1352  0.1875  0.1145
19466W        W35650   8.168  10.970   1.340 -0.0591  0.0009 -0.0360
19467W        W35651   1.376   2.059  13.238  0.0271 -0.1416 -0.0999
19468W        W35652   2.421   8.785   2.750 -0.0329  0.3418 -0.1469
19469W        W35653   3.249   1.788   4.277 -0.2062  0.1938  0.0680
19470W        W35654  15.051  12.217  11.347 -0.1704 -0.1095  0.1671
19471W        W35655  14.672   5.413   5.047  0.2024  0.3078  0.1336
19472W        W35656  11.594   2.764  14.147 -0.1276 -0.0509  0.0435
19473W        W35657  11.874  18.391  14.964  0.1570  0.1231 -0.0129
19474W        W35658  12.300   1.901  15.965  0.2226 -0.1633  0.0110
19475W        W35659  18.287   6.015   5.373 -0.1596 -0.2670 -0.3158
19476W        W35660  14.025  12.947   1.471 -0.0446  0.3070 -0.0292
19477W        W35661  10.454  13.403   5.497  0.2141 -0.1171 -0.1057
19478W        W35662  11.250   2.751   1.344 -0.0019 -0.0207  0.0616
19479W        W35663  12.494  18.172   1.907 -0.0665 -0.0942  0.2709
19480W        W35664   2.746   9.620   0.213 -0.1808 -0.0573  0.0354
19481W        W35665   1.776   7.138  10.868  0.1324 -0.0531  0.0406
19482W        W35666   7.449  12.303  11.750 -0.4963 -0.2612 -0.0408
19483W        W35667   1.778  16.772  10.291  0.1580  0.1353  0.2830
19484W        W35668  14.178   5.794  14.532 -0.1310  0.0681  0.0913
19485W        W35669   7.483   5.298   3.731  0.1423 -0.0835  0.0099
19486W        W35670   8.605   6.423  15.737  0.2566 -0.1513 -0.4154
19487W        W35671  17.790   5.325   1.950  0.1894 -0.1603  0.0258
19488W        W35672  10.370  15.676   3.705 -0.3465 -0.2036 -0.4053
19489W        W35673   9.179  11.327   2.695 -0.0523  0.0518 -0.1644
19490W        W35674  16.259   3.514  13.011  0.1033  0.1323 -0.1537
19491W        W35675  12.663   3.477  11.644  0.1226 -0.2073 -0.1931
19492W        W35676   8.425  18.258  15.818  0.0943 -0.0517 -0.1920
19493W        W35677  18.293  10.111  13.676 -0.0692  0.0858  0.0583
19494W        W35678   2.520   6.609   4.191  0.1310  0.2370 -0.0351
19495W        W35679  14.564   4.253  12.749  0.0487 -0.1292  0.3591
19496W        W35680   8.754  13.871  11.580  0.2702  0.0927  0.0668
19497W        W35681   0.106   4.053   3.186 -0.1082 -0.0244 -0.1781
19498W        W35682   9.408   5.704  13.514  0.0246  0.1692  0.1132
19499W        W35683  17.814  14.888  12.483 -0.3016 -0.3321 -0.2125
19500W        W35684  15.145   1.512  15.929 -0.0222  0.1037  0.3274
19501W        W35685  13.447   4.742  15.280 -0.2421 -0.3706  0.0954
19502W        W35686   4.674  11.320   3.936 -0.3215 -0.0450  0.1936
19503W        W35687   6.328   8.963   1.807 -0.0126  0.1283  0.1515
19504W        W35688  16.503   1.922  13.808  0.0581  0.2149 -0.1059
19505W        W35689   7.071   7.899   3.320  0.1761 -0.0269 -0.0550
19506W        W35690  12.587  11.558   4.715 -0.1762 -0.1516  0.0825
19507W        W35691  10.835  11.905  14.336 -0.1203  0.0695  0.1886
19508W        W35692  13.227  15.317  13.731 -0.1334 -0.0302 -0.1518
19509W        W35693   7.094   9.419  15.161 -0.0000 -0.2357  0.0529
19510W        W35694   6.614   6.585  11.009 -0.1706  0.0866  0.0592
19511W        W35695   6.899  17.037  13.411  0.3000 -0.2123  0.3563
19512W        W35696  17.349   0.157  15.941  0.0973  0.1147  0.1768
19513W        W35697  10.683  17.839   3.016  0.1907  0.0721 -0.3622
19514W        W35698  13.320   3.403  13.698 -0.3348 -0.0208 -0.0583
19515W        W35699  11.652  15.235   4.549  0.0438  0.5578  0.1649
19516W        W35700   9.660  15.954  15.924  0.2336 -0.2296 -0.2019
19517W        W35701   7.708  10.574  11.539  0.0343 -0.0640 -0.0429
19518W        W35702   7.507   2.369   2.006  0.0006 -0.1684  0.0565
19519W        W35703  18.442  17.808   0.033 -0.0452  0.2697 -0.0275
19520W        W35704   8.924  13.548  14.497  0.1275  0.0624 -0.1588
19521W        W35705   7.942  14.724   5.671  0.1164 -0.3679  0.0824
19522W        W35706   2.267  14.419   4.998  0.0155  0.3206 -0.0624
19523W        W35707  11.711   8.851  15.587 -0.0706  0.1741 -0.0522
19524W        W35708  16.225   6.193   0.177  0.4673 -0.0781 -0.3847
19525W        W35709   2.878  15.083   4.805  0.1288  0.1759 -0.2098
19526W        W35710   9.693   7.420   3.429  0.1474  0.0971 -0.0793
19527W        W35711   8.735  14.376  15.893 -0.0107 -0.3138  0.2766
19528W        W35712   3.399   8.904  13.113  0.1084 -0.0954 -0.1738
19529W        W35713  18.281  15.242   6.164  0.4380  0.0237 -0.2322
19530W        W35714   8.519  16.986  12.992  0.1622  0.4572  0.1125
19531W        W35715  18.133   5.487  14.732  0.2871  0.0302  0.1297
19532W        W35716  17.098  10.145   3.860 -0.0218  0.3025 -0.2088
19533W        W35717   7.120  12.023  11.506  0.0042  0.0924  0.0073
19534W        W35718   6.118  17.121  15.486 -0.3743 -0.0819 -0.2956
19535W        W35719  14.922  11.299   3.348  0.0302 -0.0462 -0.2049
19536W        W35720   4.137   1.828   3.814 -0.1043 -0.0573 -0.3258
19537W        W35721  14.111   3.258  14.682  0.2524 -0.1985  0.0583
19538W        W35722  13.815  16.516   1.314 -0.0737 -0.1200 -0.0089
19539W        W35723  11.727  12.729   0.077 -0.0637 -0.0716  0.1492
19540W        W35724   1.881   8.131  14.710  0.1050 -0.1810 -0.1224
19541W        W35725   6.570  18.335  12.388 -0.0862 -0.2898 -0.1454
19542W        W35726   8.718   5.855   0.024  0.2601 -0.1786  0.4661
19543W        W35727   6.704  10.251   3.778  0.1494  0.0043 -0.0952
19544W        W35728   9.032  14.770  11.206 -0.2408  0.0207  0.0223
19545W        W35729  16.023  12.168  14.263 -0.4329 -0.1416 -0.1940
19546W        W35730   9.072   6.112   0.236 -0.3057  0.0742  0.1762
19547W        W35731   0.564  13.594   1.460 -0.0147  0.0118 -0.0725
19548W        W35732   6.107  14.605   3.481  0.0589  0.4602 -0.2098
19549W        W35733  17.755  10.970   5.475 -0.1137 -0.1047 -0.0549
19550W        W35734   9.658   1.279   1.487  0.4003  0.0390 -0.0032
19551W        W35735  14.306   8.625   4.337  0.1438  0.0228 -0.0214
19552W        W35736   6.900   8.636   0.538 -0.2834 -0.1406  0.1144
19553W        W35737   8.201   0.486   0.712  0.2482 -0.0442 -0.1718
19554W        W35738   6.287   5.712   5.376  0.0359 -0.1192  0.1993
19555W        W35739   3.253  10.703   1.850  0.2183  0.1228 -0.0970
19556W        W35740  16.668  11.792   3.927 -0.1902 -0.0501 -0.1448
19557W        W35741  14.045  18.204  15.962  0.1190 -0.1472  0.2066
19558W        W35742   1.577  16.815   1.318 -0.2979 -0.4709 -0.0612
19559W        W35743  11.470  10.363   3.230  0.0265  0.2529  0.2506
19560W        W35744  17.974  15.079  15.636 -0.0107 -0.1725 -0.2113
19561W        W35745   9.930  16.786   5.010  0.0590 -0.1405 -0.1401
19562W        W35746   1.760  12.146  11.927 -0.0474  0.0601  0.0590
19563W        W35747   4.773   6.925   0.093  0.0820 -0.4384  0.1582
19564W        W35748   7.380  14.645  15.966 -0.1231  0.0277 -0.1490
19565W        W35749   2.697   5.913  15.972 -0.0253 -0.2534  0.2045
19566W        W35750   6.381   3.837  16.109 -0.5507  0.2420  0.1051
19567W        W35751   9.119   5.209  13.476 -0.1072 -0.0767 -0.1763
19568W        W35752  17.883   4.107   3.849  0.0145 -0.0393 -0.0645
19569W        W35753  15.330  16.877  13.949 -0.2904 -0.5009  0.4000
19570W        W35754   8.835   9.102   0.701  0.4350 -0.0218 -0.1285
19571W        W35755   0.399  11.896  13.157  0.0694 -0.3075  0.0271
19572W        W35756   1.326  18.313  16.045  0.3259 -0.1961 -0.0458
19573W        W35757   0.381  16.468   1.773 -0.2279  0.1995  0.2232
19574W        W35758   8.311   7.431  14.971  0.0360 -0.1683  0.0868
19575W        W35759   4.376   5.570   4.978  0.0295 -0.2061  0.0718
19576W        W35760  17.912  13.650   5.275 -0.1140 -0.0013  0.2423
19577W        W35761   0.676   2.117  13.140  0.0479  0.0276  0.1467
19578W        W35762  13.040  13.738   2.940  0.0514 -0.3662 -0.0196
19579W        W35763   8.084  17.907  13.446 -0.2541 -0.0147 -0.0030
19580W        W35764  10.862   4.070  12.483  0.1319 -0.0753 -0.0113
19581W        W35765   3.197   1.887  14.459  0.0002  0.4087 -0.1369
19582W        W35766   0.985   8.615  11.469 -0.0498  0.1179 -0.0891
19583W        W35767   1.182  16.404  12.181 -0.0087  0.1649 -0.4392
19584W        W35768   4.608   2.888   4.690  0.1424  0.1486  0.0436
19585W        W35769  11.079  14.793   1.323 -0.2184  0.3306 -0.0399
19586W        W35770  11.412  12.606  11.111  0.2836  0.1887 -0.1760
19587W        W35771   9.446   6.369  15.281  0.0744  0.1545  0.1232
19588W        W35772   4.194   8.076   4.962  0.0911  0.3152 -0.0461
19589W        W35773   7.489  13.544  10.393 -0.3047 -0.3080  0.1227
19590W        W35774   2.640  16.643  15.645  0.0508  0.0250  0.1165
19591W        W35775  13.578   0.259   2.407 -0.0385 -0.1571 -0.3552
19592W        W35776   4.892   1.636  11.769 -0.2206  0.1634  0.1469
19593W        W35777  16.891   5.110  14.617  0.1072 -0.2583 -0.1884
19594W        W35778  13.558  15.410  11.394 -0.1247 -0.2694  0.0901
19595W        W35779   4.555  17.084  12.186 -0.1067  0.0518 -0.0892
19596W        W35780  13.431  16.581   0.039  0.1668  0.1095 -0.0233
19597W        W35781   7.728  15.454  13.813  0.2270  0.0132 -0.2772
19598W        W35782  13.154   4.848  12.093  0.0114  0.1820 -0.0422
19599W        W35783  11.775   4.459   3.831  0.1097  0.3554 -0.2573
19600W        W35784  16.020   3.713   4.722 -0.0021  0.5045  0.4585
19601W        W35785   4.837   3.375   3.933 -0.1503  0.0242 -0.1295
19602W        W35786  12.315   7.044   5.544  0.0082 -0.1589 -0.0405
19603W        W35787  16.777   8.259   3.872  0.0280 -0.4799 -0.0144
19604W        W35788  13.620  16.309   1.856  0.2248 -0.0805  0.0437
19605W        W35789   7.368  14.045  14.397 -0.0439  0.2061 -0.0591
19606W        W35790   1.044   8.786   4.429 -0.0189 -0.2835 -0.3315
19607W        W35791  12.603  13.828   5.172  0.0522  0.1427 -0.0659
19608W        W35792   5.214  16.324  15.712 -0.1267  0.1546 -0.0554
19609W        W35793  14.289   4.236  14.535  0.0102  0.1680  0.2135
19610W        W35794   0.694  16.598  10.540 -0.0746 -0.0198 -0.1913
19611W        W35795  15.397   6.055  14.293 -0.0684 -0.2607  0.0396
19612W        W35796   5.571  15.777   0.271  0.0572  0.1094 -0.2174
19613W        W35797   7.754   3.707   1.173  0.0157  0.3157 -0.0951
19614W        W35798   5.790  10.835  12.160 -0.3989 -0.0437 -0.1231
19615W        W35799  10.432  10.005  14.108  0.0798 -0.0646  0.0717
19616W        W35800  11.750   8.880   6.107 -0.2777  0.1003 -0.0230
19617W        W35801   2.520  11.942   0.960 -0.0994  0.0146 -0.1368
19618W        W35802   7.768   5.939  13.137 -0.2630  0.1010  0.0564
19619W        W35803  13.132   1.977  13.514 -0.0901  0.1593 -0.1820
19620W        W35804   9.241  14.672   0.418 -0.1986 -0.0873  0.2558
19621W        W35805   1.612   0.620  14.364 -0.1790  0.0228  0.2370
19622W        W35806   0.793   5.804  10.843  0.1624  0.0127 -0.0046
19623W        W35807  12.602  17.119   1.179  0.1878 -0.2364  0.0832
19624W        W35808   9.171   3.412   5.143 -0.1510  0.0363  0.4593
19625W        W35809   6.608   3.335  13.718 -0.0704 -0.0852 -0.2087
19626W        W35810  15.981   3.341   6.213 -0.0030  0.1432  0.1382
19627W        W35811   6.840  15.954   2.759 -0.0544  0.2974  0.0539
19628W        W35812  10.325   6.933   4.755  0.0172 -0.2456  0.2050
19629W        W35813  16.351  15.008   0.441 -0.0893  0.0225  0.0663
19630W        W35814   6.173  17.983  11.746  0.1836 -0.2800 -0.0647
19631W        W35815   4.607   7.528  14.013 -0.1579  0.0014 -0.0813
19632W        W35816  12.201   2.504  15.910  0.1628  0.1653 -0.1488
19633W        W35817   3.875  17.160  15.416 -0.0487 -0.0264  0.1911
19634W        W35818  10.809   1.525   0.746  0.0190 -0.1216  0.3278
19635W        W35819  12.505  17.826   0.495 -0.2547 -0.1338 -0.0102
19636W        W35820   3.171   7.905  11.920  0.0358  0.4568  0.0141
19637W        W35821  18.334  17.331   5.392  0.1925 -0.2064  0.1917
19638W        W35822  18.486  17.355  15.921  0.0935  0.0591  0.1812
19639W        W35823   2.947  14.235   0.029  0.0245 -0.0109  0.0009
19640W        W35824   4.378  16.764  10.638  0.2303  0.0749 -0.0324
19641W        W35825   2.526  18.432   1.338  0.2993 -0.0705 -0.0500
19642W        W35826   3.778   2.836  13.960 -0.0232  0.0911 -0.3087
19643W        W35827  18.447   7.986  12.252 -0.2040  0.0980 -0.0230
19644W        W35828   9.750  10.269  13.796  0.1744  0.1066  0.0529
19645W        W35829  16.312  11.853   4.843 -0.2024  0.1677 -0.1442
19646W        W35830   1.139   2.440  13.614  0.3159 -0.3580 -0.2196
19647W        W35831   5.417   2.276   4.392 -0.0890 -0.1468 -0.2315
19648W        W35832   3.246   7.238   0.442  0.0851 -0.1196 -0.0574
19649W        W35833  16.948   8.509  11.590  0.0100  0.0425  0.0343
19650W        W35834  16.051  10.509  13.058  0.0949  0.1525  0.1459
19651W        W35835   3.467   6.668  14.345  0.1176 -0.0456  0.3126
19652W        W35836  16.815  13.636  15.848  0.0867  0.4177 -0.1749
19653W        W35837   6.285  16.501   1.134  0.0752  0.1538  0.0026
19654W        W35838  12.627  14.961  13.456 -0.0372  0.0980  0.2758
19655W        W35839   4.371   1.217  12.973  0.1202  0.4103 -0.1830
19656W        W35840  16.455  11.374   3.654 -0.0531  0.0373  0.0917
19657W        W35841   0.477  13.470  11.646 -0.1716 -0.2074 -0.0204
19658W        W35842  14.356  18.378   4.893  0.0717 -0.0275 -0.0169
19659W        W35843  15.425  16.217  13.175 -0.0950 -0.0987 -0.0639
19660W        W35844   4.852  12.588  12.082  0.2357 -0.1019  0.0069
19661W        W35845   1.388   5.238  12.848  0.0702 -0.2451  0.1130
19662W        W35846   1.941   1.764   2.071  0.1361 -0.1174 -0.1019
19663W        W35847   3.643   2.631  12.314  0.2823  0.2480 -0.2685
19664W        W35848   3.052   4.737   2.814 -0.0548  0.2550  0.0309
19665W        W35849   9.885   5.883   1.881 -0.0757  0.5249 -0.0812
19666W        W35850  17.511   4.119   5.421  0.1333 -0.1413  0.1054
19667W        W35851  12.965   7.493  13.473  0.2310 -0.1298  0.2077
19668W        W35852   1.242   9.806  11.845  0.2501 -0.3861 -0.0433
19669W        W35853   5.892  13.496  15.729  0.3919 -0.0016 -0.2243
19670W        W35854  14.625   8.579   3.754 -0.0931 -0.1528 -0.1635
19671W        W35855  12.458   6.018  13.471 -0.2803  0.1891  0.1796
19672W        W35856   4.986   4.899   5.235 -0.3538  0.1953 -0.0854
19673W        W35857   4.208   1.338  12.197 -0.0635 -0.1051  0.0742
19674W        W35858  14.261  15.544   1.464 -0.2889  0.2246 -0.2484
19675W        W35859   0.197   1.120   3.695  0.0274 -0.0655 -0.3512
19676W        W35860  12.292   1.723  15.510  0.2050  0.1873 -0.1212
19677W        W35861   9.121   3.871  14.005  0.3528 -0.0487  0.4775
19678W        W35862   9.146  17.270   5.334  0.1026 -0.0973 -0.0889
19679W        W35863  10.692   8.549  12.544  0.2481  0.1013 -0.1355
19680W        W35864  18.309   6.252  11.770  0.1619 -0.2037  0.0037
19681W        W35865   0.646  11.533  14.416 -0.2021  0.1311  0.3199
19682W        W35866   9.772   1.817   0.106  0.2139 -0.0877  0.0773
19683W        W35867   7.325   6.266   2.026  0.0799 -0.0284  0.0318
19684W        W35868   6.397  12.145   3.033 -0.0618  0.0080  0.0079
19685W        W35869  12.112  17.154   4.993  0.0799 -0.2852  0.0526
19686W        W35870   5.747   0.884   2.558  0.1376  0.0210  0.3754
19687W        W35871   6.173  15.793   5.037  0.1465  0.0800 -0.1261
19688W        W35872  14.979  18.118  15.015 -0.1513  0.0296  0.1826
19689W        W35873  12.726   7.463  11.481  0.1140 -0.1941  0.2555
19690W        W35874   1.453  11.729  14.094  0.0980  0.0623 -0.0916
19691W        W35875   5.524  11.410   4.346 -0.1541  0.3482  0.0416
19692W        W35876  17.803   8.796   5.100  0.0691  0.2095  0.1853
19693W        W35877  11.656   9.440  12.113  0.0041  0.0448 -0.0081
19694W        W35878  10.820   8.065  14.433  0.0773 -0.3016  0.0438
19695W        W35879  13.837   2.070  12.791  0.0446  0.1953  0.1082
19696W        W35880   2.382  16.309  15.881 -0.4006 -0.1748 -0.0477
19697W        W35881  11.272  10.596   2.793 -0.0721 -0.1560  0.2587
19698W        W35882  16.591   6.174   1.013 -0.0515 -0.0633 -0.0171
19699W        W35883   2.173   9.448  12.014  0.1344 -0.0659 -0.0899
19700W        W35884  10.650   9.104   4.886 -0.0944  0.0348 -0.0018
19701W        W35885   3.451  11.337   4.531  0.5158 -0.0437  0.0257
19702W        W35886  12.922   9.962  11.474 -0.3539 -0.1431 -0.0014
19703W        W35887  17.624   0.722   2.966  0.0999  0.0373 -0.0474
19704W        W35888  17.935   6.115   0.685 -0.0448  0.0865  0.0111
19705W        W35889   6.856   3.040   5.092  0.2815 -0.0043  0.1501
19706W        W35890  11.940   3.163   4.091 -0.0837 -0.0523 -0.2272
19707W        W35891  14.814   8.851   2.007 -0.0569 -0.1045 -0.1243
19708W        W35892  10.772   2.322   3.257  0.2627  0.1729 -0.1582
19709W        W35893   5.246  15.356  11.920 -0.0551 -0.2290 -0.1163
19710W        W35894  15.427   6.709   3.277  0.1350  0.1203  0.0945
19711W        W35895   7.681  17.949   0.472 -0.0713  0.0660 -0.1698
19712W        W35896   1.687   7.223   2.406  0.1456  0.3162  0.0211
19713W        W35897   2.095   1.397   3.856 -0.1632  0.1026 -0.5004
19714W        W35898   4.014   3.912   0.462  0.1735  0.1751  0.2124
19715W        W35899  17.825  15.333   4.455 -0.2291 -0.0361  0.4105
19716W        W35900  16.730  13.453   2.775  0.1785  0.0763 -0.0790
19717W        W35901  13.127  17.131  11.165  0.1963 -0.1733  0.4289
19718W        W35902   7.621   2.619   3.903 -0.0600  0.1857 -0.4031
19719W        W35903  11.689  11.068   1.488 -0.0256 -0.2805 -0.4490
19720W        W35904   3.895   2.540   0.594  0.2833 -0.1495  0.0586
19721W        W35905   3.793  17.070  12.366 -0.0510 -0.1393 -0.2870
19722W        W35906   4.840  13.503  15.127 -0.1168  0.2791  0.0728
19723W        W35907  17.870   0.005  14.162 -0.1307  0.1334 -0.1102
19724W        W35908  15.751  10.977   3.059 -0.1444 -0.0263  0.1330
19725W        W35909  18.298   8.569  14.949  0.2777  0.0044  0.1360
19726W        W35910   3.719  17.800  14.394  0.1888  0.0446 -0.0832
19727W        W35911  13.324   8.276  15.782  0.0287 -0.2242 -0.0364
19728W        W35912   4.579   2.582  12.012  0.1145 -0.0995 -0.0451
19729W        W35913   3.932  14.670  14.812  0.1394  0.0257 -0.0665
19730W        W35914  17.542  14.765   1.374  0.0480  0.1642  0.3530
19731W        W35915   3.662   2.704   2.026 -0.2765  0.0245  0.1453
19732W        W35916  14.304   7.787   6.524  0.2140  0.1022  0.0922
19733W        W35917  10.296  10.208   3.247  0.1038 -0.1668 -0.1348
19734W        W35918   1.349   8.649   0.147 -0.1508  0.0207  0.2307
19735W        W35919  17.333   4.599  10.821  0.5251  0.5407  0.0827
19736W        W35920   6.508  11.243   2.736  0.2468  0.1475 -0.0509
19737W        W35921  12.714   9.578   3.611 -0.0509 -0.2596 -0.1275
19738W        W35922   7.195   4.248   4.694  0.0780  0.1259 -0.4047
19739W        W35923   3.254  14.704   1.860  0.0016  0.0894  0.0383
19740W        W35924  13.676   6.397   4.845 -0.0051  0.5121 -0.3740
19741W        W35925  12.311   9.138   0.864  0.0491 -0.3965 -0.0794
19742W        W35926  12.066  10.350   3.115 -0.0666 -0.2445  0.1055
19743W        W35927   1.621   3.446  16.015  0.4115  0.0902  0.0944
19744W        W35928   3.234  13.541  15.066  0.0082  0.0646  0.0158
19745W        W35929  13.636  16.350  14.769  0.1491 -0.1706 -0.0886
19746W        W35930  11.520   6.765  12.275 -0.0539 -0.0431 -0.1321
19747W        W35931  12.723   5.385  13.710 -0.0504 -0.0548 -0.4741
19748W        W35932   1.333   7.684  13.707  0.3865  0.2730 -0.1298
19749W        W35933   9.496   6.296  13.440 -0.1699  0.0408  0.0460
19750W        W35934  16.390   9.390   0.534  0.0515  0.1157 -0.0245
19751W        W35935  15.954  12.737  12.603  0.1384  0.3948 -0.2248
19752W        W35936   2.213  13.996  11.911  0.1580 -0.0738 -0.2239
19753W        W35937   5.535  12.020   2.243  0.0437  0.0736 -0.0102
19754W        W35938   4.921  13.388   1.909  0.0400 -0.0887  0.1045
19755W        W35939  17.756  18.105   4.327  0.2128 -0.0593  0.0187
19756W        W35940   0.141   4.951   2.979 -0.1847  0.0226  0.0305
19757W        W35941   7.471  17.820   3.631 -0.1371 -0.0243 -0.4379
19758W        W35942   5.501  17.406  11.202 -0.0221  0.0990 -0.1578
19759W        W35943   8.289   1.923   1.942 -0.2624 -0.0331 -0.2027
19760W        W35944  16.883  17.689  15.121  0.3019  0.1378  0.3153
19761W        W35945  12.834  13.967  14.547  0.0067 -0.0470  0.0282
19762W        W35946  11.933   5.237   2.680  0.2415 -0.1296  0.1276
19763W        W35947  17.668  12.999   1.846 -0.1455 -0.3325  0.1634
19764W        W35948  12.379  17.453   3.203  0.0394 -0.0124  0.3594
19765W        W35949  14.005  16.531   5.229  0.0859 -0.1180 -0.0215
19766W        W35950   5.260  18.234  11.056  0.2159 -0.3353 -0.2736
19767W        W35951   2.437  13.425  12.282  0.2472  0.1372  0.0474
19768W        W35952   0.031  12.492  16.038 -0.0760 -0.0014 -0.1055
19769W        W35953   7.016   8.405  13.613  0.1224  0.0831 -0.0672
19770W        W35954  17.457  15.179  12.031  0.2230  0.2725 -0.1014
19771W        W35955  12.085   7.022   0.059  0.2247 -0.1145 -0.1529
19772W        W35956  17.530   7.450  13.270  0.2005 -0.2691 -0.2057
19773W        W35957  17.772   1.534   1.205  0.0740  0.2894 -0.3449
19774W        W35958  15.126  16.828  12.684 -0.2397 -0.0449  0.1581
19775W        W35959   4.350   9.663  14.652  0.1440  0.0443 -0.0410
19776W        W35960  15.766   2.306   2.163  0.2417 -0.1854  0.3549
19777W        W35961   1.944   4.726  15.908 -0.0790  0.0146 -0.0617
19778W        W35962  17.180   5.659  13.903  0.3521 -0.3572  0.2546
19779W        W35963   9.041   5.390  12.689  0.1196 -0.3113  0.1348
19780W        W35964  13.998  13.042   2.777 -0.0820  0.3893 -0.3552
19781W        W35965   0.368  18.462   5.182 -0.0442  0.2304 -0.0533
19782W        W35966  14.613   7.202   1.075  0.0775 -0.0272  0.0121
19783W        W35967   6.901   7.045  13.972  0.1625  0.0340 -0.2575
19784W        W35968   0.212  13.879   3.027 -0.0814  0.0213 -0.2288
19785W        W35969  15.221  10.946   3.006 -0.0500  0.0242  0.1694
19786W        W35970  17.677  14.994   3.090 -0.3301 -0.1099  0.0370
19787W        W35971  12.094  11.882   4.664 -0.2660 -0.3959  0.3767
19788W        W35972   3.320   3.144   5.280  0.0940 -0.1876 -0.2072
19789W        W35973   4.786  13.390   0.917 -0.2155 -0.1239 -0.1129
19790W        W35974  16.904   8.452  10.324 -0.1258  0.0239 -0.1882
19791W        W35975   5.163  18.322   0.443 -0.1728 -0.1445 -0.2582
19792W        W35976  18.147  10.807  12.659  0.0781 -0.0758  0.3651
19793W        W35977  17.578  15.727  12.303 -0.3170  0.1228 -0.1661
19794W        W35978   7.717  17.331   3.809  0.0078 -0.0830 -0.2710
19795W        W35979   4.926   7.676  15.846 -0.2180 -0.2949  0.3984
19796W        W35980   0.295   1.858  14.394  0.0429 -0.2626  0.1268
19797W        W35981  14.257  15.612  13.690  0.0642 -0.1893 -0.0301
19798W        W35982  11.779  10.344   2.645 -0.2460 -0.3842  0.1016
19799W        W35983   5.184  15.268   4.112 -0.4051 -0.3079  0.2663
19800W        W35984   7.455  11.399   3.192 -0.3162  0.3214 -0.3179
19801W        W35985  16.549   9.668  10.851 -0.1433 -0.0463  0.1548
19802W        W35986  17.591   3.388   4.058 -0.2612  0.2258  0.0163
19803W        W35987  13.216   2.821   0.796  0.0206 -0.0675  0.0545
19804W        W35988  15.297  10.630   4.315  0.0630  0.1179 -0.3525
19805W        W35989  12.325   6.732   4.253 -0.1335  0.0280  0.1472
19806W        W35990   1.141  15.795  14.751  0.3177 -0.2489 -0.2509
19807W        W35991   8.089   6.508   2.117  0.1762  0.1196 -0.0175
19808W        W35992   3.752  15.681  15.098 -0.1299 -0.0260  0.0946
19809W        W35993   5.791  17.824  12.910 -0.0692  0.0013  0.1583
19810W        W35994  14.547   4.893   4.349  0.1141  0.0936 -0.1928
19811W        W35995  15.684   0.561  11.593 -0.0452  0.1099 -0.0854
19812W        W35996  10.819  16.055  12.910  0.0847 -0.0338  0.0710
19813W        W35997  16.898  10.275   4.319 -0.0564  0.1052 -0.0017
19814W        W35998   9.012   9.597   4.132 -0.0718 -0.1509  0.1845
19815W        W35999  11.759   3.896  13.436 -0.0482  0.0414  0.2852
19816W        W36000   2.400   4.219  11.467 -0.3621  0.1520 -0.0072
19817W        W36001  13.244  15.117  12.181  0.1582 -0.2774 -0.0084
19818W        W36002   6.797   1.449   3.383  0.1926 -0.0302 -0.2640
19819W        W36003   6.991   0.049  15.407  0.3057 -0.0734  0.3217
19820W        W36004   4.267   4.761   2.166  0.0604 -0.0542 -0.2161
19821W        W36005  12.840  17.356   5.338 -0.1312  0.2211  0.1761
19822W        W36006   6.987   6.594  10.622  0.2133 -0.2088 -0.0839
19823W        W36007  10.326  15.098  15.767 -0.1887 -0.3852 -0.2795
19824W        W36008  17.413  15.635  15.930 -0.0750 -0.0918  0.1676
19825W        W36009   3.568  13.158  13.722 -0.0833 -0.1299  0.1370
19826W        W36010   6.810  11.878  13.641  0.2426 -0.0413 -0.0124
19827W        W36011   6.902   8.789  15.686 -0.2073 -0.1939 -0.1653
19828W        W36012  14.161   2.730   2.229  0.2405 -0.0048 -0.5531
19829W        W36013  13.299   2.116  11.568  0.2809 -0.0212  0.4251
19830W        W36014   2.752   4.718  14.640  0.0165 -0.0688  0.0533
19831W        W36015  16.860  10.157   0.482  0.2135  0.0004  0.2167
19832W        W36016   4.850   2.011  12.555 -0.0447 -0.0786 -0.0525
19833W        W36017   6.216   6.392   2.940 -0.2279 -0.1033 -0.2496
19834W        W36018  15.226  10.146   4.804  0.0460  0.2450  0.3004
19835W        W36019  10.333  11.770   1.600  0.2480  0.0359 -0.0310
19836W        W36020  16.582   4.349   0.216  0.3328 -0.0074 -0.0796
19837W        W36021  14.703   4.339  14.149 -0.0118  0.2329  0.1256
19838W        W36022  16.478  14.580   2.186  0.0560  0.0616 -0.1060
19839W        W36023   2.836  10.521   2.793  0.0846 -0.0666  0.0135
19840W        W36024   5.518  15.867  15.364  0.2316  0.3470  0.1633
19841W        W36025  14.918   4.092  13.689 -0.3272 -0.0927 -0.1418
19842W        W36026  11.527   0.464  11.627  0.0906 -0.0235  0.0893
19843W        W36027  15.683   1.565  12.439  0.3579  0.0331 -0.1627
19844W        W36028   2.864  12.925  11.733  0.4789 -0.1735  0.2992
19845W        W36029  12.726  14.089  11.900 -0.0515 -0.1015 -0.0641
19846W        W36030  12.582  12.691   2.746  0.0246  0.0207  0.0627
19847W        W36031  10.964  18.513  15.773  0.2329 -0.1329 -0.0823
19848W        W36032   9.829  15.112  13.709  0.1132 -0.1990 -0.1565
19849W        W36033  17.769   2.256  10.963  0.1520 -0.3376 -0.2200
19850W        W36034   3.531  18.268   2.573  0.0827  0.0704  0.0203
19851W        W36035   1.232   3.748  13.189 -0.2143  0.0643 -0.0482
19852W        W36036   8.720  17.370   1.963  0.1219  0.1334 -0.1459
19853W        W36037   0.929  11.002   0.194  0.1609  0.0631 -0.0840
19854W        W36038  10.498   9.561   1.230  0.0520  0.2914  0.1009
19855W        W36039   0.559  15.239  11.437 -0.1100 -0.0834 -0.0397
19856W        W36040   4.877  13.263  16.000 -0.3948 -0.2076 -0.1957
19857W        W36041   1.423   8.910   3.350 -0.0102 -0.2915  0.0062
19858W        W36042  13.903   9.781  12.696  0.2271  0.1371  0.3526
19859W        W36043  17.145   3.592   3.498  0.1280  0.0224 -0.0010
19860W        W36044   4.425  16.023  13.032 -0.0423 -0.0425  0.1318
19861W        W36045   5.657  13.029   4.598 -0.3654  0.0907  0.0961
19862W        W36046  16.852   8.712  13.858 -0.1138 -0.2431  0.3665
19863W        W36047   0.353   6.788  12.907 -0.2604  0.0850  0.2385
19864W        W36048  14.207   0.911  13.894  0.0868 -0.1182 -0.1619
19865W        W36049  16.476  11.621  13.927  0.1072 -0.1914  0.1295
19866W        W36050   4.527  12.030  13.198 -0.2026  0.0772 -0.1482
19867W        W36051  10.522  10.423   2.380 -0.0511  0.3057 -0.0422
19868W        W36052  10.290   4.253   1.168  0.3025 -0.2275 -0.2713
19869W        W36053   8.269  12.464  13.937 -0.0148 -0.3998  0.1620
19870W        W36054   0.106  12.876  12.352  0.1952  0.0669 -0.1448
19871W        W36055  17.161   2.376  11.261 -0.1612 -0.2082  0.0087
19872W        W36056   4.897   6.299   3.222  0.0207 -0.1952  0.1088
19873W        W36057  13.600  16.121   2.335  0.1360  0.0524  0.0621
19874W        W36058  12.717  10.675   5.768  0.0032 -0.0587  0.4179
19875W        W36059  16.680  12.056   2.495  0.0193  0.2735  0.0647
19876W        W36060  12.700   4.572   1.245  0.0335 -0.1491 -0.0451
19877W        W36061   9.856   9.477  11.371 -0.1537 -0.1246 -0.3745
19878W        W36062   0.205  12.880  13.839  0.0231  0.0615 -0.0653
19879W        W36063  14.953  12.852   3.263 -0.0464  0.0130  0.2631
19880W        W36064   5.821  12.581   0.606  0.3246  0.1259  0.4343
19881W        W36065   6.995  12.514  11.199  0.0506  0.0571 -0.0717
19882W        W36066  16.312  16.950  11.388  0.3473 -0.0731  0.1417
19883W        W36067  16.744  11.274   0.917 -0.0105 -0.1466  0.1437
19884W        W36068  14.418   7.859   4.623 -0.2139  0.0369  0.0021
19885W        W36069   5.734   1.650  14.982  0.1152 -0.3589 -0.2211
19886W        W36070   3.874  13.853   4.767 -0.1161  0.0438  0.0660
19887W        W36071   7.390  11.715  15.793 -0.1444 -0.0593  0.3427
19888W        W36072   8.612  11.707  12.104  0.3080 -0.1480 -0.1558
19889W        W36073  14.575  14.660  11.881  0.2087 -0.1583 -0.1290
19890W        W36074   1.229   0.608   3.271  0.1785 -0.0818 -0.1708
19891W        W36075  16.447  14.506  11.630  0.2782 -0.0654 -0.0638
19892W        W36076  12.257  15.424   5.122 -0.0590  0.0147 -0.1722
19893W        W36077   5.566  10.795  15.888  0.2299 -0.0098  0.0779
19894W        W36078  15.859  16.218   3.665  0.0497  0.3454  0.1323
19895W        W36079  15.000  13.364  14.657  0.0873  0.5607 -0.0352
19896W        W36080   8.659  13.413   3.377 -0.2468  0.1014  0.2449
19897W        W36081   6.462  12.798   1.781  0.1107 -0.0988  0.1050
19898W        W36082   3.154  17.054  13.517  0.3558  0.1755  0.1968
19899W        W36083   3.174   2.867  12.262  0.0358 -0.2481  0.2408
19900W        W36084   6.596   3.418  12.801 -0.1710 -0.0511  0.3774
19901W        W36085   7.627   1.560  14.351 -0.1123 -0.3532  0.2303
19902W        W36086   1.178   7.429  15.754 -0.0576 -0.0569  0.0029
19903W        W36087   5.890  11.597  15.384  0.1359  0.2345 -0.1372
19904W        W36088   9.943   7.074   5.101  0.0151 -0.1702 -0.0097
19905W        W36089  15.127   9.920  16.119  0.1369 -0.0769 -0.1226
19906W        W36090   7.365  17.084   2.823 -0.1536  0.1512 -0.2290
19907W        W36091   8.682  12.108  12.476  0.0463 -0.0075  0.2351
19908W        W36092   0.613   5.708  11.861 -0.0032  0.0698  0.1315
19909W        W36093   0.372   3.475   3.983  0.0967 -0.0217  0.0492
19910W        W36094  12.888   0.824  13.688  0.0464  0.3707  0.3132
19911W        W36095  11.508  18.263  15.933  0.3427  0.0065  0.2553
19912W        W36096  12.084   0.225  15.242  0.1134 -0.4338 -0.1095
19913W        W36097  13.776  14.081  14.916 -0.0644 -0.1303 -0.2056
19914W        W36098   9.030   1.635  13.987 -0.3909 -0.0245  0.1245
19915W        W36099  14.558  15.209  13.668 -0.0282 -0.1008  0.0982
19916W        W36100   0.809  12.711  12.922 -0.3190  0.0079 -0.0840
19917W        W36101  11.719   1.367   1.127  0.1250  0.0555 -0.0659
19918W        W36102   3.018  18.288   3.498 -0.2372  0.0496 -0.2311
19919W        W36103   2.562   3.578  14.387 -0.1253 -0.0326  0.2278
19920W        W36104   8.789  11.020  13.520 -0.1217  0.2767 -0.0166
19921W        W36105   9.738   2.705   0.499 -0.0144 -0.0150 -0.1761
19922W        W36106   7.697  13.246  11.699 -0.1219 -0.0210 -0.0700
19923W        W36107  15.933   2.860   3.517  0.1141 -0.2767  0.0305
19924W        W36108  10.451  12.962  13.293 -0.1997  0.2363 -0.0432
19925W        W36109  12.159  11.367   4.734  0.0607  0.0959  0.2184
19926W        W36110   9.263   3.737   2.155 -0.1855  0.4133  0.0226
19927W        W36111   8.459   7.573   0.517 -0.1637  0.0848 -0.0150
19928W        W36112   3.370  12.300   4.323  0.0114 -0.1263 -0.1157
19929W        W36113   5.195   3.984   2.097 -0.0194 -0.0937  0.1072
19930W        W36114   8.977   7.019  15.191 -0.0876  0.2934 -0.0281
19931W        W36115  15.523  10.124   0.310  0.0780 -0.2304  0.0068
19932W        W36116   5.903   9.433   1.006  0.3244  0.0514 -0.0657
19933W        W36117   7.383   3.336  11.455 -0.0250  0.1695 -0.0021
19934W        W36118  10.406  11.081   0.613  0.0678 -0.1556 -0.0800
19935W        W36119   1.613  16.658   0.482  0.0186 -0.0277  0.1391
19936W        W36120  10.096  17.102   4.568  0.0318  0.0405  0.0249
19937W        W36121  13.479   2.569   2.878  0.2138 -0.0164  0.2087
19938W        W36122  17.635   9.686  13.206  0.2669 -0.0877 -0.0458
19939W        W36123  14.927   4.583   1.418  0.2945  0.1441  0.2402
19940W        W36124   7.232   7.082  13.018  0.0055 -0.2184 -0.0317
19941W        W36125  16.388  17.795  12.408 -0.3186 -0.1358  0.0423
19942W        W36126   6.330  10.268   5.619 -0.2053 -0.0554 -0.1291
19943W        W36127   5.104   1.578  12.306  0.0569 -0.1866  0.1074
19944W        W36128  18.298   8.313   3.093 -0.0548 -0.0392  0.1265
19945W        W36129   5.090   4.347   2.674  0.1940 -0.1030 -0.0159
19946W        W36130  14.196   1.881   2.518 -0.2522 -0.2656 -0.1305
19947W        W36131   2.339  15.367   2.074  0.2011 -0.0536  0.1635
19948W        W36132  11.299   9.692   5.078  0.4208  0.2270  0.0430
19949W        W36133   9.689  11.567   0.444  0.2917  0.0036 -0.2331
19950W        W36134   5.199  16.928  11.151  0.1314  0.1173 -0.1424
19951W        W36135  18.214   5.307  11.013  0.0625  0.2570 -0.0438
19952W        W36136   5.495  13.300   1.901  0.2901  0.1385  0.1816
19953W        W36137   3.409   2.126   0.296  0.1603  0.2289  0.0888
19954W        W36138   2.329   1.230   0.371 -0.2168 -0.1608  0.2821
19955W        W36139   8.645   3.219   1.895  0.0619 -0.2284 -0.1284
19956W        W36140   8.667   2.768   3.130 -0.0712 -0.0064  0.4347
19957W        W36141   4.291  17.522   3.457 -0.0824 -0.0052  0.1406
19958W        W36142  16.815   3.701  13.655 -0.0057 -0.1781  0.2261
19959W        W36143   2.484  11.944  12.544  0.0222 -0.2581  0.3408
19960W        W36144   6.038   0.370  12.242  0.1948 -0.1542  0.1754
19961W        W36145  13.624  17.571   3.733 -0.3422  0.3367  0.3288
19962W        W36146   2.398   4.495  15.840 -0.1121 -0.4110 -0.0296
19963W        W36147  10.691  13.343   5.016  0.2238  0.2022  0.3885
19964W        W36148   0.601   2.425  11.270 -0.2350 -0.0074 -0.1085
19965W        W36149  11.394   7.447  15.853  0.0324 -0.4271 -0.1046
19966W        W36150   7.991   7.726   4.480 -0.1389  0.2521 -0.2990
19967W        W36151   8.648  17.466  14.148  0.1061  0.3008 -0.1196
19968W        W36152   2.882   9.743   5.517  0.0845  0.0132 -0.3365
19969W        W36153   3.097  11.329   3.138 -0.2623 -0.1914  0.0539
19970W        W36154   0.655  17.934   2.569  0.1085  0.1218 -0.0230
19971W        W36155   1.746   9.351   0.839 -0.0248  0.2995  0.0699
19972W        W36156   1.741   1.586   1.615  0.4296 -0.0503  0.0257
19973W        W36157  12.044   4.807   2.516  0.0903  0.1237 -0.3646
19974W        W36158   8.940   0.373  15.676  0.0034 -0.1290 -0.3161
19975W        W36159  15.133   3.068  15.286 -0.1312 -0.0295 -0.1295
19976W        W36160   5.922  18.303   4.702 -0.4195 -0.2328 -0.1345
19977W        W36161   6.533  16.746  15.334  0.4821  0.1141  0.1325
19978W        W36162  17.916   9.294   5.395  0.3973  0.0024 -0.1927
19979W        W36163   5.650   3.714  13.602  0.2184  0.0475  0.0221
19980W        W36164   1.772  13.836  13.871 -0.0170  0.1628 -0.2266
19981W        W36165   5.705  16.452   2.453 -0.2791 -0.0524  0.1198
19982W        W36166  16.666  14.901   2.541 -0.1361  0.1140 -0.1266
19983W        W36167  14.293  14.169   0.104  0.2180 -0.0264 -0.1300
19984W        W36168  17.222   1.118  10.254  0.0233 -0.1404 -0.1019
19985W        W36169  15.485   7.496   2.804  0.0722  0.1496  0.0658
19986W        W36170  15.408  11.408   3.283 -0.1954  0.1495  0.1146
19987W        W36171   2.188   9.188  15.305 -0.2196 -0.0447  0.2530
19988W        W36172  17.878   2.930  14.823  0.0743  0.1039 -0.1147
19989W        W36173  17.570  14.935  15.354  0.0624 -0.1207  0.1655
19990W        W36174  17.862   6.002   5.103  0.0010  0.2740 -0.2742
19991W        W36175  16.569   6.015   0.486 -0.0150  0.0832 -0.3935
19992W        W36176   2.108   9.044  12.731  0.1562  0.2224  0.1762
19993W        W36177  15.503   3.848   2.252 -0.1460 -0.2363  0.0049
19994W        W36178   2.062   5.470   0.425  0.0587 -0.3760  0.2183
19995W        W36179   2.975  11.822   1.203 -0.2913  0.0757  0.1462
19996W        W36180   3.590   5.839  15.032 -0.0022 -0.4528  0.6094
19997W        W36181  15.541   4.259   0.009  0.1904  0.1846 -0.0336
19998W        W36182  18.076   6.211   4.351 -0.1837  0.1442  0.4750
19999W        W36183   1.695  15.152   2.146 -0.0346  0.4900 -0.2326
20000W        W36184  12.011   4.015   3.993  0.0793  0.1017 -0.0876
20001W        W36185  12.307  12.784  12.542  0.2357 -0.2777 -0.1092
20002W        W36186   7.950   7.484  11.450  0.2461 -0.0690  0.1094
20003W        W36187   6.682  12.550   2.992  0.3301 -0.4117 -0.2414
20004W        W36188   4.565  13.920  15.503 -0.1654 -0.0155  0.0357
20005W        W36189   4.277   4.879  11.076  0.2252 -0.3740 -0.0710
20006W        W36190  13.271   4.667  15.745  0.2103  0.2296 -0.5743
20007W        W36191   4.284  18.204   0.449 -0.1280  0.1784 -0.2236
20008W        W36192   4.033  10.432   4.134 -0.3644  0.1620  0.1274
20009W        W36193   5.090  16.876  12.134 -0.0694 -0.0210  0.1117
20010W        W36194  10.264  13.404  13.084  0.0880 -0.4045 -0.0506
20011W        W36195   4.557   6.274   2.112 -0.1612 -0.3231 -0.2086
20012W        W36196   9.644   1.109   6.032  0.1371  0.1852 -0.0509
20013W        W36197   1.293   0.459  14.721  0.0705 -0.1081 -0.2132
20014W        W36198   6.833   1.746  13.741 -0.1154 -0.5346  0.2084
20015W        W36199   9.817  12.021   0.217 -0.0490  0.0350  0.0727
20016W        W36200  12.722  14.684   3.920 -0.0109 -0.3320 -0.0686
20017W        W36201  17.124   4.090   2.019 -0.4424  0.0738  0.2539
20018W        W36202  11.056  18.159   3.326  0.2166  0.3646 -0.1582
20019W        W36203  17.852   3.781   0.753 -0.2298  0.1523 -0.1958
20020W        W36204   5.536  11.075  14.495  0.0069 -0.2930 -0.0855
20021W        W36205   7.666  11.251   2.113  0.0055  0.0232  0.1632
20022W        W36206  12.557  14.274  15.639  0.1369  0.0245  0.2793
20023W        W36207  14.697   8.295   1.465 -0.0408 -0.1198 -0.0674
20024W        W36208   5.666  12.688   3.235  0.1777 -0.3506 -0.0977
20025W        W36209   5.046  17.184   5.084  0.0167 -0.4773 -0.0492
20026W        W36210   2.308  12.888  15.967 -0.0980 -0.4149  0.1572
20027W        W36211   7.080  10.482  10.777 -0.0096  0.1980  0.2220
20028W        W36212  12.356   3.858  11.335  0.0795  0.1422  0.0656
20029W        W36213  10.357  16.518   4.981 -0.4240 -0.1622 -0.0868
20030W        W36214   9.582  18.054   1.806 -0.0451  0.3125  0.1960
20031W        W36215  17.535  13.626  15.240  0.1933 -0.1117 -0.0384
20032W        W36216  11.462  11.640  12.260 -0.1694  0.1466 -0.1192
20033W        W36217  15.681  16.096   1.675  0.1353 -0.1093 -0.1091
20034W        W36218   3.499   5.507  14.096 -0.2750  0.1606 -0.1862
20035W        W36219   9.419   5.877  11.725  0.0108 -0.2641 -0.0511
20036W        W36220  14.718  17.085   1.161 -0.1500  0.0531 -0.0328
20037W        W36221   1.098   1.946   2.341 -0.2415 -0.1014 -0.0636
20038W        W36222  16.284   8.946   0.104  0.0471  0.1389 -0.2800
20039W        W36223   7.516   6.033   4.716  0.1924 -0.2669 -0.0748
20040W        W36224   2.891  18.476  12.023 -0.1738  0.1537  0.1019
20041W        W36225  12.958  17.682   0.658  0.0684 -0.1004 -0.1397
20042W        W36226   5.535   0.445  11.698 -0.1638 -0.3598 -0.0309
20043W        W36227   5.740   0.512   3.051 -0.0945  0.0770 -0.0656
20044W        W36228   8.888   4.223  13.607 -0.0986  0.0095 -0.0542
20045W        W36229  10.778  13.081   2.704 -0.0394 -0.1844 -0.0068
20046W        W36230  10.695   2.874   3.047 -0.2618 -0.0063  0.1207
20047W        W36231  13.884   5.284  15.428 -0.1782 -0.2684  0.0398
20048W        W36232  15.046  15.420   2.798 -0.1102  0.1446  0.0035
20049W        W36233  17.323   0.299   5.072 -0.0049  0.1408 -0.2793
20050W        W36234   1.518   4.892   3.661  0.2676  0.1024 -0.1775
20051W        W36235  15.497  11.381  12.306  0.3194 -0.0921 -0.0838
20052W        W36236  18.469   4.098   5.064 -0.1251  0.3664 -0.1295
20053W        W36237  15.196   1.561  14.583  0.2586 -0.2238 -0.1084
20054W        W36238  18.040   0.068   5.224  0.1882  0.1320 -0.2260
20055W        W36239  12.132  14.376   5.974 -0.0054 -0.4021  0.1681
20056W        W36240   0.787   3.468   3.694 -0.0585  0.3085  0.1134
20057W        W36241   7.926  14.274  15.321  0.2369 -0.3944 -0.0840
20058W        W36242   5.843   5.893   5.184  0.1536  0.0311 -0.0326
20059W        W36243   3.649   0.589  13.029  0.1668  0.1025  0.0338
20060W        W36244   4.005  16.989  15.901  0.1826 -0.3473  0.3430
20061W        W36245  12.779   1.554   2.149 -0.0483 -0.0399 -0.2035
20062W        W36246   0.038   5.598  13.927  0.0560 -0.2092 -0.1239
20063W        W36247   6.851  11.599  14.379  0.3317  0.0059  0.0637
20064W        W36248   1.722  17.499   2.474  0.1044  0.3201  0.2694
20065W        W36249   3.304  17.416  11.493  0.0866 -0.0893  0.0542
20066W        W36250  18.436   1.294  13.863 -0.3075  0.3205 -0.1383
20067W        W36251   4.479   0.445   9.652  0.0915  0.0701 -0.1510
20068W        W36252   0.737  10.888   4.495  0.0518  0.0183 -0.2005
20069W        W36253  16.470  18.129  11.429  0.1897  0.0521 -0.0638
20070W        W36254  11.771   7.662   2.522 -0.0930  0.0859  0.2757
20071W        W36255   3.413   9.264   0.980 -0.1196 -0.0904  0.2451
20072W        W36256   6.233   4.351  11.146 -0.4345  0.0152 -0.1524
20073W        W36257  16.169  16.780  13.026  0.0919  0.4758  0.1094
20074W        W36258   5.352  16.781   0.528  0.0693  0.4173 -0.0523
20075W        W36259   4.348  18.089  16.106 -0.3117  0.0172  0.3447
20076W        W36260  13.296  14.904   0.021 -0.1312  0.2417 -0.0458
20077W        W36261  17.573   1.122  16.134  0.1367  0.0504 -0.0027
20078W        W36262  12.843  14.704  15.689  0.0270  0.2611 -0.0349
20079W        W36263  11.591  12.278  12.995  0.1943  0.1432 -0.2504
20080W        W36264   9.855  16.434   3.444  0.0714 -0.1398 -0.1989
20081W        W36265   6.926   5.739   4.197  0.1737  0.0263 -0.0548
20082W        W36266   9.866   3.490  11.305  0.1798 -0.3171  0.3763
20083W        W36267  17.895   6.180  14.345 -0.0041 -0.1625 -0.0437
20084W        W36268  12.726   7.820   4.903 -0.2259 -0.0947  0.1294
20085W        W36269  18.387  10.259  11.785 -0.1120  0.5304 -0.1025
20086W        W36270   6.520   9.267  14.658 -0.1879  0.0085 -0.0614
20087W        W36271   4.430  11.157  11.080  0.0792  0.0100  0.0501
20088W        W36272   6.314  12.016  13.611 -0.0861  0.1981  0.0529
20089W        W36273   7.777  13.466   1.228  0.0411 -0.2039 -0.2689
20090W        W36274   1.307   4.166   3.555 -0.0995 -0.0530 -0.1777
20091W        W36275   5.080   9.255   5.074 -0.2801 -0.2739 -0.0503
20092W        W36276   2.353   3.766  10.621 -0.0456 -0.0016 -0.0441
20093W        W36277  18.027   0.227  13.115  0.0320  0.0411 -0.1397
20094W        W36278  10.030   4.284  13.770 -0.3310  0.0279  0.2416
20095W        W36279   5.722  18.359  12.943  0.0403  0.1561  0.0584
20096W        W36280  16.593   8.219   1.775 -0.0006  0.1091 -0.2866
20097W        W36281   0.429   6.249  13.375  0.1602  0.2562 -0.3357
20098W        W36282  16.353   7.321   4.814  0.2507 -0.0135  0.1360
20099W        W36283  16.562   8.356   0.861  0.5001 -0.2779  0.0201
20100W        W36284   4.177  17.775  12.265 -0.2381 -0.0096  0.1067
20101W        W36285  14.788  13.473  13.310 -0.0120  0.1624 -0.1138
20102W        W36286  16.984  16.367   5.270 -0.0441 -0.0804  0.4053
20103W        W36287  18.454   6.242   0.066  0.1536 -0.0615  0.5321
20104W        W36288   2.572   6.425  15.782  0.1928 -0.1324  0.0481
20105W        W36289  13.387   5.931  11.613 -0.0402 -0.1576  0.1767
20106W        W36290  13.546   5.138  15.751  0.0851  0.1513  0.1266
20107W        W36291   8.713   5.466   3.445 -0.0477  0.0796  0.0657
20108W        W36292   3.009  11.438  15.929 -0.1966 -0.1605 -0.1055
20109W        W36293  16.573   9.844   2.309 -0.2101 -0.2408 -0.3833
20110W        W36294   8.420   7.057  12.495  0.2877  0.0521  0.1029
20111W        W36295  13.764   9.838  14.586 -0.1917  0.1069  0.0552
20112W        W36296  16.347  16.345  12.833 -0.0501  0.1003  0.3361
20113W        W36297   7.182  15.165  11.601  0.1601  0.0013 -0.2058
20114W        W36298   7.842   2.376  12.045  0.1857  0.1220 -0.0916
20115W        W36299  16.947   2.290   3.164  0.1474  0.0275  0.0062
20116W        W36300   9.522  13.713   4.413 -0.2446  0.0538  0.0963
20117W        W36301   9.661  12.891  14.294 -0.1284  0.1722  0.1229
20118W        W36302   8.457   7.515   4.646  0.2747 -0.1301  0.2429
20119W        W36303   2.124  14.369  15.872  0.2758  0.3087  0.2222
20120W        W36304  13.073   2.591  13.140 -0.0110  0.0354  0.1137
20121W        W36305   6.557  11.444   0.675 -0.1496  0.1170  0.3135
20122W        W36306   8.836  16.809  15.007  0.0790 -0.2299  0.3269
20123W        W36307   9.932   3.859  14.092  0.0338  0.0058 -0.0414
20124W        W36308  16.634  12.754  11.288 -0.0381  0.2670 -0.1551
20125W        W36309  13.018  10.329   3.143 -0.2624  0.2425 -0.1646
20126W        W36310   6.884   1.109   0.421  0.0966 -0.3796 -0.1323
20127W        W36311   9.655  18.028   2.791 -0.0858  0.0471  0.0244
20128W        W36312   3.703  12.494  13.624 -0.3261  0.1119  0.0276
20129W        W36313  17.938   6.142  12.136 -0.0667 -0.1780  0.2044
20130W        W36314  14.038  14.785  15.693  0.1890 -0.0903  0.1131
20131W        W36315  17.532   0.890  10.592  0.1371  0.1330 -0.0235
20132W        W36316   0.840  13.961  15.544  0.3664 -0.0516 -0.0533
20133W        W36317  12.401  10.702  10.353  0.0175  0.1621 -0.0198
20134W        W36318   6.799   6.596  12.303 -0.2656  0.0094 -0.1555
20135W        W36319   3.228  16.962   2.757 -0.3916 -0.1697 -0.1780
20136W        W36320  13.151  17.741   5.302 -0.0150 -0.1643 -0.2331
20137W        W36321   9.034   0.038  11.721 -0.0513  0.1156  0.1163
20138W        W36322   9.563   5.389   1.916  0.1435  0.2211 -0.2621
20139W        W36323   2.186  15.493  16.136  0.0013 -0.2691  0.1775
20140W        W36324   0.608   7.443  14.118 -0.0595  0.1136 -0.1085
20141W        W36325   3.437  15.288   4.053  0.2209  0.1139  0.0992
20142W        W36326   2.983   0.096  14.788  0.0847 -0.0829 -0.0399
20143W        W36327   3.159   0.800  11.205  0.0644  0.2413 -0.2884
20144W        W36328  16.424  10.347   1.808  0.1094  0.1083 -0.1340
20145W        W36329   2.719   2.073  13.080  0.0283  0.3482  0.1545
20146W        W36330   2.060  17.764  14.015 -0.0952 -0.0181  0.1613
20147W        W36331   2.926  11.326  14.923 -0.4532 -0.0145 -0.1925
20148W        W36332  12.805  15.309  12.612 -0.1559 -0.1018 -0.0351
20149W        W36333   1.132   0.733   2.829  0.0521 -0.2657 -0.3257
20150W        W36334  15.265   9.762   1.327 -0.3694  0.0617 -0.0776
20151W        W36335  17.791  11.844   4.810 -0.0741 -0.0505  0.1922
20152W        W36336   8.880   8.141   2.413  0.1580  0.0080 -0.1000
20153W        W36337   2.935  13.742  12.378  0.0240 -0.1701  0.3788
20154W        W36338  14.961   4.070   4.562 -0.0528  0.1310 -0.1519
20155W        W36339  13.447   6.253  12.649 -0.0773  0.0243  0.0900
20156W        W36340   4.955   8.748   3.115  0.2034  0.0974 -0.0777
20157W        W36341  18.331  17.364   0.282  0.1956 -0.1531 -0.0708
20158W        W36342  14.012   0.327  12.135  0.1416 -0.0108  0.0733
20159W        W36343   5.334   3.899  16.044 -0.2581 -0.1977 -0.0198
20160W        W36344   6.937   8.767  13.244 -0.0165  0.0846  0.3212
20161W        W36345   3.448  17.800  15.307 -0.0443  0.0121 -0.5058
20162W        W36346  15.998   0.775   3.121  0.2623  0.3415  0.0669
20163W        W36347  13.547   8.096  13.904  0.0221 -0.0230 -0.2731
20164W        W36348  13.100  13.355   4.830  0.0934  0.0679 -0.1782
20165W        W36349  13.061   1.232   4.815 -0.0543 -0.0770  0.0681
20166W        W36350  15.931   3.758   3.834  0.1115  0.1995  0.1528
20167W        W36351   2.440   1.998   2.877 -0.3596 -0.0743 -0.3865
20168W        W36352  10.791  15.348  13.459 -0.2248  0.2759 -0.3032
20169W        W36353  17.617   9.959  14.760 -0.0498  0.1842 -0.2680
20170W        W36354   2.175   7.840   0.315 -0.3710  0.1273  0.2187
20171W        W36355   4.380  10.807   3.296  0.1776  0.0628  0.2644
20172W        W36356  15.562   1.422   1.145  0.1788  0.0846 -0.0534
20173W        W36357  17.343  14.491  14.089 -0.3293 -0.0593 -0.1489
20174W        W36358   3.399  17.549  14.057 -0.1091  0.2512  0.0635
20175W        W36359   4.305  16.565   3.241 -0.0861 -0.0686  0.2595
20176W        W36360  17.036   7.868   3.512 -0.0010  0.1833 -0.0250
20177W        W36361   8.112   2.779  11.255  0.3072 -0.0075  0.0203
20178W        W36362  18.006  10.416  10.449 -0.0566 -0.2810 -0.2119
20179W        W36363   2.738   5.422   2.727 -0.1153  0.1110 -0.0632
20180W        W36364  14.948   8.904  12.491  0.4082  0.0648  0.1295
20181W        W36365  13.860  17.460   1.091 -0.0612  0.1710 -0.0252
20182W        W36366   6.173  10.569   1.583 -0.2091 -0.0327  0.3222
20183W        W36367  14.100   4.778  11.381  0.3177 -0.2101 -0.1191
20184W        W36368  17.731   5.130   0.896 -0.1239  0.1204  0.1067
20185W        W36369  17.863  12.600  13.854  0.1807 -0.2937 -0.0048
20186W        W36370   7.859   7.084   4.368 -0.0531  0.1015 -0.0644
20187W        W36371  12.938   4.267   5.763  0.0170 -0.3941  0.0304
20188W        W36372   9.939  14.349  13.523 -0.1995 -0.0607  0.3409
20189W        W36373  14.009   1.220   1.423 -0.2457  0.0158 -0.0743
20190W        W36374   7.077   2.532   0.079 -0.1260 -0.0703 -0.0632
20191W        W36375   2.760   2.858   0.291  0.2090  0.0092 -0.0053
20192W        W36376  12.570  11.613  16.033 -0.0025  0.1377 -0.2355
20193W        W36377  14.493  16.484   0.372 -0.2692  0.0908  0.5091
20194W        W36378  16.107   9.867  12.073 -0.1628  0.0951  0.0477
20195W        W36379   8.584   6.032  14.777 -0.0789 -0.1074 -0.1805
20196W        W36380   6.354   6.841   2.752  0.0726  0.2058 -0.1251
20197W        W36381  13.392  11.536   1.044 -0.2911 -0.0299 -0.2718
20198W        W36382   8.438  18.213   1.007 -0.4502 -0.1117 -0.0923
20199W        W36383  15.865   0.380   1.811 -0.0290  0.1004 -0.1682
20200W        W36384   3.617  11.636   3.119  0.1358 -0.3766 -0.0672
20201W        W36385  15.720   9.287   3.682 -0.1043  0.2239 -0.0891
20202W        W36386   8.611   8.793   3.018  0.1274 -0.2470  0.0687
20203W        W36387   8.103   4.440   3.875 -0.0526  0.0417  0.0854
20204W        W36388   1.497   2.352  12.786 -0.1434  0.0541 -0.2362
20205W        W36389  12.061   3.866  12.618  0.0035  0.1156 -0.3792
20206W        W36390  10.753  18.435   0.987  0.3356  0.1553 -0.0576
20207W        W36391  10.590   1.118  12.120  0.1861  0.2815 -0.1881
20208W        W36392   1.157   5.282   3.561 -0.1950  0.0275  0.0087
20209W        W36393  14.322  17.868   3.113 -0.1638 -0.0486 -0.1433
20210W        W36394  16.658   1.961  12.076  0.1671  0.2709 -0.1053
20211W        W36395   3.659   5.205  15.674  0.2311  0.2845  0.0242
20212W        W36396   7.609  10.445  15.811 -0.1500  0.1707  0.0716
20213W        W36397  12.930  15.052   2.282 -0.5285  0.3583 -0.1838
20214W        W36398   7.341   6.920  13.473 -0.1057  0.1632  0.1877
20215W        W36399  12.234  11.233   3.469  0.0645 -0.1867 -0.0359
20216W        W36400   1.700   2.421  15.505  0.3853 -0.2447 -0.0155
20217W        W36401   3.242  10.875   4.707  0.1821  0.3594 -0.1032
20218W        W36402   2.961   9.169  14.252  0.2519  0.4386  0.0951
20219W        W36403   9.321  13.140   4.024  0.0418  0.0473  0.1447
20220W        W36404   5.930  11.926  11.709 -0.2918  0.1111 -0.0394
20221W        W36405   0.263   7.155   0.121 -0.2517  0.2940 -0.0529
20222W        W36406   7.870   5.115   3.356  0.4057  0.1126  0.1762
20223W        W36407  16.197  11.500  15.840  0.3305 -0.0730  0.2606
20224W        W36408  11.579   5.335  14.002  0.2229  0.1317  0.3257
20225W        W36409  13.108   1.387  14.303  0.2019  0.0132  0.1096
20226W        W36410   8.123   7.923   0.001 -0.2506 -0.1331  0.2326
20227W        W36411  13.896  11.521  12.506  0.2797  0.1345 -0.0966
20228W        W36412   8.313   0.651  13.241  0.2545  0.1493 -0.2002
20229W        W36413  16.227  13.728   4.820 -0.1252  0.0983 -0.0022
20230W        W36414   9.106   8.279  11.531  0.3121  0.1112  0.0627
20231W        W36415   5.116   1.056  10.976  0.0396 -0.0837 -0.0592
20232W        W36416   0.065  15.888  12.629 -0.1187  0.4324 -0.0272
20233W        W36417  10.091  15.475  13.468 -0.2303  0.2248  0.0310
20234W        W36418  12.861   0.938   0.462 -0.1484 -0.1178  0.2098
20235W        W36419   1.186   8.494  13.318 -0.0123  0.0601  0.5892
20236W        W36420   9.691   9.574  14.630  0.3515 -0.0111 -0.1343
20237W        W36421  15.262   2.819   0.099  0.0389  0.0247  0.1154
20238W        W36422  17.591   3.631   2.928  0.0298  0.0096  0.1683
20239W        W36423  16.667  17.793   2.142  0.3794  0.2540 -0.0353
20240W        W36424  17.884   6.447  12.494  0.2249  0.0755 -0.2355
20241W        W36425  12.653  10.772   1.390 -0.0343  0.2074 -0.1513
20242W        W36426   3.281   0.493  12.534  0.2614 -0.2712  0.0903
20243W        W36427  15.226   7.242  12.975  0.2222 -0.1931  0.0735
20244W        W36428   4.458  15.961   3.684  0.0478  0.3306  0.2802
20245W        W36429   0.008   1.752  15.326  0.0366  0.0872 -0.2270
20246W        W36430  11.807   7.722   5.150 -0.0321  0.2229 -0.0439
20247W        W36431  17.158  17.044  10.975  0.3216 -0.1490 -0.2064
20248W        W36432  10.371   8.043  15.810 -0.2931  0.2888 -0.3211
20249W        W36433   7.539   0.718   4.529 -0.0642 -0.0091  0.0468
20250W        W36434   7.924   0.882   2.567  0.0855 -0.0667 -0.0615
20251W        W36435   4.390  16.329  14.834 -0.1086 -0.2055 -0.0772
20252W        W36436   5.153   6.591   5.111  0.0898  0.0588 -0.0197
20253W        W36437   5.643   7.540   3.146  0.1967 -0.2891  0.0537
20254W        W36438   1.028   0.916  12.417  0.0736 -0.0105 -0.0340
20255W        W36439  12.146   6.116   1.889  0.0721 -0.1738 -0.0880
20256W        W36440   2.878   1.296  14.887  0.0180 -0.1706  0.0366
20257W        W36441   5.268  10.565   0.481 -0.2198  0.1567  0.0908
20258W        W36442  16.690   7.824  14.812  0.0217 -0.3890 -0.0454
20259W        W36443  13.653   9.070   3.830  0.2240  0.1689  0.1775
20260W        W36444  16.336  13.810   2.964 -0.3719 -0.1918  0.0777
20261W        W36445  14.865  14.474   1.318  0.1242 -0.2110  0.4491
20262W        W36446  17.475   4.678   4.474  0.0286 -0.0313 -0.0449
20263W        W36447   3.744  14.038  12.604 -0.0980  0.0026 -0.2748
20264W        W36448   4.877  11.182   2.939 -0.3817  0.1772 -0.3134
20265W        W36449   1.747   6.077  14.567 -0.0522  0.0019  0.0788
20266W        W36450  15.143  14.885  13.100  0.0648 -0.0243 -0.0387
20267W        W36451  17.788  10.760   6.041 -0.0141  0.1993 -0.2079
20268W        W36452   6.591  14.679  11.882 -0.1875  0.0913 -0.0676
20269W        W36453   4.746   6.517  13.645 -0.0075 -0.0155  0.3465
20270W        W36454  13.280   7.291  12.599  0.3269  0.1378 -0.1255
20271W        W36455   8.479  14.077  14.619  0.0216  0.1947  0.0566
20272W        W36456   1.569  12.155   0.953 -0.1458  0.1466 -0.0951
20273W        W36457   3.134  15.551  12.095 -0.0803 -0.2312 -0.0367
20274W        W36458  13.191  17.888   3.738 -0.1123 -0.1690  0.1799
20275W        W36459   0.217   8.816  15.112  0.0482  0.1446  0.0871
20276W        W36460  11.327  10.496  10.671 -0.0626  0.2862 -0.0884
20277W        W36461   4.864   8.118   2.464 -0.1455 -0.2565 -0.4799
20278W        W36462  16.029  15.150  13.718 -0.0876 -0.0777  0.0480
20279W        W36463   2.779   5.327   2.257  0.3275 -0.1702  0.1175
20280W        W36464  15.572  14.658   2.986 -0.2038  0.0430  0.1912
20281W        W36465  12.399   5.028  12.916  0.1790 -0.0054  0.1565
20282W        W36466   2.926   3.126  14.225 -0.3270  0.2065 -0.0551
20283W        W36467   5.803  14.080  15.453 -0.0862 -0.1398 -0.1716
20284W        W36468   2.613  12.113  14.810 -0.0236 -0.0155  0.0777
20285W        W36469  12.627   7.338   5.219 -0.4267 -0.0588 -0.1454
20286W        W36470   2.157   5.939   5.508 -0.2251 -0.3442  0.1757
20287W        W36471   4.613   6.850   0.606 -0.0671  0.0221  0.0245
20288W        W36472  11.984  17.240  12.744 -0.0980  0.0682 -0.4435
20289W        W36473  15.808   6.524  13.656 -0.1149  0.3570 -0.1610
20290W        W36474   0.891  17.331  15.783  0.2456  0.0545 -0.2478
20291W        W36475  16.052   2.788  15.794  0.1852  0.0835 -0.3822
20292W        W36476  16.870   2.152   4.902  0.3879  0.4129 -0.1725
20293W        W36477   4.293   6.440   4.061 -0.1902  0.0389 -0.0993
20294W        W36478   3.141  14.456   1.277  0.0500 -0.1810  0.0019
20295W        W36479  15.478   1.348   2.960 -0.1910 -0.0471 -0.3544
20296W        W36480   0.735   4.603  14.685 -0.2528  0.0368  0.2678
20297W        W36481  13.330   6.462  11.414 -0.1127  0.0136  0.1124
20298W        W36482   8.877   4.175   4.686 -0.1538 -0.4318 -0.0204
20299W        W36483  18.261  17.077   4.381 -0.1047 -0.3302 -0.0043
20300W        W36484   4.175  12.372   4.025  0.0864  0.2318 -0.0479
20301W        W36485   9.816  11.899  15.837 -0.0778 -0.1647 -0.1872
20302W        W36486   3.088  14.719  12.312  0.4245  0.1982 -0.1752
20303W        W36487   7.114   2.852   4.736 -0.1013  0.2363  0.1104
20304W        W36488   4.230  11.985  14.659  0.0873  0.0800 -0.1679
20305W        W36489  10.546  15.303   3.363 -0.1813 -0.1855  0.0993
20306W        W36490   8.192  13.817   3.912  0.1182 -0.1591  0.0005
20307W        W36491   0.468  13.339   4.236 -0.0750  0.0834  0.1568
20308W        W36492   1.628   6.248  14.059  0.1808  0.2432  0.0833
20309W        W36493   8.362   9.107  12.781 -0.1384 -0.2531 -0.1671
20310W        W36494   7.111   4.589   4.258  0.2562 -0.0114 -0.2421
20311W        W36495  14.630  11.915  11.444  0.2951  0.0415 -0.0419
20312W        W36496  14.736   7.080   3.651 -0.3014  0.1020  0.2430
20313W        W36497  16.824   2.394  11.874  0.0222 -0.1712 -0.1070
20314W        W36498  14.801   1.890   1.205  0.0201 -0.0101  0.0027
20315W        W36499  17.850  11.690   3.561 -0.1386  0.0635 -0.1048
20316W        W36500   5.599  17.905   2.180  0.1779 -0.0288  0.2176
20317W        W36501   3.262  17.411   3.263  0.1837 -0.1732 -0.1686
20318W        W36502   6.206   5.027  13.680 -0.0097  0.1169 -0.1897
20319W        W36503   9.408  11.125  15.062  0.2850 -0.0685  0.0160
20320W        W36504   1.510   6.772   0.961  0.1012  0.0204 -0.0415
20321W        W36505   5.310  12.514  12.202 -0.0075  0.1592 -0.0606
20322W        W36506   3.623   8.754   4.182  0.2588  0.0241  0.1017
20323W        W36507  12.779  18.450   1.571 -0.0552 -0.0190 -0.1909
20324W        W36508   2.185  17.457  12.080  0.0773  0.0437  0.2425
20325W        W36509  12.253  14.688  13.229  0.1197 -0.2534 -0.0921
20326W        W36510  11.007   3.515  15.250 -0.0291  0.1340  0.2723
20327W        W36511  11.075   7.099  12.608 -0.0736  0.0575 -0.1286
20328W        W36512  12.185  12.838  15.179 -0.0878  0.0358 -0.1667
20329W        W36513  10.362   2.758  14.745  0.1484 -0.0683 -0.2050
20330W        W36514   3.881   9.421  13.806 -0.0176  0.0139  0.1105
20331W        W36515  18.343  11.166  14.515 -0.3505  0.0965 -0.0807
20332W        W36516   4.607  10.097   4.589  0.0959 -0.1049  0.0986
20333W        W36517   1.388   2.171  14.428  0.0585  0.3873 -0.2593
20334W        W36518  17.259   0.659  16.027  0.2910 -0.2787 -0.3810
20335W        W36519   8.882  13.618   2.482 -0.0787 -0.1069 -0.0462
20336W        W36520  11.450  10.457  13.204 -0.1394  0.1634  0.1965
20337W        W36521   5.174  11.142   3.992 -0.0104  0.2977  0.3810
20338W        W36522   3.413   1.074  13.930 -0.0800 -0.0392  0.2763
20339W        W36523   7.925  11.103  12.697  0.1663  0.2166 -0.1664
20340W        W36524   4.406  12.787  15.240  0.1659  0.0747  0.0145
20341W        W36525  18.380  17.189  14.577 -0.0974  0.2177  0.0511
20342W        W36526  13.342  10.360  12.422 -0.0414 -0.0275 -0.1183
20343W        W36527  16.382   5.910  14.812  0.2095  0.0376 -0.1634
20344W        W36528  10.117   0.195   4.492  0.0136 -0.2953  0.1421
20345W        W36529  14.707   9.238  14.547 -0.2388 -0.3380  0.1443
20346W        W36530  10.322   7.337  14.868 -0.1512 -0.0035  0.1757
20347W        W36531  13.610   6.462   3.384  0.0608  0.1926  0.0200
20348W        W36532   1.184   3.190   2.415 -0.0318  0.1915 -0.2345
20349W        W36533   5.514   5.330   4.619 -0.2610  0.1925 -0.1610
20350W        W36534   2.905  11.459   5.228 -0.3329  0.0823  0.0691
20351W        W36535   3.788   9.043  11.978  0.0745  0.0160 -0.1099
20352W        W36536   1.544   6.513   4.888 -0.0991  0.1167 -0.0036
20353W        W36537   9.648   1.817   4.280 -0.2752 -0.1178 -0.1691
20354W        W36538  15.644   4.433   3.189 -0.0833 -0.2017 -0.1764
20355W        W36539  13.292  15.008  11.235 -0.0983  0.1636 -0.0254
20356W        W36540   2.414  11.132  13.892  0.4163  0.0997  0.4048
20357W        W36541   3.983  11.332  11.904 -0.4676 -0.0618  0.0761
20358W        W36542  11.430  11.106   2.770  0.1247 -0.0627  0.5435
20359W        W36543  17.531  17.914   3.256 -0.2269  0.3048  0.2594
20360W        W36544   5.065  17.581   3.305 -0.0298  0.0286  0.1085
20361W        W36545   8.755   5.307  12.226 -0.0489  0.4104 -0.0412
20362W        W36546  17.009   9.640  12.515 -0.1154  0.0516  0.1509
20363W        W36547  18.218  11.573   1.314  0.1358 -0.0972 -0.2139
20364W        W36548   6.727  14.368  13.746 -0.2863  0.1259  0.1324
20365W        W36549   3.909   1.110  15.761 -0.1795  0.0227  0.3609
20366W        W36550  11.011   3.925  13.845  0.0072 -0.0809 -0.1558
20367W        W36551  17.635   8.618   1.279 -0.2049 -0.0883  0.2335
20368W        W36552  15.868  11.525  15.018 -0.0783  0.2331  0.1303
20369W        W36553  10.547   4.573  10.597 -0.1358  0.0059  0.0324
20370W        W36554  11.039   4.607   2.880  0.1383 -0.1138 -0.1353
20371W        W36555   7.328   0.239   4.683  0.1502 -0.1372 -0.2992
20372W        W36556   4.029   3.337  12.262  0.1636  0.1014  0.3414
20373W        W36557   5.245   3.642  14.904  0.1134 -0.0481 -0.3717
20374W        W36558   4.156  11.505   0.461  0.1277 -0.1771 -0.0240
20375W        W36559  16.481   3.561  15.997 -0.0156 -0.1090  0.2060
20376W        W36560  14.143  15.470   4.477 -0.3369 -0.3958 -0.1569
20377W        W36561   8.072   3.366  14.466 -0.0390 -0.2020  0.2293
20378W        W36562   6.617   7.116   1.116 -0.1480 -0.0386  0.0457
20379W        W36563   9.971   2.202   4.838 -0.1131  0.2838  0.3726
20380W        W36564   8.952  17.738  12.651 -0.1283 -0.0345 -0.3059
20381W        W36565   2.696   0.681   1.705  0.0904 -0.0658 -0.0930
20382W        W36566  14.657  17.633   2.029 -0.0926 -0.0138  0.1509
20383W        W36567   1.736  17.151  10.633 -0.3035  0.3225  0.1534
20384W        W36568  11.689   8.854  14.107  0.1898 -0.2455 -0.1058
20385W        W36569  15.064   0.554  11.201 -0.0197  0.0355  0.0190
20386W        W36570   4.322   6.539   2.498 -0.0483 -0.1187 -0.1269
20387W        W36571   5.407   1.143  13.346  0.1978 -0.0092 -0.1019
20388W        W36572   5.315   6.169   3.396  0.0419 -0.3016 -0.4756
20389W        W36573   8.548   6.297   0.041  0.0699 -0.2087  0.0199
20390W        W36574  15.501   5.622  15.168  0.0996 -0.1243 -0.4326
20391W        W36575  12.524   5.706   0.231  0.4754 -0.0460  0.1924
20392W        W36576  13.785   5.289   0.848  0.0525  0.1489 -0.3638
20393W        W36577  11.757   4.547   1.443  0.0018 -0.2736  0.2342
20394W        W36578   5.442  13.857  10.545 -0.3239  0.2334 -0.1460
20395W        W36579   5.993  10.214  11.838 -0.0751  0.2015  0.1840
20396W        W36580   4.318   6.595   1.381 -0.1430  0.1524 -0.0531
20397W        W36581  16.301   4.543  13.211 -0.1991 -0.1184 -0.1604
20398W        W36582  14.298  16.938   0.231  0.4230  0.3048 -0.1625
20399W        W36583   5.960  13.617   2.093 -0.1746 -0.1683 -0.2164
20400W        W36584   9.983  18.433   0.610 -0.3154 -0.0381  0.0366
20401W        W36585  16.756  13.508  11.380  0.1135  0.1241  0.0523
20402W        W36586   1.017  14.938   3.192  0.0229  0.0125  0.4116
20403W        W36587  14.006  16.860  15.630  0.0960  0.1013 -0.0603
20404W        W36588   5.241  12.527   3.385 -0.2724  0.0922 -0.0622
20405W        W36589  12.431   8.617   1.950  0.1094  0.0060  0.2350
20406W        W36590  13.455   6.717  15.234 -0.2005  0.0670  0.0185
20407W        W36591   3.103  12.932  13.638 -0.1392 -0.0206  0.1412
20408W        W36592  11.301   1.935   3.174 -0.2397 -0.1213 -0.0210
20409W        W36593   2.056   0.300   3.001 -0.2479 -0.0764  0.0014
20410W        W36594   3.927   7.923  10.306  0.0717 -0.2390 -0.2240
20411W        W36595   2.525  18.171   3.896 -0.0421  0.1184  0.1593
20412W        W36596  15.158   6.311   3.022  0.2442  0.3199 -0.1185
20413W        W36597   8.811  14.197   4.537 -0.0964  0.2848  0.2227
20414W        W36598  15.757   9.809   4.111 -0.1136 -0.1465  0.1153
20415W        W36599   5.176   7.675   1.109  0.0477  0.0448  0.1753
20416W        W36600  12.568   7.757  14.147 -0.2817  0.0538 -0.3470
20417W        W36601   6.708  12.426   0.892  0.1056 -0.3700 -0.0714
20418W        W36602   5.890   7.301  12.969 -0.0044 -0.1929  0.4890
20419W        W36603   8.577   6.761  11.778  0.0251  0.2168  0.2071
20420W        W36604  17.893   8.218   1.253  0.2464 -0.1583  0.0768
20421W        W36605   6.988   3.961   0.823  0.0991  0.0529 -0.0369
20422W        W36606  14.877  13.811   4.986  0.1713 -0.1049  0.1515
20423W        W36607   4.080   9.874  15.170  0.0731 -0.1995  0.2288
20424W        W36608  17.187  12.339   2.897  0.2452  0.2044 -0.2489
20425W        W36609   1.506  16.095  14.085 -0.0177 -0.0438  0.0032
20426W        W36610   8.277   6.600  11.305 -0.0820 -0.1911 -0.2079
20427W        W36611   1.336   7.252   4.535 -0.0087  0.2553 -0.2615
20428W        W36612  15.913   3.877   1.848 -0.1718  0.0748  0.3290
20429W        W36613  11.013   4.652   0.658  0.0937 -0.2947  0.0286
20430W        W36614   9.029   4.473  12.126  0.0897  0.2520  0.4229
20431W        W36615   3.111  17.599  11.060  0.0328 -0.0195  0.0625
20432W        W36616  17.489  11.866  15.643 -0.0657 -0.0489  0.1871
20433W        W36617  10.010   8.003   4.105  0.0958  0.1726 -0.2924
20434W        W36618   2.572   6.762   2.864 -0.0999  0.0818  0.1567
20435W        W36619   0.723   0.083   5.935  0.0945 -0.0698  0.2904
20436W        W36620  15.091   1.940  11.270  0.2566  0.0579 -0.0798
20437W        W36621   5.588  13.103  15.140  0.1051 -0.3058 -0.0507
20438W        W36622  15.610   6.533  11.384 -0.0588 -0.2461  0.0343
20439W        W36623  12.665   2.677  15.707  0.0079  0.0809 -0.1844
20440W        W36624   7.482  18.298   1.430  0.0971  0.2250  0.6023
20441W        W36625   1.631  13.850  13.335 -0.1081  0.0048 -0.1997
20442W        W36626   2.021   3.690  10.242 -0.3165 -0.1749  0.2101
20443W        W36627   3.067  10.395   3.629  0.2578  0.0553  0.1533
20444W        W36628   8.387  11.599   3.849  0.1728  0.1125  0.0014
20445W        W36629   7.662   0.638  13.685  0.1716  0.1117 -0.2564
20446W        W36630  11.929   9.975   4.028 -0.0491 -0.1132 -0.0769
20447W        W36631   2.707  16.751   2.689 -0.1593 -0.2495 -0.4176
20448W        W36632   2.436  14.011  12.374 -0.1259  0.0507 -0.0558
20449W        W36633  12.753  10.055   3.515  0.0267 -0.0627  0.1293
20450W        W36634  17.795  17.851  13.155  0.0275  0.0787 -0.3858
20451W        W36635   7.877   3.994  13.772  0.1574 -0.0483  0.0248
20452W        W36636   2.952   2.179   5.872  0.3328  0.1397  0.1107
20453W        W36637   9.704   9.208  12.750  0.1822 -0.4383  0.3443
20454W        W36638  12.269  10.391  14.232 -0.0809 -0.1234 -0.0840
20455W        W36639  11.620  15.707   0.048 -0.0914 -0.0597  0.3310
20456W        W36640   1.866   6.180   4.543  0.0076  0.2321  0.2520
20457W        W36641  12.128   4.433   0.502  0.2107  0.3245  0.2152
20458W        W36642  16.767   7.798  14.265  0.1583  0.1479  0.1074
20459W        W36643   1.447  15.592  11.827  0.3984 -0.1433  0.0660
20460W        W36644   9.302  16.297  15.960 -0.0086 -0.2931 -0.0957
20461W        W36645  11.635   4.989  13.457  0.1127 -0.0083 -0.2646
20462W        W36646  15.165   8.422   2.838  0.0903  0.3042 -0.2199
20463W        W36647   3.998   1.022   4.849 -0.2191 -0.3472 -0.3345
20464W        W36648   7.688   2.465   0.876 -0.0279  0.1368 -0.2979
20465W        W36649   5.499   2.528   4.916  0.2597  0.1930 -0.1366
20466W        W36650   5.282   9.485  12.291 -0.2407  0.3841 -0.3309
20467W        W36651  13.205   7.471  14.298 -0.0121 -0.1364  0.1943
20468W        W36652   4.420  18.466  13.065  0.1854  0.1637  0.2255
20469W        W36653  10.948  12.157  11.707 -0.0401  0.1521 -0.2396
20470W        W36654   2.437  11.249   0.403 -0.0866 -0.3694  0.3200
20471W        W36655   5.453  10.184   1.556  0.0541  0.1742  0.0641
20472W        W36656   3.932  16.589   1.872  0.0519  0.3192  0.0344
20473W        W36657   6.793  15.241   0.245  0.1717 -0.2273  0.0606
20474W        W36658   1.719   2.022  11.896  0.1829 -0.1729  0.0885
20475W        W36659   9.334  15.153   5.120 -0.2007  0.3962 -0.2334
20476W        W36660  17.474   8.421  14.557 -0.1187 -0.3500  0.2824
20477W        W36661  10.369  13.766  15.143 -0.1764 -0.0377  0.1639
20478W        W36662  15.220   1.014   4.148  0.0643  0.1904  0.0493
20479W        W36663  13.648   2.994   3.663 -0.2845 -0.1378 -0.1731
20480W        W36664  16.769  12.875  12.439  0.2450  0.0204 -0.2516
20481W        W36665   5.602   9.576  15.413 -0.2397 -0.1082 -0.0022
20482W        W36666  14.595   4.796  14.429 -0.2462 -0.0943  0.1211
20483W        W36667   5.602  14.317  13.722  0.0240 -0.3667  0.2720
20484W        W36668   6.894   5.913   1.863 -0.2892  0.3100  0.1228
20485W        W36669  16.338   4.217  13.541  0.0902 -0.0416  0.1298
20486W        W36670   3.635  12.530   4.722  0.0364  0.0161 -0.0036
20487W        W36671  13.474  14.225  15.339  0.0269 -0.1928  0.0212
20488W        W36672   2.476   3.682   1.361 -0.3080  0.1635 -0.0041
20489W        W36673   6.223   2.702  12.088  0.0472 -0.0123 -0.0748
20490W        W36674  15.215   3.198   0.363  0.4574  0.1050  0.0044
20491W        W36675  11.151  18.097   2.793  0.0830  0.1296 -0.1722
20492W        W36676  17.437   6.803   2.769 -0.0346  0.1611  0.1220
20493W        W36677   4.987   3.521   0.788  0.0977  0.1005 -0.1156
20494W        W36678  14.948   1.070  11.444 -0.0295  0.3295 -0.2556
20495W        W36679   3.189  10.356   1.131 -0.1147 -0.2325 -0.0464
20496W        W36680  13.759   7.388   2.062 -0.0684  0.3781 -0.4225
20497W        W36681   3.763   8.843   1.336 -0.0917 -0.0161  0.0776
20498W        W36682   0.547  15.857  12.804 -0.0535  0.1967  0.0807
20499W        W36683   6.021   9.964  15.501  0.3369  0.1122 -0.0670
20500W        W36684   5.721   8.417   2.757  0.1899 -0.1294  0.0745
20501W        W36685  18.072  12.005  11.513  0.2779 -0.0951 -0.2020
20502W        W36686   2.152   3.089  15.868  0.0897  0.2338  0.0985
20503W        W36687   0.456  17.842  13.372  0.4844 -0.2190  0.3334
20504W        W36688  15.844   2.933  11.349 -0.2596 -0.0456  0.0259
20505W        W36689   4.889   1.204  12.884 -0.2586  0.1418 -0.0627
20506W        W36690   1.379   5.821   1.742  0.1276 -0.2992 -0.1190
20507W        W36691   5.277   8.001   2.925  0.0043 -0.2213 -0.0514
20508W        W36692  12.393   3.085  11.661  0.0151  0.0052 -0.0608
20509W        W36693  13.937   0.251   4.066  0.2618  0.1092  0.0624
20510W        W36694   5.113   3.086   4.790 -0.2597 -0.1842  0.0309
20511W        W36695  14.277   8.477   1.280  0.1591 -0.0565 -0.0821
20512W        W36696  10.712  14.227  12.908  0.0107 -0.2449 -0.2292
20513W        W36697  15.482   5.589   3.468 -0.0954  0.2036 -0.0067
20514W        W36698   2.779  13.062   1.206  0.0823  0.1400 -0.0965
20515W        W36699  18.344  11.207   2.444  0.5159 -0.0756 -0.0269
20516W        W36700   4.788  15.411   0.318  0.0252  0.0535  0.2191
20517W        W36701  10.901  18.483   4.990  0.0139  0.2550  0.1266
20518W        W36702  10.852  17.558  15.830 -0.1394 -0.0027  0.0756
20519W        W36703  13.236   6.935   4.646 -0.3947 -0.0308  0.1984
20520W        W36704  18.521   9.859  15.850 -0.2248  0.1803  0.1552
20521W        W36705   5.835   3.635   4.523  0.1935  0.0947 -0.0206
20522W        W36706   4.212  12.794  14.255  0.0152 -0.1310  0.2957
20523W        W36707   8.019   0.849   4.389  0.3884 -0.0643  0.1148
20524W        W36708  18.306   9.040  13.375 -0.0395 -0.2022 -0.0211
20525W        W36709   7.189  14.886  13.070  0.1846  0.0380  0.0356
20526W        W36710  14.128   0.578  11.676 -0.1293  0.1417 -0.2630
20527W        W36711   8.805   3.550   5.493 -0.2850 -0.0276  0.1563
20528W        W36712   7.073  16.255   0.538  0.0676  0.0805 -0.0315
20529W        W36713  10.170  13.411  12.515 -0.3353 -0.2115  0.1484
20530W        W36714   2.577   0.296  15.083 -0.1774  0.0822  0.1048
20531W        W36715  11.412  10.664   5.156 -0.3172 -0.1522 -0.2277
20532W        W36716   5.563   5.113   2.836  0.2930  0.1265 -0.0241
20533W        W36717   5.953   6.506  11.587 -0.0089  0.2790 -0.1185
20534W        W36718   4.060  16.531  14.481 -0.0821  0.2424 -0.0662
20535W        W36719   0.520  14.143  13.954 -0.0887  0.3849 -0.0674
20536W        W36720   6.197   2.726   3.017 -0.1257 -0.3693 -0.4433
20537W        W36721  15.581  14.485  16.018 -0.0270  0.1379  0.0705
20538W        W36722   6.541   1.896   0.098  0.0841  0.0320 -0.3021
20539W        W36723   9.619  13.032  15.252  0.1050 -0.2159 -0.1315
20540W        W36724   6.784  12.988   6.029 -0.0650  0.1632  0.3336
20541W        W36725   5.424   0.908  15.911  0.1821 -0.1123 -0.0737
20542W        W36726   6.679   8.417  12.316  0.1547  0.3549  0.0583
20543W        W36727  16.962   6.586  10.949  0.2324 -0.0274 -0.0408
20544W        W36728  13.535  13.224   2.744  0.1314 -0.0836  0.2298
20545W        W36729  10.543   7.380   4.922  0.1006 -0.0469 -0.1154
20546W        W36730   3.668  17.793   1.611 -0.1304  0.1601  0.0793
20547W        W36731   7.246  17.092   5.537 -0.2789  0.0192 -0.0646
20548W        W36732  13.022   1.686  12.977 -0.2298 -0.0164  0.1795
20549W        W36733   7.088   2.828   4.165 -0.1000  0.1462 -0.3411
20550W        W36734   3.389  16.271  15.591 -0.0864 -0.2295  0.2880
20551W        W36735  10.141   8.229   3.374  0.2087  0.0982 -0.2583
20552W        W36736  17.303   2.539   2.611 -0.0465 -0.1586 -0.2003
20553W        W36737  11.764   1.640  16.060  0.2036  0.0545  0.0475
20554W        W36738  11.247   7.954   5.071  0.0529  0.1779  0.1308
20555W        W36739  16.917  18.287  15.699 -0.1654 -0.0301 -0.2079
20556W        W36740   6.065   4.728   3.811  0.0672  0.0616  0.1316
20557W        W36741   5.031   3.425  12.005 -0.3564 -0.1158  0.0596
20558W        W36742   9.859   7.544  15.982  0.1397 -0.0928 -0.2481
20559W        W36743  10.958  10.820   4.443 -0.0297  0.1836 -0.0468
20560W        W36744   4.810   9.418  13.210  0.0766  0.2513 -0.1379
20561W        W36745  17.819   6.837  13.726  0.3026 -0.2621 -0.0868
20562W        W36746  15.327   0.209   1.045  0.0896 -0.0171 -0.0335
20563W        W36747  17.398   4.804  13.060 -0.2393  0.0322  0.0294
20564W        W36748   9.545  11.486   1.656 -0.0101 -0.0022 -0.1865
20565W        W36749   2.626  17.178  13.545 -0.0117  0.2547  0.2923
20566W        W36750  14.008   6.375   3.897  0.5861  0.0535  0.2303
20567W        W36751   5.801  13.201  14.046  0.1372 -0.4802  0.0257
20568W        W36752  10.904   2.500  15.014 -0.0246 -0.3297  0.2062
20569W        W36753   0.741   3.664   1.028 -0.0297  0.0492  0.0631
20570W        W36754   9.846  10.987  13.360  0.1696  0.0422 -0.0112
20571W        W36755   4.932  10.648  12.511  0.0744 -0.0127 -0.0037
20572W        W36756   0.458  14.354  15.205 -0.3540 -0.1698  0.0591
20573W        W36757   7.249  14.101  13.766  0.0696  0.0006 -0.0770
20574W        W36758  11.807  14.674   4.346 -0.0826 -0.0189 -0.1439
20575W        W36759   0.930  15.548   5.068  0.4170 -0.0422  0.1278
20576W        W36760   5.701  17.581   4.168  0.0048 -0.0079  0.0170
20577W        W36761   0.210  10.463  15.146 -0.3403 -0.0892 -0.2385
20578W        W36762   9.800   9.378  13.232  0.0679 -0.1691  0.1501
20579W        W36763   1.746   1.126   1.815 -0.2283 -0.0951 -0.0114
20580W        W36764  14.494   3.983   2.492 -0.3506  0.1447 -0.0559
20581W        W36765   5.494   8.759  15.598 -0.0666 -0.1083 -0.3110
20582W        W36766  10.514  10.415  14.916  0.1913 -0.2440  0.0212
20583W        W36767  18.123  18.432   4.685  0.0914  0.2339 -0.0989
20584W        W36768   1.011  17.962   0.790  0.0525  0.2598 -0.1644
20585W        W36769   7.369  11.497  12.760 -0.0466 -0.0694 -0.0727
20586W        W36770  16.609   6.646  11.942 -0.0725 -0.1457 -0.5726
20587W        W36771  15.582  18.247  14.532  0.0580  0.1081 -0.2602
20588W        W36772   7.402  11.759  11.904  0.0936 -0.3550  0.0169
20589W        W36773  14.325  15.287  14.513 -0.1199  0.0172  0.0769
20590W        W36774   1.918   5.056   4.608 -0.2691 -0.0777 -0.0082
20591W        W36775  16.091  13.410  10.819  0.1403 -0.1668 -0.0353
20592W        W36776  11.024   9.027  14.370  0.1141 -0.2531 -0.1483
20593W        W36777   8.589  17.460   0.397  0.1277 -0.2409  0.0488
20594W        W36778  11.008   2.322   0.936 -0.2608  0.2594  0.1786
20595W        W36779   3.196   8.435  14.419 -0.0126  0.2185 -0.1358
20596W        W36780   5.436  11.749   1.021  0.1613 -0.0635 -0.3971
20597W        W36781  10.135  12.480   0.317 -0.0768 -0.1376  0.0224
20598W        W36782   0.788   5.336  16.006  0.2956  0.0665 -0.4305
20599W        W36783   5.659  17.197  11.649 -0.2002 -0.1812 -0.1273
20600W        W36784   1.120  16.396  15.519  0.1166  0.2722 -0.0618
20601W        W36785  16.081   7.536   2.151  0.0466 -0.1492  0.0516
20602W        W36786   0.083  17.288  10.969 -0.2905  0.1417  0.2364
20603W        W36787   3.118   4.382  12.870  0.0583 -0.1532 -0.0101
20604W        W36788  12.240   3.276   2.501 -0.0466 -0.0711 -0.0231
20605W        W36789   2.351   1.705   2.481 -0.1211  0.0474 -0.1331
20606W        W36790   5.470  15.844   1.314  0.0795 -0.1947  0.1701
20607W        W36791  14.263   6.424   1.030 -0.0449  0.0136 -0.2694
20608W        W36792   3.083  10.875  14.735  0.1370 -0.2301 -0.0887
20609W        W36793  10.700  14.755  15.632 -0.1896  0.4415  0.0325
20610W        W36794  16.926  13.816   4.933 -0.0236  0.1557 -0.4207
20611W        W36795   6.763  18.501   4.136  0.0756 -0.3341 -0.4632
20612W        W36796  17.484   2.016  15.735  0.0933 -0.0747  0.2346
20613W        W36797  11.303  16.153   1.036  0.4043 -0.2310  0.1815
20614W        W36798   4.641  18.075   5.349 -0.1426 -0.1851 -0.1293
20615W        W36799  17.182   0.788  11.630 -0.0592 -0.3357  0.3019
20616W        W36800   6.896   0.028  13.673  0.0778 -0.3383 -0.2866
20617W        W36801   3.287  15.870  13.154 -0.0366  0.2298 -0.0592
20618W        W36802  15.745   0.188  14.200 -0.2068  0.1132 -0.0404
20619W        W36803   7.056  13.579  14.431 -0.0685  0.2657  0.0264
20620W        W36804   1.551  17.006  13.241 -0.1923  0.1593  0.3278
20621W        W36805   7.205   8.546   2.074 -0.0574 -0.0881 -0.2630
20622W        W36806   0.292   5.849   3.988 -0.0786 -0.4414 -0.3687
20623W        W36807   4.695  15.170   3.152 -0.0893  0.0125 -0.0316
20624W        W36808   8.402  12.495   0.865  0.0946 -0.0094 -0.3563
20625W        W36809  15.581   4.702  14.917  0.1484 -0.1161 -0.2017
20626W        W36810  13.625   7.676  15.396  0.1067 -0.2347 -0.1074
20627W        W36811   3.003  15.696  12.704  0.0809  0.2359  0.0585
20628W        W36812   0.561  13.494   4.778 -0.1011 -0.1584  0.0568
20629W        W36813  12.601  16.410  14.046 -0.0633 -0.3213  0.0102
20630W        W36814  13.025   5.551  14.155 -0.2402  0.0771  0.0483
20631W        W36815   8.074  10.421  14.577  0.2918  0.0933  0.1823
20632W        W36816   2.003   2.780   5.134  0.2853 -0.0606 -0.1326
20633W        W36817  15.704  11.753   1.535 -0.1865  0.0795 -0.1113
20634W        W36818   3.209   0.814   3.998 -0.2756  0.1601  0.4571
20635W        W36819  11.294   4.240  15.670 -0.0758 -0.3901  0.0236
20636W        W36820  16.467  11.239   0.445  0.0963 -0.0031  0.0228
20637W        W36821  15.417  13.110   3.892  0.0808  0.1769  0.0700
20638W        W36822   0.104  14.791   2.548  0.0402 -0.1610  0.1015
20639W        W36823   3.442   9.123  13.655  0.2602 -0.3714  0.0956
20640W        W36824   9.043  10.713   1.156 -0.0114 -0.2308  0.1370
20641W        W36825   7.136  14.634   3.850 -0.2664  0.2315 -0.1571
20642W        W36826  11.406   7.504   5.406 -0.0648 -0.1178 -0.3673
20643W        W36827   3.677  11.730  11.881  0.0233 -0.0916  0.3748
20644W        W36828   0.256   8.362  12.261 -0.0589 -0.1631 -0.3479
20645W        W36829   6.185   9.985   0.537 -0.0742  0.0845  0.1034
20646W        W36830  11.196  13.839  13.948 -0.2605  0.0817  0.0528
20647W        W36831  12.333   8.215  12.890 -0.0022  0.0580 -0.3128
20648W        W36832   2.561  17.147   4.898 -0.1027 -0.0349 -0.4903
20649W        W36833   2.695   7.026  13.267  0.1158 -0.3562 -0.2378
20650W        W36834   6.712   0.737   5.690 -0.2727 -0.2856  0.1541
20651W        W36835  17.081   1.388   3.672  0.1979  0.0265  0.0550
20652W        W36836  10.727   9.145  11.261 -0.0535 -0.1034 -0.2818
20653W        W36837  11.597  18.318   0.612 -0.1102 -0.3199  0.2291
20654W        W36838   7.167   1.811   3.260  0.1720 -0.2842 -0.3057
20655W        W36839  16.220  15.423   5.002  0.2523 -0.3336 -0.0180
20656W        W36840  15.319   2.312   4.314 -0.3055  0.0468  0.0544
20657W        W36841   0.098   8.514   0.746 -0.0464 -0.2876 -0.1070
20658W        W36842   4.862  12.260   4.557  0.1480  0.1584 -0.1324
20659W        W36843   5.368  11.610  15.261 -0.0396  0.0061  0.2276
20660W        W36844   0.036   8.923  16.114 -0.2830 -0.2581 -0.2018
20661W        W36845   2.444  14.807   3.328 -0.0613  0.3262  0.1767
20662W        W36846  15.317   4.715  15.968  0.2072  0.1603 -0.0384
20663W        W36847  12.729  10.774  10.745 -0.1775 -0.1299 -0.0222
20664W        W36848  12.659  16.025   4.111 -0.0320  0.0937 -0.1204
20665W        W36849  11.310  12.865   3.924 -0.3578 -0.0002 -0.0398
20666W        W36850  13.690   4.779   0.015 -0.2392 -0.0366 -0.1652
20667W        W36851   7.550   5.853   2.049 -0.0440 -0.0112 -0.2427
20668W        W36852   2.034   6.076   0.743 -0.1225 -0.2570 -0.1187
20669W        W36853  12.722   2.882   5.079 -0.0223  0.2492  0.1322
20670W        W36854  11.484  14.551  13.044 -0.2979 -0.0767  0.1173
20671W        W36855   4.596   5.257   1.102  0.0685 -0.1313 -0.0897
20672W        W36856   7.502   9.265   1.937 -0.0727 -0.1140  0.3647
20673W        W36857   9.108   0.841   5.837  0.2242 -0.2076 -0.4656
20674W        W36858  11.047   5.554  15.284 -0.7009  0.1799  0.0687
20675W        W36859   8.407  10.077   0.961 -0.0051  0.2353  0.0244
20676W        W36860  15.764   0.677  15.650 -0.0902 -0.3128 -0.1496
20677W        W36861  17.067   2.886  14.165  0.2022 -0.1213  0.1051
20678W        W36862  17.719  15.976  13.250 -0.1047  0.0495  0.0106
20679W        W36863  15.899   2.896  12.499 -0.1751  0.3823 -0.0296
20680W        W36864   8.871  12.409   3.443 -0.0863 -0.0996  0.1052
20681W        W36865   9.867   2.611  12.853 -0.0252 -0.3196  0.0583
20682W        W36866   2.848   7.283   5.899 -0.0104  0.2195  0.1957
20683W        W36867   7.668   0.075  15.738 -0.0259 -0.1530 -0.1677
20684W        W36868   7.225  14.697   3.273 -0.0642 -0.2073 -0.0888
20685W        W36869   2.586   9.566  15.051  0.2334  0.0366  0.1499
20686W        W36870   3.554  16.391  12.264  0.2670  0.0419  0.0699
20687W        W36871  14.829   9.421   3.941 -0.2889 -0.1122  0.0574
20688W        W36872  10.370  17.672  11.845  0.2989 -0.0453 -0.1174
20689W        W36873  17.021   7.880   1.726 -0.1094 -0.1941 -0.0796
20690W        W36874   3.703  10.814  11.398 -0.1520  0.1013 -0.1044
20691W        W36875  14.638   0.809   3.837  0.2141 -0.0317  0.0301
20692W        W36876  11.559   1.812  12.191 -0.0606  0.0863 -0.0651
20693W        W36877   6.935   4.461  14.320 -0.1451  0.0006 -0.1985
20694W        W36878   9.736  18.434  13.341 -0.0274  0.0265  0.1495
20695W        W36879   5.691   8.601   0.871 -0.1901  0.0481  0.0421
20696W        W36880  13.896  14.243   5.061  0.2684 -0.0884 -0.0141
20697W        W36881   0.992  16.361   2.546  0.0426 -0.1378  0.2332
20698W        W36882   2.637  16.433  14.009  0.3174 -0.1449 -0.0918
20699W        W36883  16.456   4.646  14.510  0.1869 -0.1283 -0.1776
20700W        W36884  14.365   3.271  11.110 -0.0916 -0.1582  0.0572
20701W        W36885   6.078   2.869   3.951  0.1047 -0.2370 -0.1595
20702W        W36886   4.182  11.711  15.170  0.0432  0.2135 -0.1472
20703W        W36887   9.068   7.723  13.957  0.0806  0.1420  0.1949
20704W        W36888   3.182   5.209   5.190 -0.2171  0.1687  0.1281
20705W        W36889   1.969   3.383   2.058  0.1145  0.2456  0.0995
20706W        W36890   1.572   1.593   3.106 -0.1037  0.3521 -0.1302
20707W        W36891  17.513   2.432   5.018 -0.3570 -0.1225  0.5015
20708W        W36892  16.792   7.994   0.527 -0.1680 -0.2466  0.3666
20709W        W36893  16.327   8.663   1.668  0.2256 -0.1565  0.1826
20710W        W36894  11.679  15.883   2.359 -0.0795 -0.4276  0.3781
20711W        W36895  13.831   5.175   1.391  0.0318 -0.0653 -0.2627
20712W        W36896  12.019  16.265   5.569  0.1175  0.0594  0.1065
20713W        W36897  17.773   6.908   3.701  0.1018 -0.0885  0.0622
20714W        W36898  16.352   1.394  14.984 -0.4089  0.1664 -0.0883
20715W        W36899  17.310   8.552   0.303 -0.1550  0.0848 -0.2519
20716W        W36900   2.277   1.189  12.063  0.2914 -0.2281  0.1965
20717W        W36901  14.921   4.980  13.246  0.2648 -0.4119  0.0537
20718W        W36902  10.862   8.199   1.434  0.2953 -0.1121 -0.0457
20719W        W36903   0.014  16.622  12.130  0.0330  0.1202 -0.3125
20720W        W36904  15.122   3.704   0.317  0.0156  0.1093  0.3348
20721W        W36905  10.873   3.775  13.370 -0.7057 -0.2287 -0.1004
20722W        W36906   9.364   5.967   1.724 -0.2093  0.0954  0.0316
20723W        W36907  15.799   6.597   1.933 -0.1125 -0.2028 -0.0827
20724W        W36908  16.885  14.770  12.578 -0.1227  0.0635  0.0972
20725W        W36909  18.085  12.087  13.079  0.0940 -0.0700  0.2028
20726W        W36910   1.003  10.507  14.808  0.1939 -0.0660 -0.2349
20727W        W36911  12.315   4.376  11.282  0.0088  0.1676 -0.2050
20728W        W36912  11.489   2.253   4.727 -0.0264 -0.1524  0.0586
20729W        W36913   3.253  12.180   5.572 -0.3202 -0.1443 -0.0042
20730W        W36914   5.993  14.534   3.001  0.2222  0.2554 -0.0390
20731W        W36915   6.214  13.693   3.832  0.2733 -0.2540 -0.0944
20732W        W36916  12.937   7.893   6.107  0.1198  0.2892  0.0519
20733W        W36917   0.468  15.507  13.196  0.1245  0.0821  0.0250
20734W        W36918   9.044  10.262   2.934 -0.1399  0.1291 -0.1367
20735W        W36919   6.788   0.107  15.904 -0.1007  0.2157 -0.2727
20736W        W36920  12.044  16.386  14.757  0.1124 -0.1421  0.0211
20737W        W36921   0.172   9.525   1.598 -0.3439  0.3261  0.0502
20738W        W36922  10.091   9.331   1.971 -0.1093  0.0551  0.0818
20739W        W36923   1.809  16.219  14.963  0.1192  0.1849 -0.2847
20740W        W36924   3.695   7.464   1.041  0.3164 -0.0897  0.5329
20741W        W36925  12.511  17.853   1.055 -0.3781  0.1676  0.3781
20742W        W36926  15.327   0.042  12.352 -0.3004  0.0734 -0.1052
20743W        W36927   6.366  17.665   2.973 -0.1953 -0.2575 -0.0300
20744W        W36928   8.010   5.145   4.388  0.0149  0.1069  0.2465
20745W        W36929  16.930  10.700  15.016 -0.1484  0.0118  0.0763
20746W        W36930  11.541   4.693   4.701 -0.0965 -0.2229 -0.0368
20747W        W36931   4.657   5.879   2.931  0.2517 -0.1527 -0.1225
20748W        W36932   4.302  16.527  11.707 -0.0398  0.1638  0.0098
20749W        W36933  11.093  13.999   4.663  0.1167  0.5326 -0.1754
20750W        W36934   4.441   3.674   3.675  0.5482 -0.0907  0.3344
20751W        W36935   1.754   9.952   4.129 -0.3088 -0.0828  0.3518
20752W        W36936  17.844  13.488   4.756  0.1200 -0.0125  0.1192
20753W        W36937  16.029  15.626  13.792  0.1284 -0.2369 -0.0787
20754W        W36938  12.663  13.762   1.626  0.2518  0.2732 -0.0391
20755W        W36939  13.874   6.901   0.603 -0.3138  0.2400 -0.0428
20756W        W36940   9.538   0.440   2.139 -0.1478  0.1549 -0.1156
20757W        W36941   6.111   4.234   5.278 -0.1391  0.0335 -0.2771
20758W        W36942  10.262   1.529   5.315 -0.3322  0.0076  0.2387
20759W        W36943   1.593  15.890  14.553 -0.2274  0.0495 -0.1314
20760W        W36944   3.927  11.985  11.170 -0.4913  0.0907 -0.1417
20761W        W36945   0.881   4.207  11.486 -0.4977 -0.0166  0.3206
20762W        W36946   3.595   5.119  11.884 -0.1636  0.1246  0.3867
20763W        W36947  10.616   9.782   3.052 -0.0721  0.1490 -0.1634
20764W        W36948   4.832   0.925   4.737  0.1136  0.1257 -0.1098
20765W        W36949   9.588   0.847  14.604 -0.2752  0.1326 -0.0374
20766W        W36950   9.606  13.713   0.990 -0.1348  0.0824 -0.2202
20767W        W36951  16.130  10.984  15.802 -0.1966 -0.1309  0.1395
20768W        W36952   5.725   3.782  11.496  0.0914 -0.1527  0.1166
20769W        W36953   1.321  13.949  13.821  0.0578  0.0394  0.2618
20770W        W36954   3.388   6.425  13.113  0.0924  0.2411 -0.0341
20771W        W36955   3.863  11.997   1.586 -0.3047  0.2348  0.0635
20772W        W36956   4.495  17.214  13.490 -0.1084 -0.0610  0.0174
20773W        W36957   0.220  15.171   4.945  0.0520 -0.3591  0.0396
20774W        W36958  16.247   7.972   0.707 -0.0411 -0.2517 -0.0509
20775W        W36959  14.228  10.135  13.618 -0.2089  0.1122  0.2307
20776W        W36960   2.200   1.486   3.402  0.2290  0.2553 -0.0164
20777W        W36961   0.945   0.398  12.579 -0.1345  0.0109  0.0284
20778W        W36962   3.231  10.138   5.346  0.1447 -0.0329  0.5400
20779W        W36963  11.331   7.310   0.239 -0.2044 -0.1004  0.4955
20780W        W36964   6.586   3.700  13.245  0.4676  0.3131  0.0305
20781W        W36965  15.972  15.246   4.053 -0.0116 -0.4295  0.2288
20782W        W36966  11.733   1.151  16.017  0.1460  0.2060 -0.0241
20783W        W36967  12.254   7.682  11.393 -0.0559 -0.0170 -0.4581
20784W        W36968   5.248  10.552   5.792  0.0392 -0.0325 -0.2280
20785W        W36969   3.923   2.418  14.824 -0.1246  0.2152 -0.0577
20786W        W36970   6.610   4.569  11.414  0.6350  0.0010 -0.0662
20787W        W36971  17.336  12.868  14.069  0.1433  0.0516 -0.0536
20788W        W36972  13.599   8.599  13.864  0.2596  0.1771  0.2375
20789W        W36973   9.065   5.005   4.947 -0.0821 -0.1818 -0.0101
20790W        W36974   8.051  16.333  14.759  0.1862 -0.2189  0.0536
20791W        W36975   8.191   3.842   0.311  0.3711 -0.1165 -0.0621
20792W        W36976   3.876   2.849  12.726  0.0246  0.1244  0.1567
20793W        W36977   0.811   7.694   0.115 -0.0996 -0.0097 -0.1305
20794W        W36978   5.817   0.648  11.361 -0.3006  0.2335 -0.0638
20795W        W36979  17.649   9.489   2.635 -0.2425  0.0687  0.0080
20796W        W36980   3.680  11.779   5.332 -0.3118  0.0585  0.2514
20797W        W36981  13.012   5.193   4.090 -0.0990  0.2467 -0.0743
20798W        W36982  17.680  12.346  15.901 -0.3438  0.0298  0.0403
20799W        W36983   9.770   2.168  14.499 -0.0363 -0.1520  0.3661
20800W        W36984   9.610   6.350   3.769 -0.2154  0.3152  0.1430
20801W        W36985  10.145   0.442  11.965  0.2288  0.2754 -0.0289
20802W        W36986   1.030   8.923   3.041 -0.1447  0.0385 -0.0243
20803W        W36987  11.638  12.333  14.696  0.1384 -0.0512  0.2659
20804W        W36988   0.122   4.627   4.859 -0.0939  0.1697 -0.2181
20805W        W36989  16.109   4.902  12.371  0.1637 -0.3467 -0.4035
20806W        W36990   1.555  13.059   2.129  0.0969 -0.3027 -0.1783
20807W        W36991  11.098   7.532   1.206 -0.1428  0.3356  0.3018
20808W        W36992  10.047  12.277  13.101 -0.1269 -0.1922 -0.0760
20809W        W36993   3.749   0.633   4.584 -0.1449  0.1268  0.3791
20810W        W36994  12.254   2.455  14.946 -0.1649 -0.0224 -0.2764
20811W        W36995   2.424  17.932   3.003 -0.2661 -0.0553  0.3333
20812W        W36996   0.596   7.192   5.208 -0.0912 -0.0088  0.0631
20813W        W36997   2.184  12.290  12.290 -0.0002 -0.0457  0.0210
20814W        W36998   7.649  11.548  13.804  0.1655 -0.1574  0.1866
20815W        W36999  10.538  10.951   4.103 -0.0992 -0.0642  0.0719
20816W        W37000   5.963  11.804   1.093 -0.0731  0.0258  0.0488
20817W        W37001   3.274  13.817  12.012  0.1715 -0.1205  0.2061
20818W        W37002  10.694   7.729   1.601  0.0937  0.1797 -0.0619
20819W        W37003  12.506   4.865  15.883  0.0622 -0.1483 -0.2622
20820W        W37004  17.061   0.991   3.168 -0.2841 -0.3520 -0.0647
20821W        W37005   4.620  12.045  14.036 -0.2594 -0.1663 -0.2334
20822W        W37006  16.527   8.884   2.638  0.1846  0.1445 -0.0455
20823W        W37007   4.080   1.943  15.023  0.0493  0.0429  0.1160
20824W        W37008   1.636   6.598   2.505 -0.1799 -0.0638 -0.1653
20825W        W37009   1.204   4.097   4.233 -0.1459 -0.2492  0.0589
20826W        W37010  10.379  13.279   4.139 -0.1998  0.3533 -0.3864
20827W        W37011   1.194  18.103  10.719 -0.3499  0.1203 -0.2148
20828W        W37012   7.930   2.166   2.229 -0.1961 -0.0281 -0.2770
20829W        W37013  13.828  14.481  13.871  0.2342  0.0420  0.0066
20830W        W37014   1.345  14.948  16.112 -0.1883  0.1117 -0.0333
20831W        W37015   7.505  13.641   1.920  0.2014  0.1372 -0.3441
20832W        W37016  13.052   2.588  14.456 -0.0402 -0.1872 -0.0121
20833W        W37017  15.812  18.244   3.635 -0.1719  0.1670 -0.0219
20834W        W37018  14.826  16.925   3.863  0.0920 -0.2491 -0.0613
20835W        W37019   4.106   2.998  15.090 -0.0967 -0.0439  0.1739
20836W        W37020   7.081   5.299  12.679 -0.0703  0.0584 -0.0688
20837W        W37021   8.054   3.433   3.201  0.0881 -0.5447  0.0371
20838W        W37022   5.224  13.128   4.077  0.0913 -0.1242 -0.0094
20839W        W37023  17.964   7.525   4.732  0.1749  0.2994 -0.1583
20840W        W37024  11.826  15.329  12.530 -0.0282 -0.0117  0.0669
20841W        W37025  11.555   3.833   1.818 -0.0183 -0.0375 -0.1678
20842W        W37026   9.638   2.067   1.021  0.0465 -0.0693 -0.0706
20843W        W37027  10.204   8.405  12.343 -0.1341  0.2382  0.1420
20844W        W37028  17.520  13.527   1.656 -0.0775  0.3350  0.2194
20845W        W37029  17.038   6.207  15.537  0.1549  0.0199 -0.0914
20846W        W37030  14.463  12.825   5.389  0.0051  0.1783 -0.0782
20847W        W37031  12.736  13.417  13.414 -0.3058 -0.0455 -0.1784
20848W        W37032  17.517  17.285   0.204  0.1456  0.2367 -0.1621
20849W        W37033  14.254   7.442   1.864 -0.4580 -0.3158  0.2522
20850W        W37034  11.091  17.644   2.856 -0.1865  0.0670  0.1336
20851W        W37035  16.789  12.303   1.084  0.1310  0.4082 -0.0391
20852W        W37036   5.558  16.712  15.892  0.0398 -0.0929 -0.0807
20853W        W37037   5.394  16.764  14.884 -0.0875  0.0617  0.1148
20854W        W37038   1.844  16.556   2.985 -0.3968  0.0432 -0.2193
20855W        W37039  11.089   9.930  11.504  0.3187 -0.0490 -0.2006
20856W        W37040  13.763   0.186  11.763  0.2464  0.0705  0.1968
20857W        W37041   6.073   6.292   0.804 -0.2340  0.0850 -0.1396
20858W        W37042   9.909   6.271  12.676  0.2996  0.0554  0.1813
20859W        W37043  12.921  17.686  11.173 -0.3101 -0.0102 -0.0728
20860W        W37044   4.423   3.348   2.553  0.0822  0.0414  0.0468
20861W        W37045   0.016  11.655   4.389 -0.2575  0.3771  0.0595
20862W        W37046  13.590  16.610   4.995  0.2816 -0.0647 -0.1977
20863W        W37047  18.121   2.211  13.566 -0.1188 -0.0467 -0.1081
20864W        W37048   2.562   7.699  14.171 -0.4513 -0.0736  0.0475
20865W        W37049   3.920   7.694   1.688  0.1010 -0.1731  0.0285
20866W        W37050   4.338   2.461   5.677  0.1062 -0.1843  0.3613
20867W        W37051   1.784  15.499   5.599 -0.3485 -0.0616 -0.1892
20868W        W37052  18.369   3.815   5.461 -0.0522  0.3122  0.1638
20869W        W37053  16.997   5.316  12.528 -0.1041 -0.1475 -0.2873
20870W        W37054  10.632   3.643  12.789 -0.0881  0.2125 -0.0431
20871W        W37055   0.954  16.931   2.734 -0.1519  0.1234 -0.3341
20872W        W37056  15.431  12.366   2.651 -0.3095  0.1848  0.0792
20873W        W37057  14.630  10.619   0.202 -0.2679 -0.3750 -0.2042
20874W        W37058   4.968   9.783   2.305  0.3273  0.3054  0.3518
20875W        W37059  15.703   4.427   1.523 -0.4285 -0.0314 -0.3362
20876W        W37060   9.300  12.392   3.949 -0.2488  0.2770 -0.2650
20877W        W37061   6.749   3.986  14.219 -0.1536 -0.3178  0.1775
20878W        W37062   7.835   2.991   5.024  0.0680  0.2369 -0.1739
20879W        W37063  11.263   9.979  15.235  0.1566  0.1485 -0.1170
20880W        W37064   0.527   0.595   1.607 -0.0413 -0.3557 -0.1582
20881W        W37065   5.545  12.410  14.420 -0.1248  0.0606  0.0312
20882W        W37066   4.930   6.049  15.565  0.0947 -0.0705 -0.1846
20883W        W37067   2.729  15.699  11.288  0.1583 -0.1735  0.5015
20884W        W37068  12.822  11.948  12.670  0.2997 -0.0458 -0.1958
20885W        W37069   6.891   4.176  15.277 -0.1643  0.1889 -0.0557
20886W        W37070  16.864   9.133   5.194 -0.1849  0.1964 -0.2035
20887W        W37071   4.908   4.421  13.537 -0.0804  0.2877 -0.1045
20888W        W37072   5.080  13.802  14.618  0.3060 -0.0993  0.0507
20889W        W37073   4.435  18.235   4.426  0.2157  0.1179 -0.2314
20890W        W37074   9.177  12.007  14.539  0.3402  0.3750 -0.2554
20891W        W37075  12.440  12.996  15.647  0.3403  0.1449 -0.1088
20892W        W37076   4.635   9.890   5.456  0.0804  0.3955  0.0692
20893W        W37077  13.007   5.088  15.932  0.0947  0.0335 -0.2361
20894W        W37078   0.052   1.748   1.791 -0.1539  0.1479  0.1493
20895W        W37079  18.308   2.702   5.096  0.1094  0.3105 -0.3795
20896W        W37080   5.218  11.621   2.446  0.0635  0.2654  0.0365
20897W        W37081  16.349   9.603  14.086  0.0126  0.0029  0.0910
20898W        W37082  12.894  10.610   4.588 -0.0358  0.1220  0.3784
20899W        W37083  18.370   0.660   0.927  0.0942  0.0781 -0.2281
20900W        W37084   7.853  14.757  14.181 -0.1343  0.0739  0.2819
20901W        W37085   6.099   5.048   3.054 -0.2907  0.1748  0.2323
20902W        W37086   9.886   0.524  15.004 -0.0839 -0.0965  0.0394
20903W        W37087   2.447  18.509   4.515 -0.2428  0.1272 -0.0646
20904W        W37088   9.199  12.217  13.646 -0.4454 -0.1412 -0.0290
20905W        W37089  15.904   4.860   0.584 -0.1021 -0.3693  0.0040
20906W        W37090   4.080   7.924  12.467  0.0779  0.0623 -0.0551
20907W        W37091  18.396   1.088  12.727 -0.0008  0.0232 -0.0426
20908W        W37092  15.096   5.659   3.774  0.1773  0.0552 -0.1199
20909W        W37093   2.756   0.658   4.388  0.2414 -0.1511  0.1920
20910W        W37094  12.276  16.404   4.301  0.2179 -0.2650  0.0042
20911W        W37095  14.933   1.612   3.672 -0.2300  0.6269  0.0072
20912W        W37096   4.084   3.923  16.071  0.0944  0.1885  0.0486
20913W        W37097   4.779   3.668   2.020  0.0196  0.2001  0.1243
20914W        W37098   3.047  11.122   5.545  0.0588 -0.2783 -0.1318
20915W        W37099  17.530   7.160   0.326 -0.0345 -0.1085 -0.1869
20916W        W37100  14.069   2.302  14.182 -0.2804  0.1327 -0.1431
20917W        W37101  10.372  10.005  12.529  0.1087  0.4409 -0.3531
20918W        W37102   7.684   9.549   4.922  0.0554 -0.0491  0.0718
20919W        W37103   4.450   7.744  14.451  0.0723 -0.1008 -0.1735
20920W        W37104  13.885   8.936   6.381  0.1391  0.5021  0.1222
20921W        W37105  15.424  13.211   4.932 -0.2642 -0.0156 -0.1235
20922W        W37106   9.079   0.044   3.552  0.3370 -0.4697 -0.0147
20923W        W37107  15.134   4.480   0.914  0.1356  0.1394 -0.0311
20924W        W37108   8.604   2.575   3.896  0.3676  0.2011  0.0130
20925W        W37109  13.354  14.794  15.634  0.1286  0.1017 -0.0199
20926W        W37110  12.892  12.395   3.696  0.1056  0.0011 -0.1034
20927W        W37111   5.328   7.617  13.559  0.0318  0.0656 -0.0745
20928W        W37112   0.273   6.120  13.898  0.0859  0.4044  0.0073
20929W        W37113   6.924  17.757  14.003 -0.1237 -0.0315 -0.0738
20930W        W37114   6.112  15.780  13.353 -0.2274 -0.1280 -0.1133
20931W        W37115   6.487   1.071   0.770 -0.2436  0.0015  0.0072
20932W        W37116   5.893  13.699  11.977 -0.1982 -0.2826  0.0215
20933W        W37117   5.680  14.443   3.907  0.0440 -0.2612 -0.2450
20934W        W37118  10.983  17.004  12.802 -0.0772 -0.1597  0.0621
20935W        W37119   2.486   2.682   5.026 -0.1683  0.1278 -0.0635
20936W        W37120  17.838  17.961  11.208 -0.5250  0.1313 -0.1279
20937W        W37121   1.632   6.093  12.660  0.0604 -0.1868  0.3401
20938W        W37122   5.492   3.180   0.025  0.0119  0.2045  0.0720
20939W        W37123   8.003  11.764   4.300 -0.0838  0.1498  0.2723
20940W        W37124  18.181  17.787  12.829 -0.1011 -0.0448  0.1094
20941W        W37125   7.230  11.265   1.841  0.0893 -0.3195  0.0726
20942W        W37126   6.058   8.458  14.574 -0.1111  0.1218 -0.0386
20943W        W37127  11.340   7.258   3.329  0.0916 -0.0812 -0.1079
20944W        W37128   6.038   2.870  16.076 -0.0796  0.3478 -0.1308
20945W        W37129  17.848   7.418   3.768 -0.1351  0.1128 -0.0263
20946W        W37130   7.651   9.590   2.853 -0.1685  0.4785 -0.2838
20947W        W37131  10.317   5.268  13.699 -0.0774 -0.0098  0.2233
20948W        W37132  10.838  18.465  13.454  0.0200 -0.2247 -0.0228
20949W        W37133   9.987   3.866   4.318 -0.1767 -0.0984 -0.0012
20950W        W37134  17.210   7.052   4.975  0.0060  0.0001 -0.0022
20951W        W37135   8.821   4.488   0.510  0.1057  0.5502 -0.1157
20952W        W37136   5.220  11.282  14.881  0.2087  0.0876 -0.0216
20953W        W37137   8.194   7.663   3.659 -0.0641 -0.0660  0.0611
20954W        W37138  12.158   9.115   2.854 -0.1464  0.2753  0.2038
20955W        W37139  13.604  13.618   0.224 -0.1659 -0.3315  0.2362
20956W        W37140   4.486  15.748   2.420 -0.5223 -0.0657  0.1517
20957W        W37141   2.200   3.720   2.516  0.0461  0.1151  0.2086
20958W        W37142  15.297   0.824   0.322  0.2023  0.0658 -0.0030
20959W        W37143   3.840  12.687  12.515 -0.4657  0.2307  0.1366
20960W        W37144  11.805   2.644  10.966  0.0977  0.0126  0.1389
20961W        W37145  11.704   3.535  11.557  0.1345  0.1934 -0.2493
20962W        W37146   1.830   4.283  12.569 -0.1828 -0.1475 -0.3463
20963W        W37147  12.434  11.904   2.144  0.1525  0.2104  0.0187
20964W        W37148  10.686   1.186   4.225  0.2223  0.0139 -0.2817
20965W        W37149  11.681  15.859   3.827  0.1323 -0.1326 -0.0843
20966W        W37150   8.753  14.139  13.174 -0.0495  0.2578  0.1491
20967W        W37151  16.478   4.540   2.760  0.1680  0.1630  0.0001
20968W        W37152   1.126   2.617   3.676 -0.0507 -0.0510  0.3966
20969W        W37153   3.968  15.023  15.894  0.2544 -0.1754 -0.1410
20970W        W37154   1.949  18.024   4.913  0.1672  0.1753 -0.1997
20971W        W37155   5.890  15.235  13.387 -0.0572 -0.0045  0.1541
20972W        W37156  16.543  12.249   4.215 -0.1710  0.1189  0.0572
20973W        W37157   7.339   5.549   2.790 -0.2329  0.0636 -0.1855
20974W        W37158   3.574  14.453  14.061  0.3828 -0.3158  0.3839
20975W        W37159   4.136  13.793   1.792 -0.0306 -0.0345 -0.2118
20976W        W37160   1.613  17.740  14.381 -0.3873 -0.2680 -0.4259
20977W        W37161   4.652   6.842  12.727  0.1146 -0.0002 -0.0170
20978W        W37162  11.414  14.269   2.590 -0.2355  0.0358 -0.2926
20979W        W37163  13.364   0.164  14.709  0.0659  0.0688  0.1278
20980W        W37164   0.592  16.549   2.755 -0.2191  0.0815 -0.1496
20981W        W37165   0.437   0.746  14.543  0.2972 -0.0202 -0.0776
20982W        W37166   9.486  14.990   4.471 -0.2433  0.2045  0.0414
20983W        W37167   4.870  15.594   3.307 -0.0778  0.1662  0.1100
20984W        W37168   5.451  11.211  15.585 -0.0808 -0.1804 -0.0083
20985W        W37169   8.067   1.729  10.692  0.2779  0.0228  0.0358
20986W        W37170  13.713  11.129   3.196  0.1680 -0.0553 -0.3764
20987W        W37171  12.919  12.752  14.508  0.0484 -0.2790  0.2204
20988W        W37172  11.240   1.082   4.169  0.1765  0.1806  0.0100
20989W        W37173  15.708  12.294  11.020  0.1309  0.2857  0.2649
20990W        W37174   5.135   3.454  13.652 -0.0077 -0.0851  0.0846
20991W        W37175  15.948  11.490   0.461  0.2495  0.1231 -0.2661
20992W        W37176   2.158  11.900  14.757  0.0639  0.1262 -0.1324
20993W        W37177  14.456   2.584  10.386  0.3340 -0.1350 -0.0166
20994W        W37178   4.257   4.945   3.919 -0.2785 -0.0327  0.0216
20995W        W37179   8.392   2.845  15.574  0.1641  0.0252 -0.4253
20996W        W37180  13.100   4.490  12.499 -0.1089 -0.1468  0.0103
20997W        W37181   0.533  16.106  14.475  0.1198 -0.1776 -0.1395
20998W        W37182  11.873  11.351   3.906  0.0332  0.1596  0.1654
20999W        W37183  13.054   7.213  13.026  0.3393 -0.0456 -0.0539
21000W        W37184  12.558   4.758   0.458 -0.2776 -0.0514  0.2949
21001W        W37185   9.291  16.872   2.702  0.1331 -0.2764 -0.0369
21002W        W37186   0.201   4.615  13.740  0.0170 -0.4349  0.2996
21003W        W37187  10.894  18.023  15.608  0.1860  0.2008  0.2345
21004W        W37188   3.462  12.871   3.382 -0.2251  0.0512  0.2259
21005W        W37189  13.452  14.985   2.901 -0.1307 -0.2181  0.1136
21006W        W37190   4.978   2.561   4.723 -0.0446  0.2127  0.1904
21007W        W37191   5.534  12.318   5.029 -0.1167 -0.0202  0.0519
21008W        W37192   0.704   8.564  13.069  0.0048 -0.0479 -0.0489
21009W        W37193  15.347  13.483   0.557 -0.3265 -0.0107  0.2500
21010W        W37194  16.530  17.354  14.151 -0.0969 -0.0502 -0.1349
21011W        W37195  15.788  18.326   4.219  0.0488 -0.2260 -0.0291
21012W        W37196   2.555  15.511   1.551  0.1032  0.0305 -0.0753
21013W        W37197   3.925   1.549  15.509 -0.2838 -0.1707  0.0144
21014W        W37198   6.858   7.952   1.534  0.1540 -0.1146  0.2021
21015W        W37199  13.221   6.024  12.076  0.1721 -0.3729  0.0658
21016W        W37200  18.009  13.702   3.450 -0.0824  0.0380 -0.0689
21017W        W37201  18.416   1.160  14.774  0.1139 -0.2118 -0.0930
21018W        W37202  18.269  14.642  14.592  0.1271 -0.0626 -0.1305
21019W        W37203  11.426   3.518  13.347 -0.3580 -0.0909  0.1228
21020W        W37204   7.348  17.160   0.766 -0.2408 -0.1016 -0.0504
21021W        W37205  16.525  10.352   0.781 -0.2012 -0.2288  0.2108
21022W        W37206  17.871   5.397   3.906  0.0190  0.1021  0.0333
21023W        W37207   3.178   2.016   1.459 -0.2157  0.2216  0.2862
21024W        W37208   2.883   6.948   0.759 -0.0265  0.1859 -0.0992
21025W        W37209   6.568  10.096  14.889 -0.1193 -0.1784  0.3167
21026W        W37210  17.320   0.931   0.388  0.1108 -0.1189 -0.1953
21027W        W37211   1.938   7.165   0.970  0.3461  0.2478 -0.1491
21028W        W37212   2.886  12.639   3.170  0.1421  0.0511 -0.1304
21029W        W37213  17.417  17.578  13.831  0.0408 -0.0751 -0.0906
21030W        W37214   3.383   7.582  11.578 -0.0582  0.0422 -0.1672
21031W        W37215   4.267   8.564  14.641 -0.2339  0.0454 -0.0350
21032W        W37216   2.341   0.125   0.857  0.1436  0.0788 -0.2193
21033W        W37217   0.729   7.012   1.777  0.1450 -0.0204  0.1054
21034W        W37218   2.912   2.564  11.932 -0.0978 -0.1457 -0.2481
21035W        W37219  13.242  12.669  13.108 -0.2915  0.0623  0.1274
21036W        W37220   8.479  18.029   4.619 -0.2837  0.1348 -0.1172
21037W        W37221   1.023   9.036   0.728  0.0279  0.0123 -0.4778
21038W        W37222   5.377  10.254   0.931  0.0825  0.0612  0.2502
21039W        W37223   1.991  18.317  15.601 -0.0404  0.1882  0.1094
21040W        W37224  14.209  15.426  10.926 -0.4634  0.3127 -0.1242
21041W        W37225  10.481   8.579   3.641  0.0561 -0.0198  0.1184
21042W        W37226   2.613   2.377   3.711  0.0016  0.2089  0.2645
21043W        W37227   4.348  12.665  13.201  0.0928 -0.0706  0.0996
21044W        W37228   3.728  14.139  12.018 -0.2145  0.4985 -0.0580
21045W        W37229   5.987   7.656   3.984  0.1826  0.2356  0.1246
21046W        W37230   2.134  11.155   3.149  0.0011  0.0216 -0.0213
21047W        W37231   3.191   5.344   4.048  0.0154 -0.0912 -0.2910
21048W        W37232  13.024   5.722   0.211 -0.2188  0.0118  0.1804
21049W        W37233  17.072  13.371  15.313  0.5957  0.2997 -0.0985
21050W        W37234   6.584  13.050  15.059 -0.0562  0.0231  0.0459
21051W        W37235  14.059  12.943  14.867 -0.0014  0.1606  0.1468
21052W        W37236  15.071  16.136  14.754 -0.2236 -0.4527 -0.1372
21053W        W37237   2.386  18.420   4.972  0.2503 -0.1582  0.0192
21054W        W37238   0.676  11.725   5.906 -0.0049 -0.0217  0.0621
21055W        W37239   9.701   9.100  13.753  0.1770 -0.0137  0.6854
21056W        W37240   9.102   6.237   1.329 -0.0769  0.0640  0.0650
21057W        W37241  15.094   2.152  12.447  0.0714 -0.3468  0.1336
21058W        W37242   4.061   9.242  15.101  0.1435  0.2593  0.1786
21059W        W37243   8.844  17.739   4.461 -0.2639 -0.2043 -0.1741
21060W        W37244   3.531  16.267   1.934 -0.0168  0.2367  0.2024
21061W        W37245   0.260   6.599   4.994 -0.0228 -0.3101  0.1694
21062W        W37246  16.961   5.632   3.742  0.1546 -0.1665 -0.4004
21063W        W37247  17.528   9.673  13.872 -0.2033 -0.0612 -0.1660
21064W        W37248  16.558  13.996  13.730 -0.0255  0.1428 -0.1688
21065W        W37249   4.424   2.480   3.747  0.0823  0.2968  0.0824
21066W        W37250  17.323   6.500   2.088 -0.0215 -0.2230 -0.2610
21067W        W37251   7.306   7.595   0.048  0.0191  0.1506  0.1784
21068W        W37252  15.083  10.495   0.032 -0.2474 -0.0763 -0.0553
21069W        W37253   0.109   9.733   1.114  0.2221  0.0972  0.0247
21070W        W37254  15.207   6.375  10.488 -0.0875 -0.0967 -0.0793
21071W        W37255   2.455   1.192  13.403  0.1847 -0.0038 -0.2320
21072W        W37256  14.810   2.791   1.613  0.1333 -0.3406  0.2355
21073W        W37257  14.505  15.881   0.331 -0.1938 -0.1947  0.0686
21074W        W37258   4.593   8.878   0.364 -0.1862  0.1040 -0.1420
21075W        W37259   1.293  13.027   3.241  0.0325  0.3016  0.0919
21076W        W37260  11.464   0.197   3.971  0.2539  0.2321  0.2466
21077W        W37261   2.478  18.211  11.786 -0.2841 -0.2055  0.2316
21078W        W37262   1.080  11.341   0.622  0.0077 -0.0703  0.3665
21079W        W37263  11.375   6.692  13.552  0.0761 -0.1767 -0.0915
21080W        W37264  16.372  16.180  15.032 -0.0384 -0.1740 -0.1067
21081W        W37265  16.987   5.630  13.440 -0.1002 -0.3636  0.2281
21082W        W37266  12.238   6.453   3.550  0.0662  0.0646  0.0388
21083W        W37267   9.540  12.625  11.844 -0.0121  0.0349 -0.3832
21084W        W37268  10.423   9.092   1.586  0.2637 -0.5177  0.1515
21085W        W37269  13.214   8.031   3.239  0.1653  0.2148 -0.0202
21086W        W37270  10.016   1.035   5.412 -0.0071  0.1781 -0.0735
21087W        W37271  11.476  16.975   2.936  0.1292 -0.0741 -0.1539
21088W        W37272  11.831  11.817   4.049  0.1198 -0.4931  0.0615
21089W        W37273   6.128   9.844   5.293  0.1787  0.1672 -0.0418
21090W        W37274  10.347   6.686   5.617  0.4375  0.0080 -0.3832
21091W        W37275  12.914   6.447   0.784  0.0105  0.3469 -0.5646
21092W        W37276  11.796  16.564  16.029 -0.1090 -0.0515 -0.1492
21093W        W37277   8.705  15.164  11.707 -0.0486 -0.2319  0.0069
21094W        W37278   8.962   2.308   4.064 -0.0094 -0.1159 -0.1267
21095W        W37279   1.390   0.763   1.563 -0.3537 -0.3749 -0.1311
21096W        W37280   9.727  14.886   6.305 -0.0190  0.2818 -0.1028
21097W        W37281  10.981   2.671   0.343  0.3609 -0.0125  0.0376
21098W        W37282   1.769  16.585   4.539 -0.1054  0.2850 -0.2585
21099W        W37283   0.549  17.359  11.259  0.0337  0.2712 -0.1922
21100W        W37284   3.539   2.026  13.435 -0.1371  0.1147  0.0987
21101W        W37285  15.399  17.285  12.721  0.1872 -0.1813  0.2134
21102W        W37286  15.170   6.754  13.001 -0.1870  0.3399  0.0044
21103W        W37287  11.068   3.741   4.949 -0.1000  0.2380 -0.1156
21104W        W37288  13.043  16.205  14.399 -0.0894 -0.0635  0.1909
21105W        W37289  15.140  13.756  13.176 -0.2265 -0.1664 -0.3483
21106W        W37290   6.835   0.544  15.471 -0.0198 -0.0648 -0.1605
21107W        W37291   7.888  15.372   3.287  0.1469 -0.1607  0.1517
21108W        W37292   2.939  15.717   2.513  0.2730 -0.3957 -0.0167
21109W        W37293  17.265  17.100  15.134  0.1467 -0.2601  0.3699
21110W        W37294  14.031   1.435   3.590 -0.1604  0.5063 -0.2710
21111W        W37295   4.488   4.568   3.362  0.1564 -0.0967  0.1517
21112W        W37296   4.623   8.747   4.413  0.2612  0.0084 -0.0984
21113W        W37297  13.277   9.324  14.160 -0.0409 -0.1155  0.1205
21114W        W37298   9.965  10.153   0.669  0.1847  0.0958 -0.1862
21115W        W37299   3.245   8.817   4.965 -0.1326  0.1915 -0.1958
21116W        W37300   7.793  15.166   0.997  0.2622 -0.0837 -0.2048
21117W        W37301  11.501  16.774   5.500  0.2012 -0.3562  0.0929
21118W        W37302  14.325   4.824  13.525  0.0239  0.1496  0.0091
21119W        W37303   0.949   5.074   0.228 -0.0782 -0.1075  0.1976
21120W        W37304   0.626  10.181  13.097 -0.0391  0.0844  0.1153
21121W        W37305   6.502   9.586  13.758  0.2084  0.2316 -0.0250
21122W        W37306   5.335  10.474   5.275 -0.0528 -0.0661  0.2154
21123W        W37307   5.825   4.106  13.911  0.0522  0.0415 -0.3817
21124W        W37308  10.881   9.091   1.978 -0.0228 -0.0476 -0.0152
21125W        W37309  13.271  13.029  14.296 -0.2567  0.1797  0.0841
21126W        W37310   2.460  17.796   3.487  0.1073 -0.0628  0.0215
21127W        W37311  11.233  17.745  12.618  0.1122 -0.0105  0.1069
21128W        W37312   6.276   8.706  12.181  0.0644  0.1337  0.1141
21129W        W37313   6.209  11.765   0.545  0.1814 -0.0614 -0.1389
21130W        W37314  13.847   5.866   3.422  0.2599  0.1135 -0.0013
21131W        W37315  10.917  12.280   1.392  0.1621  0.3389  0.3295
21132W        W37316   9.735   1.465   5.420 -0.3887  0.1852  0.0583
21133W        W37317  18.040  10.786   2.537 -0.0661  0.0547 -0.3187
21134W        W37318   9.891  11.132   1.534 -0.0009  0.0267 -0.0342
21135W        W37319   9.376   1.721   2.008 -0.2326 -0.0511  0.0928
21136W        W37320  14.149   6.165  15.753  0.0537  0.2802  0.0030
21137W        W37321  10.207  12.835  11.851  0.3200 -0.0030  0.1350
21138W        W37322   0.867  16.624   0.517  0.2035  0.0017 -0.5863
21139W        W37323   8.727  10.833   1.608  0.3216  0.2920  0.2242
21140W        W37324  14.297   8.179  12.460 -0.0811 -0.1576  0.3118
21141W        W37325   2.091   8.698  13.073 -0.3008 -0.1636 -0.1442
21142W        W37326  12.350   6.797  13.737 -0.2452 -0.1512  0.0973
21143W        W37327  16.869   9.015  15.340  0.1730 -0.1062  0.1556
21144W        W37328   4.353   8.499  11.762 -0.0384 -0.0151  0.2198
21145W        W37329   1.262   0.699  13.861  0.1898  0.3687 -0.0375
21146W        W37330  16.325   4.969   3.545 -0.0442 -0.2555 -0.2307
21147W        W37331   0.029  10.860  14.885 -0.1003 -0.1860 -0.1387
21148W        W37332  11.325  15.238   0.174  0.1098  0.0394 -0.0373
21149W        W37333  18.409   4.255  13.472 -0.2242 -0.6629 -0.1153
21150W        W37334   9.864   5.192   3.311  0.1400 -0.2367  0.0976
21151W        W37335   8.926   3.031  13.285  0.1824  0.0455 -0.2452
21152W        W37336   1.463   8.266   5.723 -0.1871  0.3310  0.0353
21153W        W37337   1.210   4.256   1.114 -0.3193 -0.0291  0.2036
21154W        W37338  12.559   8.254   0.986 -0.0286 -0.0686 -0.1087
21155W        W37339   4.122  10.165   5.649  0.1746  0.1806  0.1281
21156W        W37340   9.614  15.129   1.908 -0.1005  0.2307  0.1494
21157W        W37341   9.114  14.382  14.228  0.0078 -0.0580 -0.1090
21158W        W37342   6.071  17.059  16.012 -0.0477 -0.0549 -0.1521
21159W        W37343  17.882   1.104   3.280  0.0726  0.0342 -0.0648
21160W        W37344   3.465  10.979  14.334 -0.0545  0.3426  0.1982
21161W        W37345   7.739  13.200   1.949  0.1501 -0.0875  0.0355
21162W        W37346  14.000   9.014  14.521 -0.2326 -0.2574 -0.0734
21163W        W37347  12.093   7.109   1.990 -0.0923  0.3118  0.0306
21164W        W37348  12.501   5.628  11.844 -0.1830 -0.1689  0.3362
21165W        W37349  17.890   7.358  13.562 -0.3060  0.1510 -0.2185
21166W        W37350  11.163  17.346  12.336  0.0633 -0.1083 -0.0056
21167W        W37351  11.811   8.448  14.336 -0.0872 -0.0769 -0.0323
21168W        W37352  11.957   9.953  15.711  0.1781  0.0862 -0.2432
21169W        W37353   2.036   9.786   3.357  0.0356 -0.2601  0.0751
21170W        W37354  15.622   6.563  14.272  0.0245 -0.0183 -0.0723
21171W        W37355   6.978  13.427   4.520 -0.2335 -0.2467 -0.3273
21172W        W37356  17.000   2.963   2.608  0.2090  0.1451 -0.1153
21173W        W37357   3.564  12.512   2.469  0.0787  0.1322  0.1527
21174W        W37358  14.155   3.717   1.240  0.4657 -0.2375 -0.0655
21175W        W37359  16.179   2.269  11.272  0.1851 -0.0195  0.1770
21176W        W37360   1.561   3.918  16.058  0.0605  0.0563  0.1416
21177W        W37361  12.547   4.354  13.628  0.2243 -0.0624  0.0706
21178W        W37362   4.915   5.812  11.172  0.0605 -0.1453  0.1751
21179W        W37363  13.961   1.192  14.257 -0.1333  0.0646  0.0248
21180W        W37364   9.389   4.176   5.263  0.0913 -0.3242 -0.3012
21181W        W37365  13.934   5.316  15.963  0.2192 -0.0120 -0.0487
21182W        W37366  10.329   6.318  12.824 -0.1861 -0.2441 -0.0031
21183W        W37367  12.362  14.009   1.298  0.3669 -0.0337 -0.3291
21184W        W37368   5.508   9.165  11.834 -0.0698 -0.1834 -0.2699
21185W        W37369  14.143  11.150   5.654 -0.0390 -0.0072 -0.0035
21186W        W37370   3.953   9.179   4.365 -0.0080  0.0304  0.0637
21187W        W37371   8.493   2.342   4.494  0.0193 -0.1822 -0.0434
21188W        W37372  13.248   7.869  16.128 -0.0909  0.1409  0.0753
21189W        W37373   1.778   1.181  12.148 -0.0966  0.0425  0.1588
21190W        W37374  12.474  15.067  14.505 -0.0530  0.0899  0.0548
21191W        W37375  11.600   9.621  15.935 -0.1147 -0.0856 -0.2378
21192W        W37376  11.794  15.511   0.635  0.1464 -0.0055  0.1310
21193W        W37377  15.996  13.759   2.615 -0.0123  0.1613  0.1470
21194W        W37378   4.765  13.570   3.586  0.0403 -0.0683  0.1353
21195W        W37379  16.756  11.519  15.423 -0.0121  0.1381 -0.1717
21196W        W37380   9.196  10.814   0.647 -0.1246 -0.0992 -0.1350
21197W        W37381  12.820   3.664  13.806  0.1158 -0.0953 -0.1356
21198W        W37382   9.771   7.076  13.096 -0.0861 -0.0161  0.2805
21199W        W37383   8.302  18.214   5.158 -0.0145 -0.3529 -0.4969
21200W        W37384  16.582  16.332   3.373  0.1247 -0.0757 -0.1411
21201W        W37385   4.418   9.062   3.760 -0.0518  0.0304 -0.1018
21202W        W37386  15.913  18.060  11.747 -0.3211  0.0342  0.4255
21203W        W37387   2.795  10.129   4.493  0.1269  0.2456 -0.1479
21204W        W37388  10.093   3.662  14.966 -0.2980  0.0979  0.4278
21205W        W37389   7.261  11.207   4.091 -0.0716  0.0639 -0.2475
21206W        W37390   5.049  11.827  13.220 -0.2016  0.1269  0.0793
21207W        W37391  14.199   8.966   0.495  0.2726 -0.2803  0.0629
21208W        W37392   4.118   4.808  13.448  0.1775 -0.0381  0.1155
21209W        W37393  15.737  12.899   0.068 -0.1438  0.2151 -0.1641
21210W        W37394   1.838  15.228   4.795  0.0504 -0.1749 -0.3008
21211W        W37395   9.552  16.786   2.214 -0.1594 -0.1074  0.1756
21212W        W37396   0.636  15.225   0.325 -0.2888 -0.0484 -0.1665
21213W        W37397   4.765  14.329   5.870  0.1723 -0.0692  0.2782
21214W        W37398  13.433   9.144   6.464  0.4039  0.0880 -0.0702
21215W        W37399   2.940   9.105  15.327 -0.1658 -0.0162  0.1952
21216W        W37400  11.524  13.262   5.504  0.1317 -0.0019  0.0097
21217W        W37401   0.102  10.353  14.687  0.2337 -0.2772  0.0014
21218W        W37402   6.022   1.391   0.570 -0.2150 -0.1183 -0.2434
21219W        W37403   6.210   7.232   2.442 -0.1560 -0.2226 -0.3885
21220W        W37404   0.277  12.264   5.204  0.1026  0.1894  0.0516
21221W        W37405  17.674  14.942   4.128 -0.0349 -0.0066 -0.1249
21222W        W37406   9.540   4.829   1.012  0.1842  0.0082  0.0341
21223W        W37407   3.825  15.555  12.525  0.0539  0.2098 -0.3598
21224W        W37408   9.121   2.194   3.479 -0.0541 -0.1306 -0.0911
21225W        W37409   2.586   4.116   3.734 -0.2351  0.1974  0.0076
21226W        W37410   5.485   8.501  12.386  0.3565  0.1039  0.0577
21227W        W37411   7.062   4.926   4.614 -0.1860 -0.1135 -0.1435
21228W        W37412   5.323   6.172  13.834  0.1942 -0.0385 -0.0378
21229W        W37413  11.577   9.853   5.484 -0.1457  0.1215 -0.0970
21230W        W37414   4.899   5.462   2.225 -0.2999 -0.1115  0.1165
21231W        W37415  10.800  10.722   5.880  0.1323 -0.0334 -0.4096
21232W        W37416   4.826   3.792   2.466 -0.2100 -0.0997 -0.0036
21233W        W37417   3.630  15.994   0.481  0.4570 -0.1687  0.0120
21234W        W37418   7.743   3.047  13.672  0.0235  0.2185  0.3469
21235W        W37419   3.484  11.244  14.844  0.1585 -0.2259 -0.2112
21236W        W37420  11.637  11.640  14.033 -0.3132 -0.0020  0.0751
21237W        W37421  13.056   6.005   2.166  0.0414 -0.0920  0.0281
21238W        W37422   2.787   2.923   4.725  0.0038 -0.4218 -0.0014
21239W        W37423  13.430   6.335  13.117  0.1925 -0.0381  0.2189
21240W        W37424  12.452  11.954  14.683  0.2591  0.2050  0.0423
21241W        W37425  13.556  13.079  13.807  0.0348  0.2768  0.3150
21242W        W37426   6.413  14.172   4.503 -0.0249 -0.2529 -0.2289
21243W        W37427   1.644   5.054   1.501 -0.3762 -0.3379  0.1930
21244W        W37428   4.363   5.654  10.521  0.0157 -0.0357  0.1335
21245W        W37429  10.971  11.903   2.217  0.0407 -0.1978 -0.1558
21246W        W37430   5.962   6.632  14.854 -0.1547  0.1066 -0.0349
21247W        W37431   7.440  10.341  12.749  0.0669  0.3521 -0.2929
21248W        W37432  10.662   2.492   5.068 -0.1988  0.2287  0.0369
21249W        W37433  10.401  12.974   4.572  0.1115  0.1785 -0.1038
21250W        W37434   9.356  10.162   4.894  0.0199  0.0940  0.0508
21251W        W37435   9.878   6.824   3.316 -0.1187 -0.1840 -0.0796
21252W        W37436   2.304  13.813  14.191  0.0647 -0.3367  0.0835
21253W        W37437   9.035  16.864   2.238 -0.0112  0.1057 -0.3227
21254W        W37438   1.172  18.287   3.113 -0.2713 -0.0641  0.0464
21255W        W37439  16.988   6.891   1.427 -0.1220 -0.0096  0.1592
21256W        W37440  18.332  17.252  12.722 -0.0043  0.2093  0.0600
21257W        W37441   3.677   3.602  13.205 -0.0492 -0.0668 -0.0206
21258W        W37442  13.834   3.134   1.736 -0.4143  0.1856 -0.1230
21259W        W37443   5.647   6.205  15.613  0.4357  0.3071 -0.0117
21260W        W37444  16.060  17.155  14.046  0.1860 -0.2350 -0.2655
21261W        W37445  18.340   3.166  16.038 -0.0138  0.1923  0.1463
21262W        W37446   2.578  17.855  12.138  0.2537  0.0828 -0.1185
21263W        W37447  11.133   4.422  14.652 -0.0477  0.1482  0.0661
21264W        W37448   0.193   2.138  10.238 -0.0195  0.1156  0.0163
21265W        W37449  13.938   3.942   2.789 -0.1734 -0.0192 -0.2282
21266W        W37450  14.248  10.002  14.430  0.1856  0.6382 -0.0281
21267W        W37451   0.276  14.146   4.398  0.4132 -0.1321  0.0690
21268W        W37452   2.769  12.597   4.805 -0.0650 -0.1737  0.1117
21269W        W37453   5.827  16.182   0.414 -0.0754 -0.0585  0.0303
21270W        W37454   7.051   3.533  13.080 -0.0776  0.0362 -0.0895
21271W        W37455   1.747   9.838   4.919  0.0150 -0.1826 -0.0401
21272W        W37456  17.963   6.913   5.292 -0.2728 -0.3148  0.4718
21273W        W37457   5.750   8.465   5.175  0.0124  0.0723  0.0480
21274W        W37458   6.534   4.624  12.169  0.1850  0.2643  0.1284
21275W        W37459   1.624  18.515   2.208  0.1685 -0.0666 -0.0303
21276W        W37460   3.972  17.773   0.090  0.1815  0.0718  0.1658
21277W        W37461   4.363  16.129  13.950 -0.0439 -0.2956 -0.2080
21278W        W37462   1.954  16.474   1.228  0.0457 -0.3263 -0.3806
21279W        W37463   0.028   5.434   0.494 -0.1053  0.0878  0.0191
21280W        W37464   2.355   7.870   5.331  0.1956 -0.0477  0.1910
21281W        W37465   6.433   4.916  15.881 -0.1764 -0.0307 -0.1398
21282W        W37466  10.629   5.663   1.143  0.0640  0.0723 -0.2301
21283W        W37467   7.189   1.649  14.044 -0.1429 -0.2833  0.1573
21284W        W37468  11.317  18.286  13.250  0.5244 -0.2431  0.4338
21285W        W37469   1.827   9.365   6.242  0.0370  0.1978 -0.0343
21286W        W37470  13.601   0.941   1.091  0.1804  0.0729  0.1559
21287W        W37471  11.084   6.841   2.431  0.0697  0.2334  0.0756
21288W        W37472  12.994  13.739  11.632  0.0200  0.0138 -0.3019
21289W        W37473  15.006   4.171   0.024  0.1236  0.2803  0.1117
21290W        W37474   9.517   1.566   2.882  0.2114 -0.3186 -0.1281
21291W        W37475   7.613   3.812  12.364 -0.1906 -0.0969  0.0408
21292W        W37476   2.225   0.002   4.049 -0.0439  0.0347  0.2199
21293W        W37477   8.368   1.032   1.343 -0.0345 -0.0339  0.3524
21294W        W37478  17.189   5.875  11.705  0.3683  0.0824 -0.0636
21295W        W37479  14.558   2.958  12.432  0.0220  0.1833 -0.2834
21296W        W37480  10.245   7.650  11.964  0.1403  0.3956  0.1818
21297W        W37481  13.877   6.102   0.829  0.4797  0.2448  0.2012
21298W        W37482   4.174   3.345   3.938  0.2054  0.2791  0.0294
21299W        W37483   0.927   0.427   3.751  0.1070 -0.1203  0.0379
21300W        W37484   0.196  15.571  11.799  0.1820  0.0621 -0.0948
21301W        W37485   7.440  14.691  15.115  0.3148  0.2049  0.2252
21302W        W37486  12.308  15.876   4.412 -0.0377 -0.1239  0.1706
21303W        W37487   5.554  12.695  11.840 -0.2179  0.0885 -0.0936
21304W        W37488   8.818   7.864   3.610  0.0352  0.1439 -0.0893
21305W        W37489  12.146   4.429   4.290  0.1809  0.2323 -0.3102
21306W        W37490  15.750  15.853   0.539 -0.4691  0.0938  0.1368
21307W        W37491   8.657   5.310   1.829  0.0666 -0.1308  0.1481
21308W        W37492  14.882   4.604  12.942  0.1795  0.1502 -0.1987
21309W        W37493  12.362   5.081  12.418  0.0006 -0.0541 -0.2724
21310W        W37494  12.777   7.847  15.450 -0.0783  0.1274  0.3894
21311W        W37495  12.910  12.343   1.251  0.2266  0.2343  0.1754
21312W        W37496   4.206  17.383   1.906  0.0365 -0.0339 -0.3407
21313W        W37497   2.578   7.997   1.261 -0.1120 -0.1760  0.2365
21314W        W37498   1.887   6.129  15.575  0.1193 -0.1849 -0.0388
21315W        W37499   0.583   8.869   5.526 -0.3357 -0.1593  0.1416
21316W        W37500  12.310   0.341   5.567 -0.2166  0.3653 -0.0567
21317W        W37501   5.099   2.686   2.424 -0.0389  0.2936  0.5977
21318W        W37502  10.835   9.810  12.818  0.3881 -0.4481 -0.2023
21319W        W37503  14.103   5.155   4.188  0.0906  0.4720 -0.0374
21320W        W37504   5.573  15.305  12.712 -0.1302 -0.1604  0.1255
21321W        W37505  10.545   3.816   1.866 -0.0525  0.0803  0.2388
21322W        W37506   6.683  12.796  10.911 -0.2452 -0.0007  0.1317
21323W        W37507   8.513  14.852  14.988 -0.2714  0.0652  0.2350
21324W        W37508   9.969  11.365   5.053 -0.2468  0.0337 -0.2262
21325W        W37509   1.977   0.731  12.152 -0.0339 -0.2128  0.0614
21326W        W37510   5.451  12.025  12.481 -0.1810  0.2060 -0.2402
21327W        W37511   3.013   6.407  16.036 -0.2078 -0.0423 -0.0968
21328W        W37512   2.995  12.142  12.571  0.1172 -0.0042  0.1367
21329W        W37513  16.315  17.134  16.119  0.0222 -0.0718  0.1225
21330W        W37514  11.107   8.612   0.189 -0.0579  0.0845 -0.0341
21331W        W37515   3.291  10.399  14.588  0.1849 -0.0653  0.0573
21332W        W37516   3.155  14.264   0.588 -0.2154 -0.0770 -0.0219
21333W        W37517   8.334   7.942  13.447 -0.0392 -0.1187  0.0375
21334W        W37518   2.259  15.115  13.240 -0.0531 -0.0305  0.1154
21335W        W37519   7.476   3.810  13.304  0.3853 -0.0521  0.0933
21336W        W37520  18.152   2.584   3.859  0.1298 -0.2496 -0.0596
21337W        W37521  13.195   7.778  11.330 -0.1008 -0.1141 -0.1312
21338W        W37522  17.527  17.059  13.155 -0.3695 -0.2921  0.1336
21339W        W37523  15.522   8.123   5.347 -0.1683  0.0571  0.3884
21340W        W37524  17.980   9.520   4.046 -0.4014 -0.1056 -0.0761
21341W        W37525   6.330   8.278   4.829 -0.1358  0.0289 -0.0350
21342W        W37526  16.768  18.381   4.035 -0.0275  0.1917 -0.1930
21343W        W37527   9.531   3.663   4.571  0.0740 -0.0555  0.4022
21344W        W37528   8.305   1.967  15.307 -0.0044 -0.5355 -0.0337
21345W        W37529  14.152  13.823   4.556  0.0627  0.0467  0.0762
21346W        W37530  12.943   4.134  13.861 -0.1180  0.3169 -0.0061
21347W        W37531   0.156   0.854  15.046 -0.0939  0.0920 -0.1149
21348W        W37532   7.340  18.514   4.202 -0.0301  0.3268 -0.0647
21349W        W37533   2.378   4.997  14.496 -0.1614 -0.0700 -0.0799
21350W        W37534  13.637   0.546   6.010 -0.0395 -0.0810 -0.2808
21351W        W37535   4.788  11.157  14.689 -0.1391 -0.0369  0.2590
21352W        W37536   2.421   3.259   3.014  0.1354  0.1066 -0.2049
21353W        W37537  17.347   2.456  12.573 -0.0840  0.2603 -0.0663
21354W        W37538   8.113  11.911   5.534 -0.0687  0.0256 -0.0111
21355W        W37539   8.106  11.185   4.099  0.0034  0.0077  0.0479
21356W        W37540   3.322   5.990  15.781  0.0976  0.3955  0.1939
21357W        W37541  17.360   9.015   2.584  0.0222  0.2776  0.0359
21358W        W37542  17.149   0.129  11.807 -0.0578  0.0742  0.0696
21359W        W37543   5.634  11.272   2.241  0.2511  0.0052 -0.3139
21360W        W37544   7.860  10.112   1.590 -0.2445 -0.0244 -0.1414
21361W        W37545  14.805   0.996   2.406 -0.1554  0.3050 -0.0544
21362W        W37546  18.289  15.456  14.314 -0.1037  0.0509 -0.0495
21363W        W37547  12.587   8.480  14.938  0.0083  0.0936 -0.1982
21364W        W37548  18.079  12.109   3.839  0.3518  0.0692 -0.1413
21365W        W37549  17.819   0.137  14.840 -0.0470 -0.0693 -0.3383
21366W        W37550   2.368   6.170   1.226  0.0635  0.0512 -0.0536
21367W        W37551  16.826   5.718  11.409 -0.0299  0.0074 -0.1367
21368W        W37552  18.251   0.918   3.043  0.1670 -0.0639 -0.3537
21369W        W37553  16.070   9.668  10.939  0.0475  0.0943  0.1679
21370W        W37554   3.011   2.887  13.668 -0.6566  0.1729 -0.4475
21371W        W37555   4.440   7.068   3.890 -0.1096  0.0755 -0.0072
21372W        W37556  11.647   6.957  13.190  0.0347  0.1440 -0.1281
21373W        W37557  10.810  14.062  14.817  0.0278 -0.1201 -0.2119
21374W        W37558   1.062   4.848  12.179 -0.0075 -0.0277 -0.2612
21375W        W37559  11.359  13.793   5.728  0.0374  0.0462 -0.0874
21376W        W37560   9.076   3.496  13.075  0.2478 -0.4279  0.0928
21377W        W37561  18.446  14.902  15.856  0.0586 -0.2211  0.2677
21378W        W37562   1.131  15.900   2.775 -0.1406  0.2412 -0.1621
21379W        W37563   2.731   1.227   1.715 -0.3101  0.0270  0.0704
21380W        W37564  15.907  18.254  15.895  0.0201 -0.0710  0.0061
21381W        W37565  17.947   2.339   5.162 -0.1688  0.1457  0.0586
21382W        W37566  12.582  16.496   4.872 -0.1019 -0.0883 -0.0503
21383W        W37567  14.303   8.697  11.332 -0.5160 -0.0179 -0.0228
21384W        W37568  15.349   6.070   3.507 -0.0728 -0.1275  0.1937
21385W        W37569  15.073  18.488   4.971  0.1202 -0.3412 -0.1424
21386W        W37570   5.322  15.784  13.693  0.2766 -0.1999  0.3866
21387W        W37571  17.510  13.650   2.583  0.0999 -0.1484  0.0228
21388W        W37572  16.716  13.960   2.655  0.2083  0.1782 -0.2366
21389W        W37573   0.674  10.545   4.088  0.0794  0.4075  0.2619
21390W        W37574  10.867   8.208   5.262  0.1191 -0.1281  0.1000
21391W        W37575  17.368   4.460   2.452 -0.0126  0.0347  0.1749
21392W        W37576  10.109  13.444  10.945  0.0104  0.2650 -0.2891
21393W        W37577   9.780   9.927   4.037  0.0623  0.0775  0.3689
21394W        W37578  15.302   4.354   4.883  0.1648 -0.0221  0.0014
21395W        W37579  13.601   4.263  15.270 -0.3654 -0.1732 -0.0806
21396W        W37580  15.478  10.543  14.003 -0.1624  0.3033 -0.1881
21397W        W37581   1.863   4.000  10.679  0.0349  0.0725 -0.3394
21398W        W37582  17.182   9.838  11.423 -0.4072 -0.1115 -0.2374
21399W        W37583   5.825   3.643  15.504 -0.3897 -0.1402  0.0269
21400W        W37584  15.711  14.747  13.779  0.2669  0.3517  0.1073
21401W        W37585   1.141  10.471  15.358 -0.0309  0.0147  0.0960
21402W        W37586   7.442   8.714   3.444 -0.2698  0.1743  0.0840
21403W        W37587   9.580   7.979   3.301 -0.1268  0.1018 -0.0392
21404W        W37588   3.182   9.955  13.714 -0.2406 -0.4053 -0.0100
21405W        W37589   1.058   2.593  12.553  0.0560  0.2332  0.0456
21406W        W37590   8.607   6.015  13.147 -0.5249  0.0949 -0.1192
21407W        W37591   5.325  13.298   2.789 -0.2487 -0.2511  0.3177
21408W        W37592   9.187   9.079   4.813 -0.1488  0.3214  0.1591
21409W        W37593  17.352   3.433  11.986 -0.0352  0.2645 -0.4408
21410W        W37594   9.714  12.539   1.999 -0.1210 -0.1164  0.1909
21411W        W37595   3.946  13.055   3.360  0.0177 -0.0026  0.3349
21412W        W37596  15.908   0.046  11.922 -0.2744  0.1514  0.7255
21413W        W37597   5.701   1.423   2.044  0.0724 -0.2718 -0.1854
21414W        W37598   5.804  15.396  16.130  0.1779  0.1480  0.2974
21415W        W37599   9.636  12.839   5.015 -0.2096  0.4846  0.0687
21416W        W37600  11.896  12.190   5.879 -0.0937 -0.1520  0.1747
21417W        W37601  17.654  14.173   0.371 -0.3370  0.0254  0.1488
21418W        W37602   7.762  12.055   2.179 -0.3039  0.0821 -0.4131
21419W        W37603   1.193  14.292   2.467  0.0450  0.0959 -0.0667
21420W        W37604   7.073   6.057  14.400 -0.0161 -0.1392  0.1833
21421W        W37605   7.260  18.267  11.167 -0.1050 -0.0891  0.2414
21422W        W37606  13.855   3.209  13.735 -0.1606  0.0441 -0.2436
21423W        W37607   7.770   0.345  11.777 -0.1198  0.0265 -0.3142
21424W        W37608  13.626   5.386   4.831  0.3666 -0.2401  0.0322
21425W        W37609   6.992   3.931   5.096  0.2957 -0.0464 -0.0067
21426W        W37610   9.849   5.163  12.925 -0.0573 -0.2686  0.1744
21427W        W37611   3.549   8.324  13.883 -0.1459  0.1124  0.0921
21428W        W37612  12.284   6.564   4.731  0.0183 -0.1178  0.2815
21429W        W37613  17.928   2.480   1.462 -0.2212 -0.3042 -0.0451
21430W        W37614   4.199   4.604  12.314 -0.4711  0.0900 -0.2595
21431W        W37615   7.814   5.544   4.075  0.0494  0.0462  0.0316
21432W        W37616   0.521  13.845   0.375 -0.0711  0.2395  0.0095
21433W        W37617   7.837   1.725   3.853 -0.2426  0.3181 -0.0122
21434W        W37618  16.967  13.699  13.568 -0.2597 -0.0850 -0.5086
21435W        W37619  12.894   8.680   1.862 -0.1018  0.1444 -0.1725
21436W        W37620   8.160  10.486   5.527  0.0975 -0.3706 -0.0254
21437W        W37621  10.339  16.362   5.504  0.1213 -0.1671 -0.0584
21438W        W37622   3.116  11.185   2.186 -0.3339  0.0743  0.2197
21439W        W37623  15.148  13.917   0.490  0.0177 -0.1150 -0.2177
21440W        W37624   5.998   1.791   2.323 -0.2475 -0.2916  0.1069
21441W        W37625   5.296  10.703  12.902  0.0886 -0.0971 -0.1170
21442W        W37626   7.650   1.942  10.798  0.1456  0.0694 -0.1073
21443W        W37627   1.335  16.857   2.994 -0.1598  0.2763 -0.0398
21444W        W37628   7.874  17.080   3.067  0.1385  0.2832 -0.0080
21445W        W37629   1.357   7.962  14.692 -0.1539  0.0289  0.0820
21446W        W37630  12.453  11.727  13.706  0.2853  0.2274  0.0856
21447W        W37631   6.054  13.344   5.572 -0.0560  0.0176  0.0648
21448W        W37632   4.813   2.981  12.318 -0.2174 -0.1179  0.0407
21449W        W37633  12.255  14.781   0.942  0.1047 -0.0754 -0.0073
21450W        W37634   5.739   5.325  12.797  0.1235 -0.2471 -0.0813
21451W        W37635   5.657   3.902   5.336  0.0420  0.3604  0.1499
21452W        W37636   9.832  16.459   5.377  0.1556 -0.2472 -0.6760
21453W        W37637   8.038  11.816  13.469 -0.1182  0.0448  0.3003
21454W        W37638  12.891   8.124  15.019  0.3138 -0.0758 -0.2477
21455W        W37639  10.427  18.385  14.899 -0.1334 -0.3135 -0.2544
21456W        W37640  16.661  18.206  12.967  0.1634 -0.1576 -0.2385
21457W        W37641  13.807   3.391   0.227  0.0657  0.0147  0.0125
21458W        W37642   4.828   0.733   0.014  0.0145 -0.1108  0.2502
21459W        W37643   0.346   8.230   5.588 -0.1948 -0.1644  0.0862
21460W        W37644  12.996  14.166  15.508  0.1644  0.1871 -0.2894
21461W        W37645   0.094   3.175   0.264 -0.2000  0.2022  0.3440
21462W        W37646  10.824   9.174  11.797 -0.3531 -0.1681  0.1022
21463W        W37647   5.166  12.900   0.956  0.1149 -0.0358 -0.2689
21464W        W37648   4.489  10.950   5.551  0.0105 -0.0168 -0.0117
21465W        W37649  15.654   8.409  13.906 -0.2114 -0.0471  0.0464
21466W        W37650  10.817   3.966   4.421 -0.1678 -0.0619  0.0236
21467W        W37651  11.800  18.316   2.329 -0.0219 -0.4182 -0.2709
21468W        W37652  16.445   3.026   3.283 -0.3598 -0.1283 -0.2200
21469W        W37653  15.240  11.163  11.180 -0.1247 -0.0220  0.4819
21470W        W37654  10.746  15.418   5.653 -0.1032  0.1429  0.2883
21471W        W37655   7.276   9.534   3.850  0.2624  0.0282  0.1679
21472W        W37656   8.622  14.944   4.420  0.1310  0.0970  0.1121
21473W        W37657  18.522  14.796  13.658 -0.0925  0.2574  0.1777
21474W        W37658  12.792  15.724  11.722 -0.1058 -0.1697 -0.0648
21475W        W37659   5.091   9.782  12.838  0.0059  0.1023  0.3323
21476W        W37660   4.563   8.184  14.738  0.3300 -0.2331 -0.2333
21477W        W37661  10.909   6.772   4.220 -0.2575 -0.1423  0.2199
21478W        W37662   8.362  17.145   4.617  0.3647  0.0854  0.2749
21479W        W37663   1.357   6.221   3.437  0.2335 -0.0339 -0.1827
21480W        W37664  16.345   2.773   5.136  0.1170  0.3030 -0.2679
21481W        W37665  10.332  18.189  12.202 -0.0432 -0.2511  0.0543
21482W        W37666  11.273   3.600  14.407  0.0152  0.1902 -0.2052
21483W        W37667  15.110  15.028  12.627 -0.0790  0.3170  0.2685
21484W        W37668  14.800   2.178  12.020  0.0312  0.0520  0.2503
21485W        W37669  17.222  12.031  14.973  0.0110  0.1523  0.1059
21486W        W37670   5.428   2.615   2.040  0.0966  0.0080 -0.1740
21487W        W37671  11.530  16.960  15.902 -0.1185  0.0943  0.2908
21488W        W37672   6.371  14.976   2.372 -0.1531  0.0872 -0.0366
21489W        W37673  14.091   4.915   2.926 -0.2605 -0.1822  0.0540
21490W        W37674   6.232   5.057   2.142 -0.2526 -0.3322  0.0693
21491W        W37675   9.119  12.458   0.340 -0.4212 -0.0762 -0.0649
21492W        W37676   7.963   0.930  15.810  0.0597 -0.2069  0.0563
21493W        W37677   9.561  18.333   2.341  0.1240 -0.0529 -0.0326
21494W        W37678  12.892  16.751  11.857 -0.2089 -0.0403  0.1401
21495W        W37679  11.784   0.528  12.149 -0.1330 -0.0739  0.1207
21496W        W37680  16.536   4.583  15.925  0.0690  0.2747 -0.1445
21497W        W37681   9.644  10.442  13.256 -0.0451 -0.2216  0.6515
21498W        W37682   9.806   2.713  15.862  0.0017 -0.0378 -0.1010
21499W        W37683   9.284   2.377  15.076  0.0196 -0.0916 -0.0327
21500W        W37684   3.115   5.883   4.128 -0.2253 -0.0913  0.3779
21501W        W37685  10.809   9.833  15.101  0.1091  0.1448 -0.3911
21502W        W37686  13.980   3.231  14.206  0.0844  0.0676 -0.2462
21503W        W37687   4.908   5.000  12.383 -0.0285  0.1371  0.1392
21504W        W37688   0.256  12.927  10.442  0.4567  0.0399  0.2692
21505W        W37689  15.325  14.285  14.961  0.0998  0.1154 -0.1378
21506W        W37690   1.009   5.723  15.630  0.4263  0.0766 -0.0671
21507W        W37691  16.907  11.326  11.076 -0.1241 -0.1184 -0.2032
21508W        W37692   7.751  17.768  16.136 -0.0839 -0.1462  0.1270
21509W        W37693  15.093  14.546   3.910 -0.1559  0.2508 -0.2288
21510W        W37694  15.169   5.039  15.044  0.1608 -0.0650 -0.1258
21511W        W37695   7.213   4.464   5.522 -0.1537  0.2122 -0.0138
21512W        W37696   1.135  15.395  15.890  0.2716  0.0388 -0.1210
21513W        W37697  18.363   9.545   3.317 -0.3134 -0.0606 -0.2631
21514W        W37698   8.064   3.329   5.394  0.4166  0.2444  0.2295
21515W        W37699   4.040   1.344   3.121 -0.0601 -0.1742  0.0909
21516W        W37700  11.339   8.583  14.466 -0.0837  0.3619 -0.0457
21517W        W37701   7.995  16.577  12.750 -0.0987  0.3638 -0.0829
21518W        W37702  18.317   4.347  11.245  0.2225 -0.0525  0.2093
21519W        W37703  11.202   3.085  14.296  0.1667  0.0263  0.2216
21520W        W37704  16.219  12.732   3.023 -0.0420 -0.5236 -0.2292
21521W        W37705   9.272   5.469   4.823  0.0535  0.1693  0.0343
21522W        W37706  10.608   7.401  11.599 -0.0699  0.0690 -0.2435
21523W        W37707   1.085  17.245   0.857  0.2429 -0.3534 -0.2845
21524W        W37708  10.297  12.326   0.724 -0.1368  0.3803 -0.3566
21525W        W37709  16.610   3.304   1.204  0.1028  0.0784 -0.1523
21526W        W37710   5.815   1.725  14.417 -0.1314  0.3662  0.0536
21527W        W37711   6.894   5.859  13.461 -0.1940  0.0134 -0.0566
21528W        W37712   7.876  13.367  13.927 -0.1397  0.1768  0.0403
21529W        W37713   2.163  11.208  11.401 -0.0139  0.0836  0.2899
21530W        W37714   8.504  16.460  11.602 -0.0864  0.0512 -0.1198
21531W        W37715   7.784  10.666  12.963  0.0036 -0.3326  0.0058
21532W        W37716   2.205   7.094   1.474 -0.2652 -0.1525  0.0486
21533W        W37717  16.428  13.095  11.608 -0.1782 -0.0138 -0.1852
21534W        W37718   8.361   1.722  16.001  0.0602 -0.2855 -0.1313
21535W        W37719   5.267  16.271   2.614  0.0215  0.2346 -0.1944
21536W        W37720   8.130   1.337   4.624  0.2378  0.1011  0.1941
21537W        W37721   5.895  14.217  14.549 -0.0874 -0.0803 -0.1928
21538W        W37722   0.061   8.431  15.900  0.2720  0.0636  0.1841
21539W        W37723   6.296  15.485   4.430 -0.0483  0.0981 -0.4442
21540W        W37724   6.657  17.025   1.831 -0.3308 -0.1987 -0.0321
21541W        W37725   0.125  18.143  11.183  0.0892 -0.1307  0.0052
21542W        W37726  14.866  12.045   4.679 -0.1624  0.3931 -0.0116
21543W        W37727  15.250  11.005   2.224  0.1718  0.0611 -0.1014
21544W        W37728  10.992   0.374  10.954 -0.4064  0.2107 -0.3038
21545W        W37729   6.638   8.222  13.355 -0.0223  0.0735  0.0191
21546W        W37730   0.818   5.594   0.961  0.0481  0.0441 -0.1944
21547W        W37731  16.430   0.677   4.391  0.0592  0.1050 -0.4207
21548W        W37732  13.723  11.642   2.465  0.1133 -0.0341 -0.0627
21549W        W37733   2.384   4.255   4.196  0.1162  0.0013  0.0698
21550W        W37734  16.426   9.635   4.312 -0.1386  0.1238 -0.3173
21551W        W37735   3.552   9.924  13.049  0.2666  0.0510 -0.0342
21552W        W37736  13.071  14.778   1.838  0.1038 -0.0842 -0.0144
21553W        W37737   1.049   5.968   0.749  0.0439  0.0052 -0.1854
21554W        W37738   9.366   2.119  13.220 -0.1077 -0.0146 -0.1864
21555W        W37739   3.059   1.633   0.284 -0.1317  0.1174  0.0423
21556W        W37740   6.015  16.423   3.832 -0.3464  0.0385  0.0821
21557W        W37741  15.554  16.388  11.829 -0.0017 -0.1632 -0.2099
21558W        W37742  10.574   1.286   2.427  0.0555 -0.2289  0.1694
21559W        W37743   8.140   2.611   4.765  0.2312 -0.3550 -0.1866
21560W        W37744   5.167  14.458   0.208  0.0479 -0.0048  0.0485
21561W        W37745   0.023  13.308   5.456  0.0941 -0.1028  0.1481
21562W        W37746  14.901  11.458   2.236  0.5794 -0.2987 -0.0478
21563W        W37747   1.373   5.335  11.991  0.3740  0.0139  0.1493
21564W        W37748  13.341   1.031   2.023  0.3880 -0.1102  0.0332
21565W        W37749  15.798   6.863  15.810  0.0648  0.0319  0.0393
21566W        W37750   7.396  11.962  13.741  0.1930 -0.0303  0.1137
21567W        W37751  14.465   4.618  14.978 -0.1465  0.2322 -0.0745
21568W        W37752  15.057   3.645   1.636  0.1982 -0.0980  0.2300
21569W        W37753  16.114   9.939   1.477  0.0639  0.4305 -0.3167
21570W        W37754  17.866   9.910  13.564  0.0560  0.1517  0.2486
21571W        W37755  17.741   1.550  15.843  0.0412 -0.0220  0.0606
21572W        W37756  16.464  15.291   1.727 -0.2900  0.5763 -0.1080
21573W        W37757  13.588   4.990   3.369 -0.0281  0.0514 -0.4596
21574W        W37758  15.383   7.917  13.755  0.2880 -0.1739 -0.3807
21575W        W37759  13.821  11.162   5.171  0.2390 -0.0600 -0.0738
21576W        W37760  14.013  16.309  15.773  0.3949 -0.2687 -0.4085
21577W        W37761   0.711   8.802   3.735  0.0615  0.1112 -0.2198
21578W        W37762   7.543   9.644  13.318  0.0379 -0.4159 -0.1993
21579W        W37763   2.011  14.522   0.254 -0.1690 -0.1188  0.0285
21580W        W37764   9.050  14.053  14.659  0.3677 -0.4043  0.1062
21581W        W37765   0.921  11.832   4.824 -0.0787  0.1611 -0.2566
21582W        W37766  14.333   8.480  12.863 -0.1398 -0.0660 -0.2307
21583W        W37767   6.590   5.396  15.840 -0.1606 -0.2283 -0.0223
21584W        W37768   6.900   6.532   4.885 -0.0912 -0.0591 -0.0736
21585W        W37769  10.847  12.767   6.246  0.0579  0.3089  0.2395
21586W        W37770   3.187   1.150   0.948  0.1520  0.3166 -0.0401
21587W        W37771  15.424   1.033  11.532 -0.1252  0.1593  0.2978
21588W        W37772  10.386   4.244  15.522 -0.3052 -0.3084  0.0196
21589W        W37773   1.746   5.849   1.417 -0.3628 -0.2168  0.2207
21590W        W37774   9.273  13.890   1.435 -0.1230 -0.0279  0.0675
21591W        W37775   3.579  13.751  14.606 -0.0810  0.3331  0.0195
21592W        W37776   5.378  12.330  10.402 -0.3358 -0.3290  0.3111
21593W        W37777  17.103   7.118   3.215  0.2033 -0.0969 -0.3223
21594W        W37778   4.237  11.290   6.274 -0.1331 -0.0058  0.0603
21595W        W37779   4.904  10.358   0.284  0.0465  0.1409 -0.2056
21596W        W37780  14.834  10.963   1.041 -0.1702  0.0979  0.1022
21597W        W37781   5.216  17.800  14.237  0.1126  0.0018 -0.0335
21598W        W37782   1.677   7.981   4.884 -0.0987  0.0279  0.2246
21599W        W37783  14.162  17.443   4.534  0.0670 -0.2722  0.1277
21600W        W37784  10.319   7.521   4.501  0.0565 -0.1463  0.0268
21601W        W37785   8.449  11.182  14.642 -0.3135 -0.4196  0.0212
21602W        W37786  14.757   8.033  14.288 -0.0644 -0.0017 -0.1380
21603W        W37787   8.984   9.506  13.964 -0.2587  0.3927  0.0200
21604W        W37788  15.266   6.909   4.437  0.1134 -0.1614  0.0195
21605W        W37789  15.681   3.477   5.122 -0.0341  0.2423 -0.2332
21606W        W37790  11.446   2.064   5.174  0.0474 -0.1064  0.1955
21607W        W37791  14.516  10.814  10.145 -0.3537  0.3616  0.1885
21608W        W37792   4.345   6.669   4.702  0.5172  0.0433  0.3768
21609W        W37793  11.838   5.571  11.803 -0.0215  0.2497 -0.1155
21610W        W37794   5.833   4.816   4.495 -0.0964 -0.1570 -0.0967
21611W        W37795   4.328   3.145  12.586  0.3778 -0.1365 -0.1784
21612W        W37796  10.458   5.032  14.763  0.1864  0.4014  0.1226
21613W        W37797   9.930  14.993  14.214 -0.3751  0.2422 -0.2430
21614W        W37798  11.482  18.253   1.893 -0.1730 -0.0804  0.0482
21615W        W37799  17.111   0.376   2.046 -0.1794  0.0949 -0.2097
21616W        W37800  15.453   1.835  10.936 -0.1198  0.1370 -0.1109
21617W        W37801   6.673   5.543  12.400 -0.4038  0.2294  0.1345
21618W        W37802   8.666  12.506   4.465  0.1220 -0.0736 -0.0936
21619W        W37803  12.152   5.777   1.467 -0.0237 -0.1179  0.4182
21620W        W37804  12.687   6.594  12.200 -0.1475 -0.0064 -0.2556
21621W        W37805  11.161   4.445  13.648  0.1667  0.0650  0.2333
21622W        W37806  17.227  11.223   2.368  0.3072  0.1891 -0.2378
21623W        W37807  15.355  15.053   4.431 -0.2193  0.1901  0.1905
21624W        W37808  16.910   4.287   2.501  0.2864  0.3668 -0.0292
21625W        W37809   8.773   6.112  12.480  0.0192 -0.0615  0.3648
21626W        W37810  16.491  13.994   5.578  0.1788 -0.1015 -0.1481
21627W        W37811  14.967  17.924   5.407  0.0626  0.0587  0.0621
21628W        W37812   2.547   0.612   4.848  0.1691 -0.1275  0.1427
21629W        W37813   6.605  10.098  13.624 -0.2055 -0.0073  0.0262
21630W        W37814  13.348  11.721  11.803  0.1164  0.2636 -0.3620
21631W        W37815  13.773  12.565  11.959 -0.0722 -0.1055  0.0310
21632W        W37816   7.418   2.379   0.409 -0.2054 -0.0108 -0.2769
21633W        W37817   5.844   3.270  11.519  0.1857 -0.1624  0.0027
21634W        W37818  17.449   2.837  15.624 -0.1234 -0.2755  0.0030
21635W        W37819  15.214   9.973  12.259  0.0033 -0.1421  0.1256
21636W        W37820  17.454   0.582   1.074 -0.1923 -0.0747  0.0592
21637W        W37821   1.506  11.564   5.472  0.0231 -0.1708 -0.2554
21638W        W37822  11.757  13.678  15.726  0.2804  0.0043  0.2983
21639W        W37823  12.857  11.918   3.464  0.2937  0.0648  0.4614
21640W        W37824   3.332   9.074  15.050 -0.1287 -0.1272  0.2602
21641W        W37825   0.207   1.691   2.695  0.3542  0.1409  0.0440
21642W        W37826   2.495  11.948   2.021 -0.1709  0.0667  0.0118
21643W        W37827   7.284   6.004  13.077  0.3054 -0.0988  0.0893
21644W        W37828   2.727   3.516  10.995  0.0102 -0.0124 -0.0064
21645W        W37829  10.980   5.204   0.396 -0.0571 -0.0505 -0.0333
21646W        W37830   9.735   4.350   1.936 -0.2953  0.0111  0.1412
21647W        W37831   5.236   1.951   4.022  0.0579 -0.0505 -0.3503
21648W        W37832   7.912   1.212  15.283 -0.1245 -0.3526 -0.0808
21649W        W37833  17.979  10.294   2.530 -0.1746 -0.1877 -0.1339
21650W        W37834   5.404  15.635   2.534  0.0821 -0.1222 -0.0126
21651W        W37835  17.886   6.398  13.899 -0.0363  0.1383 -0.1016
21652W        W37836  17.498  10.835   2.032  0.3000 -0.0395  0.0559
21653W        W37837  14.395   6.542  14.985  0.0099  0.1042  0.0542
21654W        W37838  10.359   2.306  11.065  0.1681  0.1309 -0.1768
21655W        W37839   9.382  10.773   4.648  0.0161  0.1108 -0.3481
21656W        W37840   6.249  17.344  12.663 -0.1623 -0.1777  0.1691
21657W        W37841  14.601   1.371  12.309  0.1519 -0.0259  0.3427
21658W        W37842  13.655   5.306  12.609  0.0807  0.0651  0.2030
21659W        W37843   2.070   3.742  16.117  0.0806 -0.2851  0.1347
21660W        W37844   0.340   7.959  13.641 -0.0181  0.1402 -0.0715
21661W        W37845  17.520   6.247   0.371  0.0562 -0.3351  0.5113
21662W        W37846  17.685   2.743  11.068 -0.3331  0.1098  0.0509
21663W        W37847   2.147  13.545  11.789 -0.2486  0.0777 -0.1412
21664W        W37848  17.199   7.593   4.071  0.1480 -0.0896  0.2458
21665W        W37849   9.429   8.396  11.899 -0.1722  0.2202 -0.4242
21666W        W37850   6.252   6.344  10.827 -0.2687  0.0324  0.1536
21667W        W37851   5.652  15.518  14.644  0.0534 -0.1525  0.1155
21668W        W37852  10.411  15.533  12.781  0.1731  0.1958 -0.0977
21669W        W37853   1.252   3.912  11.316 -0.2048  0.2110  0.1103
21670W        W37854   0.212   3.441   1.226 -0.1759 -0.1304  0.1226
21671W        W37855  13.439  16.356  14.121  0.1640 -0.0114 -0.1073
21672W        W37856  14.225   1.962   4.573  0.0382 -0.0356  0.0788
21673W        W37857   1.423   7.579   3.887  0.0099 -0.0122 -0.1665
21674W        W37858  16.811   9.850  14.170 -0.1884 -0.2140  0.5611
21675W        W37859  11.137  11.204  14.703  0.2687 -0.1595 -0.0430
21676W        W37860   6.573  13.281   0.615 -0.3770 -0.0478  0.1701
21677W        W37861  17.781  10.395  12.626  0.0848  0.0026  0.0852
21678W        W37862  16.248   0.039  15.739  0.0319 -0.1949 -0.0153
21679W        W37863  17.850   4.901  11.095 -0.1701  0.1075 -0.0573
21680W        W37864  16.134  17.033   4.376  0.1409 -0.0202  0.0256
21681W        W37865  16.458  10.331   0.188  0.1814  0.1331  0.0335
21682W        W37866  16.551   5.279   3.831 -0.2894  0.2837  0.0306
21683W        W37867  16.863   4.241  12.259 -0.0527  0.2280  0.1993
21684W        W37868   0.778   9.896  15.474 -0.0840 -0.1506  0.3425
21685W        W37869  11.926  12.051  13.893 -0.0602  0.1765  0.1011
21686W        W37870  10.248  17.517   2.795 -0.0763 -0.1095 -0.0307
21687W        W37871   9.988   6.472   5.901 -0.0822 -0.2914 -0.2185
21688W        W37872  10.224   1.300  15.232 -0.2584 -0.0488  0.0112
21689W        W37873   7.817   7.706  15.037  0.0377 -0.4363 -0.1916
21690W        W37874  14.733   8.043  15.765 -0.2640  0.0739 -0.0201
21691W        W37875  17.878  18.350   1.609 -0.1311  0.1418  0.0569
21692W        W37876   1.252   6.388  14.339 -0.2173  0.2175  0.1729
21693W        W37877  16.442  10.782  13.103  0.0736 -0.0742  0.1068
21694W        W37878   3.231   9.877   4.637 -0.0149 -0.1155 -0.1967
21695W        W37879   6.607   7.393   2.746  0.2049  0.2521  0.0167
21696W        W37880   6.493   7.831  13.658 -0.2480  0.2205  0.1239
21697W        W37881   9.532   8.246  11.263  0.3527  0.0045 -0.1059
21698W        W37882   4.111  11.170   3.484  0.1672  0.0364  0.2649
21699W        W37883  15.777  15.496  14.587  0.1786  0.1105 -0.0270
21700W        W37884  15.471  13.894   1.968 -0.2238 -0.0071 -0.3110
21701W        W37885   0.190   4.892   1.984  0.1343  0.2073  0.1872
21702W        W37886  11.499  17.307  12.731  0.1578 -0.1964 -0.3364
21703W        W37887  18.157  14.134   3.592 -0.1868 -0.1332  0.1323
21704W        W37888   9.025   2.302   0.030  0.3162  0.2122  0.3195
21705W        W37889  13.034  18.199  13.980  0.2938  0.0689 -0.1007
21706W        W37890   7.932   8.872  12.742 -0.2506 -0.2558  0.1025
21707W        W37891  15.039   3.040   3.296  0.3602 -0.0117  0.1943
21708W        W37892   0.506   2.818  13.194 -0.1093  0.0008 -0.2604
21709W        W37893   9.645  14.638   1.872  0.2853 -0.1543  0.0915
21710W        W37894   0.271   2.988   2.190  0.0393  0.0019  0.1403
21711W        W37895  11.571   6.030   5.539 -0.2654 -0.1544 -0.0105
21712W        W37896  12.349  18.222  15.171 -0.3094  0.1311 -0.2050
21713W        W37897   6.400   7.376  15.593 -0.3641  0.2100  0.1168
21714W        W37898   5.422   1.197  12.833 -0.0415  0.0164  0.3223
21715W        W37899   8.826  11.754  15.435  0.1914 -0.0171  0.1258
21716W        W37900   6.917   5.150  12.145 -0.0922 -0.1166 -0.3248
21717W        W37901  12.278   0.700   2.230  0.0480 -0.0386 -0.1292
21718W        W37902  10.309  16.099   0.455 -0.0760  0.4166 -0.1296
21719W        W37903  14.019  13.935   0.485  0.1070 -0.0311 -0.0415
21720W        W37904   3.861   9.401   3.538 -0.0897  0.1737 -0.0645
21721W        W37905   6.493  17.209  14.644  0.2330  0.0549 -0.2969
21722W        W37906   8.936   1.002  11.686 -0.1371  0.0599 -0.0249
21723W        W37907  11.996   3.818   2.307 -0.1831 -0.1934 -0.4924
21724W        W37908   1.055   2.037   0.688  0.0933  0.0406 -0.2157
21725W        W37909   2.820   3.471   4.659  0.0270  0.2795  0.1698
21726W        W37910  10.061   4.710   0.896  0.4402  0.1420  0.1128
21727W        W37911  10.128   4.675   1.404 -0.0887 -0.1585  0.3482
21728W        W37912   2.041  15.231   3.303 -0.2122  0.1320  0.1380
21729W        W37913  11.274   6.223  13.997 -0.3626  0.1059 -0.0805
21730W        W37914  10.500  13.367   3.059  0.3320  0.1134 -0.1087
21731W        W37915   3.100  16.189  12.871  0.0046 -0.2098  0.1479
21732W        W37916  17.388   6.779   3.376 -0.0262  0.1228 -0.0989
21733W        W37917   9.854  18.270  11.470  0.0372 -0.2657 -0.1653
21734W        W37918  12.571   1.331   3.170 -0.3179  0.1027  0.2630
21735W        W37919   4.072  14.352  13.944 -0.2660 -0.0867 -0.1456
21736W        W37920   5.288  12.215  11.204  0.1433  0.1141 -0.0280
21737W        W37921   0.293   4.966   1.483  0.1668  0.0709  0.0220
21738W        W37922  15.926  13.025  15.067 -0.1840  0.1610  0.1342
21739W        W37923   5.572   2.805   3.628  0.0625 -0.3018  0.0281
21740W        W37924   2.739  14.023  13.785 -0.0604 -0.1609 -0.2039
21741W        W37925  14.579  11.036   1.481 -0.2242 -0.4310 -0.0784
21742W        W37926  15.303   8.650   5.380  0.0177  0.1802  0.3184
21743W        W37927   7.673  15.030   0.023 -0.1828  0.2360 -0.1082
21744W        W37928  18.029   9.915   3.008 -0.0133 -0.5772  0.0826
21745W        W37929   4.428   7.786  15.055 -0.1391 -0.1813 -0.2914
21746W        W37930   5.310   9.992  12.219 -0.0760  0.0765 -0.1846
21747W        W37931  17.913   5.612  15.285  0.0691 -0.0667  0.0823
21748W        W37932  10.158  15.460  14.524  0.0116 -0.0126 -0.1953
21749W        W37933   1.539   2.096   0.826 -0.1548 -0.1674  0.2535
21750W        W37934  13.294  16.321   3.314 -0.0355 -0.1952 -0.1316
21751W        W37935   6.674  13.430  11.572  0.0928  0.0986 -0.1674
21752W        W37936   1.356   8.537   0.857 -0.0372  0.1767 -0.0437
21753W        W37937   8.034   1.689   4.947 -0.0703  0.0174 -0.2050
21754W        W37938  15.856   6.808  12.850 -0.0594  0.1628  0.3001
21755W        W37939  11.120   7.881   5.576 -0.1253  0.1619  0.1797
21756W        W37940  10.871  17.828   2.414  0.1650 -0.1352 -0.3490
21757W        W37941  16.874  18.497  10.915 -0.2047  0.0090 -0.0219
21758W        W37942  18.280  14.100   5.787 -0.0102 -0.1807  0.2224
21759W        W37943   4.947   0.199  11.181 -0.0210  0.0519 -0.0795
21760W        W37944   0.253  17.517   1.812  0.4259  0.3085  0.0218
21761W        W37945   5.594  10.743  11.658 -0.0896 -0.0808  0.2830
21762W        W37946  17.208  18.200  12.148 -0.2887  0.0911  0.3190
21763W        W37947  11.722   9.456   5.775  0.0567 -0.0327  0.0032
21764W        W37948   9.094  10.214   3.408 -0.0664 -0.2938  0.1145
21765W        W37949   3.517   4.809   2.313 -0.1411  0.0350  0.0318
21766W        W37950  18.135   2.583  11.292  0.3000  0.0392 -0.1338
21767W        W37951   2.439   8.840   3.402  0.1295 -0.1550 -0.1371
21768W        W37952  11.374  13.794   3.819  0.1076 -0.1402  0.3048
21769W        W37953   8.289  10.215  13.734  0.0985  0.4260  0.2363
21770W        W37954   0.774   9.746  11.575  0.3405 -0.4100  0.1099
21771W        W37955   1.441  11.852   5.075  0.0250 -0.1735  0.1888
21772W        W37956   6.563   7.940  11.585 -0.1846 -0.0102 -0.2324
21773W        W37957  13.337  15.818   0.879 -0.1533  0.2230 -0.2600
21774W        W37958  10.844   4.891   0.010 -0.2170 -0.2434  0.0291
21775W        W37959   9.185  14.659   6.244 -0.1517 -0.1520  0.0888
21776W        W37960  16.160   8.395   2.573  0.2186 -0.0109 -0.0897
21777W        W37961   4.020  15.265  13.676  0.4180  0.0478 -0.1292
21778W        W37962  12.623  16.876   4.506 -0.2076  0.2952  0.2854
21779W        W37963  15.656   0.206  12.944 -0.1442  0.2034 -0.2302
21780W        W37964  15.955   6.828  11.586  0.2548  0.2645 -0.1462
21781W        W37965  16.058   4.418  12.738  0.0006  0.2026  0.2996
21782W        W37966  12.829  10.102  14.098  0.1797 -0.0800  0.0099
21783W        W37967  14.534   3.896  13.952  0.0023 -0.0223  0.1327
21784W        W37968   0.507  10.975  11.689 -0.0640 -0.2649 -0.0247
21785W        W37969   9.166   8.114   0.281  0.2761  0.3792  0.0131
21786W        W37970   0.552   2.676   2.606 -0.2098 -0.1835  0.2783
21787W        W37971   9.003   8.747  13.201  0.2065  0.2437  0.0427
21788W        W37972  11.133  15.197   4.733 -0.1819 -0.1770  0.3227
21789W        W37973  17.562  14.007   1.013  0.1621 -0.1293  0.0185
21790W        W37974   4.673   8.054   4.886  0.1100 -0.0046 -0.2003
21791W        W37975  13.202   4.633   2.024 -0.0315 -0.1018 -0.0971
21792W        W37976  10.161  12.747  13.681  0.4933 -0.0415  0.1035
21793W        W37977   7.684   7.876  11.492  0.3960 -0.2732  0.1073
21794W        W37978   8.447   7.909   3.195  0.1643 -0.0400 -0.1011
21795W        W37979  11.134   0.942   1.812  0.0027 -0.2607  0.0724
21796W        W37980  16.039  16.805  14.853  0.3838  0.2165 -0.0523
21797W        W37981  11.480   3.787   0.477  0.3168 -0.1517  0.0474
21798W        W37982   4.294   6.145   4.625 -0.2631  0.2253  0.4069
21799W        W37983  16.611   0.758   3.317  0.1684 -0.1822  0.1208
21800W        W37984   9.202   1.866   3.914  0.2742  0.3485 -0.0748
21801W        W37985  17.891   0.598   0.638 -0.0836 -0.0343 -0.0785
21802W        W37986  13.066  17.510   1.997  0.3211 -0.1064  0.2044
21803W        W37987  17.941   3.040  13.136 -0.0331  0.1532 -0.1513
21804W        W37988   5.955  11.993  12.598  0.3572 -0.1093  0.0133
21805W        W37989   1.401  14.623   3.322  0.3483 -0.2401 -0.1216
21806W        W37990   3.110   0.400  15.189  0.0546 -0.0782 -0.1422
21807W        W37991  18.256   0.436  13.569 -0.4705  0.3757  0.0372
21808W        W37992   4.859  18.028  13.791 -0.0392  0.0408  0.0246
21809W        W37993   8.463  14.578  12.457  0.1206 -0.2552  0.1471
21810W        W37994  10.931   8.522   1.019  0.3398  0.3915  0.0933
21811W        W37995  10.408   1.586  14.005 -0.0840 -0.3513 -0.0480
21812W        W37996  14.445   6.495   1.878 -0.2298 -0.0747 -0.0440
21813W        W37997   0.941  12.621   4.473 -0.1151 -0.1985 -0.0472
21814W        W37998   5.531   3.019   5.152 -0.1647 -0.1723 -0.0816
21815W        W37999   7.820   9.923  14.420 -0.0552  0.0996 -0.0257
21816W        W38000  17.310   1.185   2.269 -0.0192 -0.1329  0.0395
21817W        W38001   8.487   2.854  14.730 -0.3341 -0.1987  0.1323
21818W        W38002  16.026  12.567  15.868  0.2779  0.1473  0.1952
21819W        W38003   0.584   1.338  15.604 -0.3161  0.2697 -0.0286
21820W        W38004   9.117  18.192   1.595 -0.0060 -0.0743 -0.0966
21821W        W38005   8.063   1.816  11.175 -0.0228 -0.1777  0.0832
21822W        W38006   2.595  12.044  13.062 -0.2898  0.0318 -0.1354
21823W        W38007   1.571   4.527   0.936 -0.0978  0.1292 -0.1286
21824W        W38008   8.397   9.383  16.104 -0.2674 -0.0568 -0.2101
21825W        W38009   5.949   0.515   0.202  0.1918 -0.2299 -0.0430
21826W        W38010   7.421   8.520   1.179 -0.2081 -0.0040  0.0495
21827W        W38011   8.061  13.720   4.849 -0.0984  0.1436 -0.2370
21828W        W38012  12.835   4.444   2.356  0.1530  0.1177 -0.1160
21829W        W38013  16.556   6.368  15.310 -0.0845  0.1342  0.2426
21830W        W38014  15.190  10.351  11.833  0.0937  0.0383 -0.0526
21831W        W38015  11.796   0.434   5.346  0.1978  0.0439 -0.1302
21832W        W38016   2.685  17.695   2.656 -0.3535 -0.2028 -0.0681
21833W        W38017   2.046   4.417   4.541  0.1044  0.1236  0.1374
21834W        W38018   4.066   4.937  11.851  0.3967 -0.0498  0.1675
21835W        W38019   7.188  12.724   4.951 -0.3513  0.1105 -0.0312
21836W        W38020  14.493   1.409   2.678  0.1248 -0.0861 -0.0280
21837W        W38021   3.412   9.573   3.249 -0.2785 -0.2755 -0.2399
21838W        W38022   2.129  12.301   5.126 -0.2812 -0.0097  0.4884
21839W        W38023  17.856   9.313   4.465  0.0245 -0.2014  0.5273
21840W        W38024   4.747   5.047  15.165  0.1350  0.1410 -0.0904
21841W        W38025   1.962  11.382   2.649 -0.1703 -0.0708  0.1047
21842W        W38026  11.094  15.636  13.182  0.1747 -0.3172 -0.1522
21843W        W38027  17.480  10.449   3.743 -0.1408 -0.0881  0.3339
21844W        W38028   0.311  15.713   3.957  0.2242 -0.1412  0.1532
21845W        W38029  13.234   0.942  12.313  0.1531 -0.1523  0.0993
21846W        W38030  11.510  18.095  14.348  0.0104 -0.1832 -0.1109
21847W        W38031   3.296  10.969  13.847  0.0797  0.3441  0.1412
21848W        W38032   7.820  12.045  14.677  0.0280  0.0041 -0.4540
21849W        W38033   3.601  15.225  13.972  0.1874  0.2228  0.2046
21850W        W38034  10.339   6.585  13.468 -0.0749  0.0336  0.0273
21851W        W38035  12.158   8.791  15.406 -0.0776 -0.3474  0.1181
21852W        W38036  16.933  15.951   1.888  0.4764 -0.0451 -0.5313
21853W        W38037   1.446   5.953  15.795 -0.0313  0.1777 -0.2275
21854W        W38038   7.578   8.186  15.298  0.3343  0.0902 -0.3228
21855W        W38039   9.417  17.465  14.857 -0.0024  0.2219 -0.0223
21856W        W38040  15.426  17.170  15.420 -0.2434  0.1965 -0.0539
21857W        W38041  17.268  13.509  12.920  0.0633  0.1328 -0.0023
21858W        W38042  14.419   6.842  13.812  0.1967  0.2345 -0.4329
21859W        W38043  15.341  15.516   0.384  0.0556  0.1461 -0.3140
21860W        W38044   9.531  17.475   1.605  0.0659  0.2036 -0.2399
21861W        W38045  17.629   2.058   2.595  0.1097  0.0769  0.0882
21862W        W38046  12.245  16.587  14.368 -0.0531  0.0489  0.1263
21863W        W38047  11.924  13.440  13.738 -0.0656  0.1443  0.2883
21864W        W38048   1.701   2.075   4.543  0.0985  0.1996 -0.0120
21865W        W38049  13.000  10.817  14.580  0.0862  0.0561 -0.1189
21866W        W38050   7.773   4.587  13.650 -0.1489 -0.2050 -0.1511
21867W        W38051  11.597  17.262   1.954 -0.0340 -0.1694  0.0260
21868W        W38052   6.681  10.653   1.180  0.0156 -0.0880 -0.0030
21869W        W38053   0.016  16.653  14.342 -0.0694  0.2470 -0.2413
21870W        W38054   1.088   8.148   0.890  0.2392 -0.0947 -0.2732
21871W        W38055   8.088  14.298  12.306 -0.0361 -0.0072 -0.1758
21872W        W38056  12.689  10.463   0.870  0.0490  0.0259 -0.1485
21873W        W38057  14.494   2.385   1.645  0.3302 -0.1610  0.0295
21874W        W38058   6.067   3.374  13.319  0.0250  0.1797 -0.1078
21875W        W38059  14.225   2.837   1.702 -0.3821 -0.3045  0.1379
21876W        W38060  14.230   8.857   3.642 -0.1551 -0.2929  0.2529
21877W        W38061   1.279  13.163   6.033  0.0751 -0.2281  0.1699
21878W        W38062  14.494  18.048  10.263 -0.2104  0.1824  0.0765
21879W        W38063   0.571   0.579   2.849  0.1146 -0.1140  0.2427
21880W        W38064   0.684  15.784   4.292  0.0324 -0.3581  0.0370
21881W        W38065   6.433   8.186  12.830  0.0703 -0.1664 -0.0923
21882W        W38066   5.871  17.236   3.838  0.2839 -0.0119 -0.0558
21883W        W38067  14.337   0.655   0.105 -0.2435 -0.0460  0.2743
21884W        W38068   4.680  12.859   0.120 -0.1188 -0.1517  0.2124
21885W        W38069   7.844   5.803  15.644 -0.0896  0.0476  0.0346
21886W        W38070   4.667  13.471   3.049  0.1170 -0.2250 -0.0279
21887W        W38071  17.590   0.128   0.787 -0.1402  0.2029  0.3379
21888W        W38072   6.327  11.007   1.348  0.2593  0.1764 -0.2059
21889W        W38073  13.289  14.495   3.766 -0.3500  0.1087 -0.4344
21890W        W38074   8.980  16.420  11.507  0.1213 -0.2225  0.3532
21891W        W38075  17.019   1.810  14.732  0.0757 -0.0226  0.2057
21892W        W38076   5.210  12.779  14.473  0.2169  0.0807 -0.1111
21893W        W38077  17.481  17.104  14.179  0.1299  0.2210 -0.0388
21894W        W38078   8.629   6.242  13.652 -0.4986 -0.1113  0.0041
21895W        W38079  13.204   7.612   0.414  0.2254  0.1484 -0.0789
21896W        W38080  10.666   8.038   2.023 -0.2126  0.2805  0.3295
21897W        W38081  14.653   2.847   4.304  0.1136 -0.0289 -0.3339
21898W        W38082   6.465  12.538  12.004  0.0048  0.3822 -0.0855
21899W        W38083   0.986  16.988  13.339 -0.2114  0.1861  0.1010
21900W        W38084  14.618   9.110  11.457 -0.1293  0.1708  0.0520
21901W        W38085  10.657  13.870   0.898  0.1576 -0.0512  0.1193
21902W        W38086  15.718   2.202   0.437 -0.1085  0.1564 -0.1098
21903W        W38087  15.473   2.349  11.130  0.0538 -0.1246  0.0387
21904W        W38088   7.141   1.162   3.837  0.4075  0.2895 -0.1770
21905W        W38089  16.284  10.603   2.993 -0.0464 -0.0754  0.0527
21906W        W38090  16.965   5.851   0.245  0.2407 -0.1511  0.1438
21907W        W38091   9.445   4.175  15.398 -0.0063  0.1369 -0.1785
21908W        W38092  13.549  14.095  13.956  0.2235  0.0960  0.1325
21909W        W38093   5.805  11.436  13.149 -0.3308 -0.2854  0.0577
21910W        W38094  16.472   9.024  14.062  0.0141 -0.0719 -0.0276
21911W        W38095   7.502   2.076  16.135 -0.1203 -0.0502  0.1627
21912W        W38096   2.784  11.149   1.110  0.2263  0.1422 -0.1728
21913W        W38097  14.600  12.042  14.629 -0.2489 -0.3126 -0.0242
21914W        W38098  10.711  13.837  14.103 -0.3323 -0.1286  0.1869
21915W        W38099  18.510  15.534  13.081 -0.3768  0.4737  0.0140
21916W        W38100  10.052  12.939  12.408 -0.0171 -0.1558  0.0219
21917W        W38101   1.598  11.278   5.084 -0.0662 -0.2340 -0.0826
21918W        W38102  15.883   7.105   2.052 -0.0605  0.0644 -0.1685
21919W        W38103   1.705   3.734   2.575 -0.0739 -0.0628  0.2281
21920W        W38104   2.967  10.970   5.122 -0.1785 -0.1519  0.0859
21921W        W38105  18.064  17.387   1.836  0.3432  0.0817  0.1062
21922W        W38106   0.062  15.261   2.933  0.0459  0.0537 -0.3345
21923W        W38107  15.243   5.553  12.754 -0.1635 -0.1235 -0.0975
21924W        W38108   0.234  17.312   4.468  0.2857  0.1508 -0.2484
21925W        W38109   0.678  12.469  15.206 -0.3090 -0.4393  0.0306
21926W        W38110  12.367  17.678  15.769  0.3863  0.2154  0.3077
21927W        W38111   9.912  11.470  11.408  0.1092  0.1966 -0.1646
21928W        W38112   9.371   4.947   4.446 -0.3966  0.1197  0.0373
21929W        W38113  14.157  15.271  14.065  0.2929 -0.1393  0.1507
21930W        W38114   1.544  15.859   2.483  0.1240 -0.0490 -0.4233
21931W        W38115  13.595   2.964   3.166 -0.0365  0.1974  0.0752
21932W        W38116   2.847   0.654  12.647 -0.0692 -0.0034 -0.3150
21933W        W38117  13.699   7.404  14.072 -0.1128  0.1108 -0.1626
21934W        W38118  16.433  18.000  13.952  0.1011  0.1356 -0.2704
21935W        W38119   4.650   7.403   0.073 -0.0168 -0.2230 -0.1167
21936W        W38120   8.964   2.683   3.564 -0.0945  0.0196  0.1805
21937W        W38121  11.492   7.320  15.332 -0.1056  0.1175 -0.3645
21938W        W38122   6.089  14.032   1.646  0.1079  0.1547  0.0491
21939W        W38123   1.878   5.498   3.856 -0.0234 -0.2789  0.1410
21940W        W38124  12.603  13.009  11.483  0.0689 -0.0936 -0.1542
21941W        W38125  13.078   6.324  15.671 -0.1547  0.1792 -0.2625
21942W        W38126   2.514   9.231   0.051  0.1775 -0.1705  0.0445
21943W        W38127  17.731  10.491   5.523  0.0035  0.0809 -0.2093
21944W        W38128   8.860   4.275   6.254  0.0179 -0.0014 -0.0883
21945W        W38129   6.027   3.661   1.266 -0.1445  0.2569  0.1267
21946W        W38130   4.719  14.207  12.112 -0.4336  0.2108 -0.3250
21947W        W38131  10.638   1.561   4.949 -0.1170  0.3255  0.0190
21948W        W38132   0.646  11.137   0.773  0.0587  0.0876  0.0093
21949W        W38133  17.901  14.435  11.664 -0.1119 -0.0319  0.1355
21950W        W38134  18.383  14.124  11.404 -0.1370 -0.1492  0.3278
21951W        W38135   5.228  14.250  10.248  0.2419  0.0081  0.2775
21952W        W38136  11.875  16.885  12.387  0.0641 -0.2887  0.1700
21953W        W38137   1.464  12.479  15.387  0.0416 -0.1745  0.0252
21954W        W38138   0.537  10.420   2.464 -0.1483  0.0323 -0.3821
21955W        W38139  11.736  11.849  13.061 -0.0802 -0.1378  0.0236
21956W        W38140   1.897   9.416   3.039 -0.2670  0.0979 -0.0022
21957W        W38141  14.132  17.875   5.205 -0.2000  0.0139  0.0355
21958W        W38142  10.192  12.700   1.067  0.2510 -0.0313 -0.1455
21959W        W38143   1.825  12.596  11.274  0.1062  0.2189  0.1480
21960W        W38144   5.564  12.974   0.587  0.1614 -0.0195 -0.2169
21961W        W38145  15.239   9.263  15.729 -0.3688 -0.0053  0.1181
21962W        W38146   3.883   8.419   0.479 -0.0850  0.0102  0.0989
21963W        W38147   6.649  12.902   5.069  0.2103 -0.1725 -0.1798
21964W        W38148   3.095  12.043  11.868  0.0123  0.1971 -0.3340
21965W        W38149  17.205   6.802   4.519 -0.2256  0.2609 -0.2221
21966W        W38150   9.713  16.334   2.071 -0.0897 -0.2040  0.3413
21967W        W38151  16.494  17.867   5.134 -0.0314  0.1127 -0.0139
21968W        W38152   5.525  17.836   3.194 -0.0272 -0.3457  0.1586
21969W        W38153   8.300  11.951  11.780  0.2247  0.1331 -0.2002
21970W        W38154  11.289   4.026   0.986 -0.2395  0.2289  0.0452
21971W        W38155   7.468  15.676  14.190 -0.1882  0.2245  0.0354
21972W        W38156  13.598   8.483  12.945 -0.0415 -0.2533  0.2270
21973W        W38157   3.982  14.633   2.459 -0.0783  0.0161 -0.0867
21974W        W38158  17.912   1.162   1.514 -0.2285 -0.5035 -0.1181
21975W        W38159   6.151   4.849  11.430 -0.0392  0.0431 -0.0969
21976W        W38160   4.513  17.100   2.186  0.0151  0.1169 -0.1066
21977W        W38161   4.972  10.285  13.017  0.3223 -0.1833 -0.0168
21978W        W38162   5.932   9.377  15.734 -0.3283 -0.1208 -0.2092
21979W        W38163   9.886  15.000   2.354 -0.2198  0.1986  0.0120
21980W        W38164  16.497   6.406   1.502 -0.0008 -0.3175  0.3502
21981W        W38165   5.212   9.615  15.845 -0.0497  0.2655 -0.2919
21982W        W38166  17.364   6.046   5.938 -0.2358 -0.0497 -0.1973
21983W        W38167  11.735   3.196  14.635  0.2221 -0.2375  0.1773
21984W        W38168   7.402  11.890   2.942 -0.1354  0.0254 -0.3182
21985W        W38169   4.861  17.680   3.772 -0.0780  0.2903 -0.0575
21986W        W38170   6.852   9.961  14.004 -0.1674  0.0477 -0.2861
21987W        W38171   1.770  15.228  11.904  0.0525  0.1396 -0.1261
21988W        W38172   5.433  18.033  12.592  0.3347  0.0497  0.4198
21989W        W38173   7.972   0.893  14.081  0.0984 -0.0776  0.1854
21990W        W38174  16.710  18.294  11.952  0.1875  0.2112  0.0887
21991W        W38175   6.853   6.199  11.420  0.2791 -0.1145  0.0201
21992W        W38176  10.689   5.131   1.987 -0.6006  0.2194  0.2497
21993W        W38177   3.281  16.527   1.172 -0.1498  0.1704 -0.0226
21994W        W38178   7.765   9.294   1.482 -0.0298 -0.2310  0.0253
21995W        W38179  10.903   8.870   2.458  0.0562 -0.1010 -0.0269
21996W        W38180  11.368   7.450   1.670  0.1366 -0.3691 -0.3100
21997W        W38181   5.984  12.491   1.519 -0.3353  0.1448 -0.0834
21998W        W38182  15.453  16.929  13.417 -0.2519  0.0754 -0.0447
21999W        W38183   6.183   7.540  13.369 -0.1521  0.0055 -0.0950
22000W        W38184   2.672   4.169  10.542  0.0774  0.0252  0.0712
22001W        W38185  15.489   5.878   2.997  0.0925  0.1497 -0.0943
22002W        W38186   0.164   5.393  15.836  0.2828  0.2437  0.2472
22003W        W38187  11.536  14.906   3.478  0.2495 -0.1820 -0.2038
22004W        W38188  18.256  16.000  11.409 -0.4236 -0.0713  0.0440
22005W        W38189   2.881  18.456  15.393  0.0766 -0.0411  0.1037
22006W        W38190  13.985   8.026   1.038 -0.2419 -0.2209  0.0998
22007W        W38191  13.966  13.851  12.607  0.0781  0.0575 -0.1651
22008W        W38192  16.522  13.130  13.829 -0.2075 -0.0894 -0.0315
22009W        W38193   8.835  14.263   1.148  0.2246 -0.0581  0.2768
22010W        W38194  18.069   9.056  16.141 -0.1514  0.2517 -0.0383
22011W        W38195  18.170   4.835  11.896  0.1519  0.1568  0.1583
22012W        W38196  17.726  18.295  10.660  0.0527 -0.1251  0.0433
22013W        W38197  12.300  17.904  14.148 -0.0272  0.3939 -0.0166
22014W        W38198   0.041  11.223  13.884  0.1190 -0.0467  0.2428
22015W        W38199  16.134   4.971  12.873  0.2748  0.2321 -0.1531
22016W        W38200   9.717   1.644  12.063 -0.1083 -0.2328  0.0741
22017W        W38201  10.100   3.807  12.434 -0.0260 -0.1746 -0.0682
22018W        W38202   1.083   1.991  16.074 -0.1646 -0.1938 -0.0019
22019W        W38203  16.684   0.706  16.106 -0.0739 -0.1207 -0.0296
22020W        W38204   1.072  10.508   1.194 -0.0879 -0.0094  0.1443
22021W        W38205  17.370  11.787   5.757  0.2274  0.0801 -0.1705
22022W        W38206  16.376  16.135  15.821  0.0469 -0.0814  0.2339
22023W        W38207  11.068  12.752   2.250 -0.0739 -0.1272  0.0008
22024W        W38208   9.471  15.074   1.000  0.2199 -0.3955 -0.0986
22025W        W38209   0.421  12.868  11.711 -0.0265 -0.2575  0.0361
22026W        W38210  15.650  10.490   4.654 -0.2398 -0.1195 -0.2258
22027W        W38211  17.737  14.792  11.332 -0.0373  0.3301  0.0295
22028W        W38212  10.710  15.252   4.239  0.0821  0.1799 -0.3706
22029W        W38213  16.893  11.951  14.563 -0.1162 -0.1674  0.0125
22030W        W38214  16.556   4.077  14.426  0.0203 -0.2685 -0.1951
22031W        W38215  14.081  16.399  15.301  0.1332  0.2830  0.0548
22032W        W38216   7.964   6.247   3.265 -0.0954 -0.0038  0.2284
22033W        W38217  11.013   1.883  12.543  0.1315 -0.0951  0.2415
22034W        W38218  11.340   6.975   5.462 -0.0084  0.1210  0.1590
22035W        W38219   6.397   7.258   1.834 -0.0826  0.2478 -0.1424
22036W        W38220  10.075  10.116   5.473  0.0742 -0.0698  0.2545
22037W        W38221   1.566   1.493  15.477 -0.2686 -0.0142 -0.0653
22038W        W38222   0.810   9.426  15.618 -0.0191 -0.0980 -0.1802
22039W        W38223   6.906   9.032  14.932  0.1348 -0.0467 -0.0274
22040W        W38224   7.713   0.559   0.639  0.0487 -0.1380 -0.1898
22041W        W38225  17.535   7.443   5.961 -0.2312  0.1322 -0.1507
22042W        W38226  12.709   7.939  11.563  0.1624 -0.2823 -0.0282
22043W        W38227  14.600  12.056   0.189 -0.3203  0.4768  0.2053
22044W        W38228   9.489   0.826   4.425 -0.0781  0.4501  0.2490
22045W        W38229   9.193   9.355   0.974  0.2521  0.1655  0.0030
22046W        W38230  13.130   0.168  13.482 -0.0577 -0.2321 -0.0732
22047W        W38231   1.156  17.809   4.426  0.1178 -0.0170 -0.0348
22048W        W38232   0.900   4.248  15.684  0.1562 -0.2398  0.3215
22049W        W38233  18.142   4.572   3.687 -0.2086 -0.1793 -0.2378
22050W        W38234  16.569  17.293   1.203 -0.0934 -0.0232  0.1309
22051W        W38235  16.167   1.882   3.877  0.0004  0.3733  0.0781
22052W        W38236   5.159  13.318   2.321  0.2249 -0.0258  0.0792
22053W        W38237   8.216  14.123  12.749 -0.0927 -0.1074  0.1804
22054W        W38238   2.587   5.087   1.812  0.1426 -0.1131  0.1817
22055W        W38239   9.802  11.797  12.153  0.3145 -0.2690 -0.0065
22056W        W38240  17.101   0.691   2.426 -0.3822  0.0742  0.1783
22057W        W38241  10.672  13.271   1.685 -0.5431  0.1997  0.1251
22058W        W38242   8.432  10.213   3.087 -0.2174  0.0612 -0.1460
22059W        W38243  14.317   4.319  11.328  0.0060  0.2644 -0.3078
22060W        W38244  15.122   5.660  14.389  0.0417 -0.2902 -0.5244
22061W        W38245   3.800   1.100   5.791  0.1771  0.0278  0.0708
22062W        W38246   4.354  10.620  11.404  0.3544  0.1623 -0.2595
22063W        W38247   6.429  15.574   0.157 -0.0023  0.0894 -0.3349
22064W        W38248  15.029  16.508   4.034 -0.1473 -0.0579  0.0256
22065W        W38249   7.252   0.272   1.441 -0.0496  0.2139 -0.1422
22066W        W38250   5.001  18.385   2.015  0.1077  0.0399 -0.0241
22067W        W38251  10.300  12.292  11.759  0.2277  0.1616  0.0268
22068W        W38252  12.808  15.719   1.818  0.2340 -0.2095  0.1538
22069W        W38253  14.049   2.580   5.655 -0.0457  0.2230 -0.1931
22070W        W38254   8.488  18.113   5.590  0.1703  0.3711 -0.0099
22071W        W38255  11.220   1.945   0.613  0.1828  0.0142  0.2983
22072W        W38256  18.242   8.406  13.076  0.3197  0.6491 -0.0434
22073W        W38257   4.502   7.045  11.873 -0.0316  0.2141 -0.0002
22074W        W38258   6.469   8.609   4.453  0.0011 -0.2753  0.1668
22075W        W38259   7.414   3.680   1.640 -0.3035 -0.1230 -0.0080
22076W        W38260   9.791   8.033   2.729  0.0492  0.0684 -0.1641
22077W        W38261   6.088  15.990  16.131 -0.1496  0.1995  0.0887
22078W        W38262  11.132   1.104   5.069 -0.1539 -0.3309  0.0554
22079W        W38263  16.647   4.379  12.707 -0.2051 -0.0908 -0.0204
22080W        W38264  14.993  10.592   4.725 -0.2938 -0.0738  0.0074
22081W        W38265   3.516   2.851   1.356  0.2814 -0.0803  0.0105
22082W        W38266   4.676   6.654   3.810  0.0095  0.3500  0.1935
22083W        W38267   0.112   8.472   0.267 -0.0547 -0.0300 -0.2182
22084W        W38268  11.865   1.853  13.169  0.1250 -0.0905  0.0651
22085W        W38269   9.826  13.633   0.551 -0.1120  0.2852  0.0201
22086W        W38270   9.331   7.733   3.621  0.0135  0.1419  0.1270
22087W        W38271   9.430   6.187   0.579  0.0206  0.1123  0.2414
22088W        W38272   3.437  10.853  12.534  0.0876  0.0113  0.1780
22089W        W38273   4.497   5.256  15.927 -0.1400 -0.0731  0.1710
22090W        W38274   4.664   4.411   0.293 -0.1242  0.0542 -0.0224
22091W        W38275   4.029  14.888  15.291  0.0307 -0.1097 -0.0986
22092W        W38276  16.466  14.283   1.789 -0.0161  0.4720 -0.1118
22093W        W38277   0.727   6.057  12.391 -0.3139 -0.1738  0.0216
22094W        W38278   1.006  10.979   2.467  0.0769 -0.2019 -0.0797
22095W        W38279  11.082  15.054   6.427  0.0304 -0.0577 -0.1168
22096W        W38280  14.491  18.303  11.415 -0.1097 -0.0995 -0.0463
22097W        W38281   5.716   0.007  11.911  0.0061 -0.0911  0.3267
22098W        W38282  14.612   9.600   0.966  0.2532  0.3608 -0.1000
22099W        W38283  15.973   5.119   3.184  0.1402 -0.1726  0.0256
22100W        W38284  16.468   5.230  16.013 -0.3993 -0.3799 -0.2343
22101W        W38285   6.346  18.024   4.335 -0.1369  0.1135  0.0858
22102W        W38286  17.806   5.606  11.282  0.0847 -0.0921 -0.2872
22103W        W38287   6.706   0.130   0.225  0.0281  0.1206  0.1469
22104W        W38288  10.899   2.899   5.363  0.2713 -0.2298 -0.0344
22105W        W38289   9.974  14.495   5.498  0.0293  0.2388  0.1365
22106W        W38290   0.423   8.133   4.166 -0.0068 -0.0127 -0.2251
22107W        W38291  15.045  18.390   0.673 -0.1116 -0.0554  0.0005
22108W        W38292   0.209  11.050  15.889 -0.2094 -0.3425  0.2387
22109W        W38293  17.081  17.307  15.554  0.4680  0.0983 -0.1211
22110W        W38294  16.672  17.240   4.161 -0.0253 -0.0316  0.2597
22111W        W38295   7.007   7.587   5.388 -0.0972  0.1079  0.1004
22112W        W38296   0.060   2.676   3.602  0.0549 -0.0203 -0.1376
22113W        W38297  16.250  14.626  12.676 -0.0637  0.1563 -0.2681
22114W        W38298  16.629   1.662   3.700 -0.1472 -0.0455 -0.0935
22115W        W38299  13.926   8.546  15.829 -0.1906 -0.1463  0.3537
22116W        W38300   8.694   8.707  12.771 -0.3708 -0.1988  0.1906
22117W        W38301   2.219   7.681  13.768  0.0441  0.0278 -0.0015
22118W        W38302  12.747   8.477  13.329 -0.1024 -0.1645 -0.0174
22119W        W38303   6.468  17.454   0.576  0.2992  0.1003 -0.0579
22120W        W38304   6.726  12.314  12.898  0.1609  0.2971  0.2534
22121W        W38305   4.576  16.338  10.791  0.1117 -0.0116 -0.0644
22122W        W38306   4.738   4.211  15.510 -0.3405 -0.2754 -0.1461
22123W        W38307  17.875   6.185  15.408  0.0033  0.0930  0.0349
22124W        W38308   8.837   8.146  14.873  0.1676  0.1120 -0.5750
22125W        W38309  10.086  10.182   3.708 -0.0217 -0.1955 -0.1571
22126W        W38310  10.955   3.917   0.557 -0.0893  0.2717  0.2327
22127W        W38311   5.285  18.370  12.127  0.1961  0.2242  0.0170
22128W        W38312   1.068  14.070   1.088  0.0126 -0.0625 -0.2467
22129W        W38313   9.092   9.763  13.543  0.1322 -0.1232 -0.2281
22130W        W38314   9.313  11.383   3.698  0.3019 -0.2448  0.0254
22131W        W38315   9.386  16.676   5.416  0.2707  0.2069  0.0140
22132W        W38316  12.625   2.036  14.524 -0.1889  0.0674  0.2640
22133W        W38317  18.351   1.349   0.654  0.0504 -0.3493  0.0954
22134W        W38318   8.955   8.644  12.290 -0.0777 -0.1921  0.0726
22135W        W38319  17.104   1.113   6.047  0.3030 -0.1030  0.1236
22136W        W38320   7.623  17.784   5.041  0.0325 -0.3238  0.1172
22137W        W38321   1.246   4.737   4.929  0.0438 -0.0125 -0.1294
22138W        W38322   6.808   8.791   5.364  0.2292 -0.3374 -0.3824
22139W        W38323   8.877   3.112  11.890  0.1932 -0.3059  0.2949
22140W        W38324   8.943   9.114  15.707 -0.0396 -0.1678  0.0342
22141W        W38325  15.930   9.521   2.152  0.3060  0.1511 -0.1202
22142W        W38326  15.061   2.856   5.474  0.0990  0.0436  0.0654
22143W        W38327  14.101   9.751   1.060 -0.1509 -0.1366  0.1724
22144W        W38328   7.206  15.040   1.076 -0.2361  0.1132  0.1988
22145W        W38329  12.253   6.932   3.776  0.2622  0.0474 -0.1108
22146W        W38330   6.707   6.039   2.361 -0.3097 -0.0240  0.1370
22147W        W38331   1.297   9.090  12.403  0.1421 -0.1825 -0.2736
22148W        W38332   4.704  11.695   0.683 -0.2980  0.0597 -0.0205
22149W        W38333  15.080  15.012   1.151  0.1967  0.0168 -0.2238
22150W        W38334   8.490   3.069  11.079 -0.3755  0.3068  0.4238
22151W        W38335   7.540  14.672   0.859  0.0397 -0.0764  0.1129
22152W        W38336   5.367   8.265  11.944  0.1032 -0.1442 -0.1547
22153W        W38337   5.893   0.973  16.041 -0.1863  0.1264  0.1111
22154W        W38338  11.157  11.032   0.633 -0.2339 -0.0124  0.0903
22155W        W38339   7.144   3.844  14.818  0.3119  0.1065 -0.0061
22156W        W38340   0.533  11.884  12.592  0.2621 -0.0340 -0.1751
22157W        W38341  17.839   2.813   4.287 -0.0422  0.1550 -0.0575
22158W        W38342   6.450  15.398   0.621 -0.0436  0.0570  0.2262
22159W        W38343   7.435   3.874   3.688  0.1605 -0.0848 -0.1239
22160W        W38344   2.844  16.106  10.948 -0.1683  0.1506 -0.3440
22161W        W38345  17.577   4.534  12.609  0.4914 -0.3783 -0.1550
22162W        W38346   7.215  12.793  11.547 -0.0216  0.1224 -0.2229
22163W        W38347   3.332   7.361   4.287  0.0944 -0.0478 -0.1442
22164W        W38348  17.175   0.503  12.107  0.1876  0.1973 -0.0503
22165W        W38349   8.878  16.613  13.718 -0.2144 -0.0275 -0.3502
22166W        W38350   6.134   8.159   3.254  0.0704  0.0641 -0.1420
22167W        W38351   2.506  16.659   1.779  0.1675  0.0029  0.0537
22168W        W38352  17.661  18.342  13.309  0.0131 -0.1026  0.1130
22169W        W38353   8.739  10.357  10.840 -0.2540  0.2402  0.1601
22170W        W38354   5.975   2.753  15.398 -0.2742  0.1083 -0.0446
22171W        W38355  10.253   6.207  11.487 -0.3511  0.2778 -0.1886
22172W        W38356   1.054   4.569   4.344 -0.0757  0.0895 -0.1648
22173W        W38357  13.812   8.771  10.566  0.3127 -0.2014 -0.3014
22174W        W38358  13.580   5.609   4.307  0.0514 -0.3131  0.0826
22175W        W38359   9.179  15.470   5.712  0.2193 -0.3211 -0.1476
22176W        W38360   3.056   3.041  11.056  0.3921  0.3198 -0.1857
22177W        W38361  11.390   3.417   4.778  0.0249 -0.0810  0.0857
22178W        W38362   3.510  13.160  13.207 -0.0211  0.2258 -0.0574
22179W        W38363   7.945   4.664  12.243  0.0243  0.1437 -0.1947
22180W        W38364   8.755   4.770   5.311 -0.0170  0.1355 -0.1230
22181W        W38365  15.041   2.964  12.342 -0.0368  0.1124 -0.1791
22182W        W38366   0.600  13.272   1.013  0.0180 -0.0092  0.0322
22183W        W38367  10.320   9.418  11.552 -0.1407  0.2017 -0.1015
22184W        W38368  14.769  11.430   1.286  0.2596  0.0408  0.1361
22185W        W38369   8.295  13.455  12.945 -0.0875  0.0865  0.1213
22186W        W38370  17.180   7.558  14.053  0.1756 -0.2098  0.0004
22187W        W38371   1.825  10.913   4.894 -0.0020  0.2062  0.2402
22188W        W38372   7.413   1.170   1.791 -0.1693  0.0320 -0.0190
22189W        W38373   1.209   9.787  13.287 -0.1021  0.2410  0.1029
22190W        W38374   3.763   1.579  11.663  0.0498  0.1030 -0.0982
22191W        W38375   6.360   4.719  15.423 -0.1136  0.1612 -0.1450
22192W        W38376   4.102  16.958   5.662 -0.0264 -0.2035 -0.0908
22193W        W38377   8.745   6.994   2.542  0.1250 -0.0029 -0.1833
22194W        W38378   0.222   4.659  14.794 -0.0683  0.4436 -0.0842
22195W        W38379   0.790   0.544   0.028 -0.0789  0.1099  0.0530
22196W        W38380  11.303   2.803  15.709  0.2848 -0.2345 -0.4198
22197W        W38381   6.628   7.922   2.964 -0.2415  0.0200 -0.0526
22198W        W38382   1.125   5.492   5.189  0.2061 -0.0048  0.1272
22199W        W38383  15.528   8.483   1.424  0.1279 -0.1624 -0.0955
22200W        W38384  13.567   4.854   4.954  0.3673 -0.1955 -0.2546
22201W        W38385  15.440   6.888   1.900 -0.1381  0.0985  0.4194
22202W        W38386   7.692   8.992  14.757  0.0008  0.0664  0.1068
22203W        W38387  17.034   6.324   4.620  0.3606  0.1264 -0.0377
22204W        W38388   7.014   5.676  13.892  0.1263  0.1573 -0.1050
22205W        W38389  13.973  10.174   0.731  0.0520 -0.1005  0.0987
22206W        W38390   5.016  17.403  11.223 -0.4520  0.0191  0.1956
22207W        W38391   8.770  12.587  13.214 -0.1356 -0.2315 -0.0063
22208W        W38392   6.711  11.934   3.837 -0.5850  0.1397 -0.2394
22209W        W38393  18.251  13.465  11.476  0.0560  0.3545  0.0150
22210W        W38394   9.827   8.852  13.159 -0.0362  0.0691 -0.2805
22211W        W38395   0.799   3.946  15.193 -0.2382  0.0124  0.0300
22212W        W38396   6.152   0.929  11.084  0.3564  0.0746 -0.0950
22213W        W38397   7.173  13.539  13.879 -0.1260 -0.0791 -0.0696
22214W        W38398  14.071   9.089   4.175 -0.4122 -0.1042 -0.0821
22215W        W38399  14.485   2.515  14.299  0.0700 -0.1053  0.0663
22216W        W38400   7.074  15.668   1.956 -0.0613 -0.1213  0.0917
22217W        W38401   0.570   2.139  16.133 -0.0805 -0.1586 -0.0836
22218W        W38402   4.626   0.776  13.238  0.1235 -0.1013  0.0004
22219W        W38403  15.627   5.860   1.593 -0.0981  0.0763  0.1267
22220W        W38404   5.559  14.007  11.111 -0.1879  0.1542 -0.0742
22221W        W38405  14.741  14.468  14.853 -0.1595  0.0787 -0.4159
22222W        W38406  16.013   8.121   5.308  0.0202  0.0017 -0.1136
22223W        W38407  14.185  11.748   2.651  0.0324 -0.0219 -0.1663
22224W        W38408   7.077   1.494   4.515 -0.3936  0.2397  0.0694
22225W        W38409   8.125  10.840  14.352 -0.0850 -0.1388  0.0560
22226W        W38410   2.561  10.556   4.650 -0.2952  0.0579  0.0893
22227W        W38411   7.065  17.556  14.731  0.0434  0.1600  0.0324
22228W        W38412   2.224   2.903   0.246 -0.0622  0.1520  0.0608
22229W        W38413  14.571  16.882  15.577  0.0507 -0.1111  0.1592
22230W        W38414  14.250   4.664  12.656 -0.0187  0.1814 -0.0662
22231W        W38415  15.408   6.075  15.981 -0.1485  0.3183  0.2614
22232W        W38416  18.278   7.920  12.984  0.1168  0.1285  0.0797
22233W        W38417  13.079   3.661   1.847 -0.0333 -0.1918  0.2283
22234W        W38418   7.542   5.955   3.768 -0.2153  0.2336  0.0639
22235W        W38419  15.425  11.870   1.044  0.1403  0.2016  0.3075
22236W        W38420   0.470   9.310   3.678 -0.1029  0.0136 -0.2423
22237W        W38421   0.318  14.042  11.260  0.0525 -0.2186 -0.0414
22238W        W38422   4.299   8.597   0.726 -0.0915  0.1865  0.0277
22239W        W38423  14.296  16.840  15.185 -0.0435 -0.0494  0.1913
22240W        W38424   2.842   8.339   3.248 -0.1259 -0.0426 -0.0864
22241W        W38425  11.695   7.140  11.699 -0.0282 -0.1639  0.1305
22242W        W38426  16.914   6.832   0.552  0.2528 -0.2079 -0.0282
22243W        W38427  15.623  18.321  13.520  0.2663  0.2163  0.0525
22244W        W38428   8.043   4.798   2.430 -0.0969  0.1136 -0.3317
22245W        W38429   7.821  13.875  12.987  0.0405  0.0943  0.0746
22246W        W38430  15.341  14.043  15.926 -0.0458  0.0358  0.3336
22247W        W38431   7.079   8.236  12.562 -0.0302  0.1874  0.1661
22248W        W38432   3.984   5.155   3.584  0.3223  0.0413  0.4974
22249W        W38433   5.462   1.899  14.133  0.0569 -0.0717  0.0002
22250W        W38434   9.573  10.195   5.488 -0.1241  0.1011 -0.0045
22251W        W38435  12.919   5.193  12.894 -0.2972  0.0165 -0.1036
22252W        W38436  10.406  14.251   2.792 -0.0031 -0.0830  0.0596
22253W        W38437   7.730   3.757  14.234  0.2477  0.1288 -0.1670
22254W        W38438  15.738  10.496  14.417 -0.2272 -0.1343 -0.2659
22255W        W38439   8.213   2.444   1.752  0.1435  0.1459  0.3694
22256W        W38440  17.892   1.241   2.752  0.0917  0.0542  0.3747
22257W        W38441   4.441   5.557   3.295 -0.2336  0.1856 -0.0292
22258W        W38442   8.294  13.407  11.717 -0.1174  0.0810 -0.0841
22259W        W38443  12.161   9.367   5.609 -0.4415 -0.1638  0.3334
22260W        W38444  17.336   4.114  12.471  0.2140 -0.2500  0.0322
22261W        W38445  14.015   8.626   4.794  0.3366 -0.0367 -0.0116
22262W        W38446  14.523  12.494  13.199 -0.0359 -0.0559 -0.1278
22263W        W38447  15.267   2.828   4.306 -0.1727  0.1899  0.0178
22264W        W38448  13.732  13.437  11.682  0.1125 -0.2750  0.0428
22265W        W38449   9.105   5.531   0.157 -0.1360 -0.0247 -0.1444
22266W        W38450  12.639   9.641  15.909  0.0375 -0.0816  0.1165
22267W        W38451   9.342  10.324  12.206 -0.0493  0.1656  0.0408
22268W        W38452  12.450   3.787   0.326 -0.0339  0.2787 -0.1886
22269W        W38453  10.305   0.428   3.564  0.1127 -0.0318 -0.1131
22270W        W38454   4.766   3.684  14.793  0.0945 -0.0480 -0.0259
22271W        W38455   4.995  18.338  14.210  0.3410 -0.2085 -0.0718
22272W        W38456   7.666  15.021   1.759  0.1428 -0.0366  0.0659
22273W        W38457   3.514  17.219   2.417  0.0985  0.3608 -0.0170
22274W        W38458   8.401  10.081  14.293  0.2086 -0.1870  0.1911
22275W        W38459   9.705  15.903   3.003  0.0571  0.1284 -0.2875
22276W        W38460  10.734  16.754  14.751  0.0941  0.0862  0.0166
22277W        W38461   2.220   5.118   1.445  0.1581  0.2123  0.3530
22278W        W38462   9.018  17.478  13.751 -0.0072 -0.0359  0.0865
22279W        W38463   7.012  11.161  13.124  0.2070  0.2201  0.1694
22280W        W38464  17.518  10.374   2.401 -0.4010  0.1304  0.1420
22281W        W38465   3.649   9.240  11.545 -0.2258  0.1741  0.0134
22282W        W38466   6.153   7.879   5.932 -0.1067 -0.0435 -0.2489
22283W        W38467  11.566  16.739   3.878  0.2510  0.1859  0.1859
22284W        W38468   1.808   6.749  13.368 -0.1267  0.1070 -0.3190
22285W        W38469  17.020  11.625   5.011  0.2244 -0.1172  0.0907
22286W        W38470  16.717   6.110  12.175  0.3432  0.0042 -0.0428
22287W        W38471  11.565  17.451   1.421 -0.1341 -0.1350 -0.2655
22288W        W38472   2.652  14.141  13.324 -0.0191 -0.0305  0.0296
22289W        W38473  16.900  10.586   5.741  0.1344  0.2780 -0.2873
22290W        W38474  10.754  17.977  11.662 -0.0014 -0.0266 -0.0566
22291W        W38475  12.960  14.944  14.789  0.0321  0.1877 -0.0506
22292W        W38476  14.106  12.443   2.870  0.2764 -0.0605  0.0089
22293W        W38477   6.115  16.888  11.533 -0.3636 -0.0266  0.0855
22294W        W38478  13.237   4.463   5.369  0.1057 -0.0627 -0.0117
22295W        W38479  12.189  10.417   2.247  0.0317 -0.2225 -0.3628
22296W        W38480  12.793   5.221  14.431 -0.0896 -0.2744  0.0618
22297W        W38481   8.376  14.301   0.868  0.2764  0.1653  0.2026
22298W        W38482   4.462   4.270  13.382  0.3131  0.0380 -0.0842
22299W        W38483   0.229  14.958  12.872  0.0849 -0.5510 -0.0282
22300W        W38484  11.862   1.556  13.560  0.0367  0.3757 -0.0571
22301W        W38485  14.824  11.094  11.626  0.1444 -0.0680 -0.1987
22302W        W38486   5.817  15.099  14.445  0.0679 -0.1758  0.2471
22303W        W38487  11.165  17.185  11.394  0.1593  0.1328 -0.0943
22304W        W38488   0.649  15.716   0.574 -0.2351 -0.1407  0.0403
22305W        W38489  10.457   2.023   4.882  0.3885 -0.1203  0.4129
22306W        W38490  14.902  17.939  14.046  0.0860 -0.2356 -0.3996
22307W        W38491   8.762  15.895  14.889  0.0516  0.2948  0.0289
22308W        W38492   4.994  15.716   1.238  0.1777  0.2987  0.0288
22309W        W38493  15.958   8.164  14.597 -0.1823  0.1774 -0.0859
22310W        W38494   9.784  11.538   3.318 -0.3811  0.1630  0.0084
22311W        W38495   7.467   8.806   4.072  0.1094  0.1841 -0.0099
22312W        W38496   2.831   3.304   0.596 -0.0413 -0.3214  0.4482
22313W        W38497   3.271   0.233   0.598  0.2847  0.1708 -0.0880
22314W        W38498  10.723   9.755   0.278  0.3085  0.1615  0.2328
22315W        W38499   1.249  11.475  15.135 -0.0738 -0.0859  0.0071
22316W        W38500   1.562   8.376  14.233 -0.2141  0.2135  0.1168
22317W        W38501   8.280   9.461  15.254  0.0619  0.0407  0.0783
22318W        W38502   3.601  10.130   3.098  0.1566  0.0268 -0.2530
22319W        W38503   1.728   8.010   1.649  0.1046 -0.1094  0.3846
22320W        W38504  12.098  13.139   0.835 -0.2895 -0.1640  0.2381
22321W        W38505   0.074   4.008  11.773 -0.0395 -0.1945 -0.3304
22322W        W38506   3.648  14.317   5.011 -0.1708 -0.0468  0.0407
22323W        W38507   8.655   2.141   6.391  0.0874 -0.0559 -0.0977
22324W        W38508  10.700   7.284  12.113 -0.1197  0.4385  0.2098
22325W        W38509   6.266   1.470  11.022 -0.2729  0.1402 -0.0333
22326W        W38510  12.006   3.895   5.103  0.0581 -0.1156  0.1514
22327W        W38511   0.302  16.483   0.568 -0.0287  0.1202 -0.2173
22328W        W38512  11.661   5.227   3.294  0.2225  0.1226 -0.2634
22329W        W38513   0.325  10.001  14.967  0.0949  0.2495 -0.0371
22330W        W38514  11.732   8.917   3.082 -0.1981  0.0846 -0.1286
22331W        W38515   0.098   4.894   3.664  0.0803 -0.2392 -0.0038
22332W        W38516   8.244  11.214  15.924  0.1943  0.4450 -0.1701
22333W        W38517  14.154  17.037   3.216 -0.1901  0.0133 -0.2376
22334W        W38518  11.034  11.922  12.585  0.0354 -0.1960 -0.2784
22335W        W38519   9.342   4.091  12.145 -0.1705 -0.0995 -0.2699
22336W        W38520  17.942   2.910  14.276  0.1076 -0.1022  0.0884
22337W        W38521  10.363   7.138  15.990 -0.0093 -0.4529  0.1949
22338W        W38522  11.072  13.753  13.432 -0.0376 -0.1057  0.1858
22339W        W38523  17.891  14.244   1.319 -0.1097  0.0400  0.0093
22340W        W38524   4.144   5.510   1.738 -0.0209 -0.1661 -0.4401
22341W        W38525   1.154   3.166   3.878 -0.0289 -0.0388  0.0165
22342W        W38526  17.161   3.439   2.614 -0.0145  0.0754  0.1497
22343W        W38527   1.944  16.533   0.060  0.0427 -0.5651 -0.3195
22344W        W38528   2.256   6.708   1.763 -0.0249 -0.0373  0.3301
22345W        W38529   8.378   5.750  12.369  0.4266  0.0792 -0.0872
22346W        W38530  16.398  12.780   3.882  0.2557 -0.1338 -0.1580
22347W        W38531   5.603   6.250   4.371  0.0065 -0.1614 -0.6463
22348W        W38532   4.299   8.734   5.589 -0.0335 -0.1520  0.0554
22349W        W38533  12.903   4.642  14.405  0.1011  0.1511 -0.0424
22350W        W38534   2.950   8.418   0.533 -0.2284  0.0929  0.2133
22351W        W38535   0.728   6.646  13.270 -0.3781  0.1793  0.0979
22352W        W38536  17.977  11.539  15.480 -0.1778  0.0502  0.1660
22353W        W38537  15.707  12.379   0.119 -0.2324  0.0390  0.0695
22354W        W38538  14.134   2.058   1.514  0.1224 -0.0296  0.0484
22355W        W38539   7.845  14.201  14.062  0.2950  0.2758  0.1090
22356W        W38540  11.907  17.197  15.309  0.1005 -0.1427  0.0797
22357W        W38541  12.948   6.924   2.576  0.1300 -0.0816  0.1288
22358W        W38542  13.885   2.927  13.319 -0.1242  0.0736  0.0365
22359W        W38543  16.600   8.126  11.602  0.2152 -0.3275 -0.4265
22360W        W38544   1.690   0.528  15.063 -0.0589 -0.2751  0.0537
22361W        W38545   3.924   5.895  14.165  0.2498  0.0978  0.1879
22362W        W38546   1.811   9.327   4.785 -0.2476  0.0592  0.1106
22363W        W38547  16.115  16.888   2.918 -0.2789  0.0653  0.1656
22364W        W38548   0.495   6.145   2.350  0.3332 -0.0860  0.1243
22365W        W38549   0.042  11.653   2.625  0.2821 -0.2681  0.1625
22366W        W38550  16.616  12.774   0.336  0.1002 -0.0727  0.0699
22367W        W38551  14.206   3.417  15.177 -0.1848  0.2552 -0.2886
22368W        W38552  11.631   1.328  14.877  0.1006  0.2013  0.0327
22369W        W38553   9.103   2.504   1.729  0.1703 -0.0240 -0.0567
22370W        W38554   4.317  15.627   5.555 -0.3310  0.0650 -0.1096
22371W        W38555   9.643  16.379   1.099  0.3663  0.1401  0.3318
22372W        W38556   2.715   7.703   1.675  0.1406 -0.0168 -0.2204
22373W        W38557   4.694   9.657   1.006  0.0765  0.0723 -0.1409
22374W        W38558   0.648  11.551   1.135  0.2080  0.0887  0.1307
22375W        W38559   3.487   6.346  14.750  0.0449 -0.0671  0.2349
22376W        W38560  13.848   1.232   5.212  0.0599  0.1908 -0.0789
22377W        W38561  16.421  12.296   0.056  0.1695 -0.1201  0.5377
22378W        W38562  15.062   2.870   1.034  0.2493  0.1199 -0.5065
22379W        W38563   6.572  14.918  13.137 -0.0455 -0.1306 -0.3784
22380W        W38564   6.481  14.308   3.183 -0.1058 -0.0080  0.1611
22381W        W38565   2.003  11.300   4.259  0.2602 -0.3037 -0.0839
22382W        W38566  11.779   1.810   4.822  0.0006  0.0905  0.0574
22383W        W38567   4.129   1.905  12.641 -0.1185 -0.0433  0.1907
22384W        W38568  15.225   6.112   3.941 -0.1100  0.0728  0.0698
22385W        W38569  14.283  16.824  14.306  0.1161 -0.2369  0.0509
22386W        W38570   7.447   1.454   3.564 -0.1417 -0.1202 -0.0263
22387W        W38571  16.856   8.030  12.664 -0.0352 -0.2117 -0.1111
22388W        W38572   0.115  10.071   5.133  0.0843  0.3970  0.3914
22389W        W38573   5.740  17.710   9.992  0.2731  0.1909 -0.1174
22390W        W38574   8.514   3.154  14.269 -0.3179  0.2850 -0.1607
22391W        W38575   4.298  17.103  14.898  0.0535  0.1738 -0.1202
22392W        W38576  13.959  14.235   1.500 -0.0688  0.2222  0.3700
22393W        W38577   1.995  17.822   0.967  0.3253  0.2713 -0.3075
22394W        W38578   4.641  10.665  15.587 -0.1245 -0.0426 -0.1520
22395W        W38579   0.946  11.908   1.446  0.0008 -0.0311 -0.0669
22396W        W38580   1.968   3.410  14.465  0.2369  0.2514  0.0043
22397W        W38581  15.642   9.644  12.197 -0.1240 -0.1876  0.2128
22398W        W38582   3.973   3.492   3.490 -0.1866 -0.0222 -0.3669
22399W        W38583   1.248   0.851  12.991  0.0050 -0.1190 -0.0742
22400W        W38584   3.418   7.502  12.066  0.2656  0.0649 -0.2332
22401W        W38585   1.262  10.113   3.955 -0.1014 -0.1487 -0.2637
22402W        W38586  11.918   7.919   2.136 -0.1308  0.0537 -0.1759
22403W        W38587  16.699  18.470  14.742 -0.0710 -0.0337 -0.0516
22404W        W38588  13.089   9.095   1.619 -0.0525  0.3610 -0.0509
22405W        W38589   4.290  13.476   1.093 -0.0078  0.0161  0.0962
22406W        W38590   4.435   5.215  13.061 -0.1313  0.1871 -0.0501
22407W        W38591   0.002   8.290  11.830  0.0895 -0.2148 -0.1131
22408W        W38592   7.655   0.883   5.785  0.0452 -0.1173  0.0422
22409W        W38593  10.248   5.224  12.133  0.1108  0.0860  0.0416
22410W        W38594  13.897   9.383   4.763  0.0563 -0.2992  0.3643
22411W        W38595  13.805   1.130  13.568 -0.2092 -0.1150  0.3182
22412W        W38596   2.077   5.528  14.181  0.3772 -0.2412  0.1004
22413W        W38597   9.670  17.972  13.285 -0.0437  0.1178 -0.0098
22414W        W38598  15.976   7.276   2.601 -0.0915 -0.0637 -0.1470
22415W        W38599   1.703   2.571  14.668  0.1603 -0.1308 -0.2411
22416W        W38600  10.993   4.781   3.893 -0.2294 -0.2893 -0.0961
22417W        W38601  17.508  14.653  13.043  0.0857  0.2765  0.3715
22418W        W38602   3.368   1.703   3.734 -0.0659  0.1823 -0.1702
22419W        W38603   4.757  14.687  15.353  0.2514  0.0746  0.1221
22420W        W38604   4.768  18.241   0.819  0.2800  0.1118 -0.1072
22421W        W38605   0.870   5.152  11.378  0.0365  0.1324  0.0599
22422W        W38606  16.107   6.777  13.256 -0.3621 -0.1233  0.1887
22423W        W38607  11.618  14.579  14.018  0.2285  0.3373 -0.0431
22424W        W38608   5.008   5.214  16.019 -0.1019  0.1891 -0.1185
22425W        W38609  13.350   9.748  11.350  0.1090 -0.0114 -0.0077
22426W        W38610   3.289  16.622  13.797  0.2203 -0.1708 -0.0875
22427W        W38611  14.773   9.712   3.425  0.2735 -0.1084 -0.1223
22428W        W38612   4.117  16.719  12.620  0.0820 -0.0348  0.2132
22429W        W38613   7.854   2.370  13.086 -0.0456  0.2336  0.3484
22430W        W38614  16.720  12.191   1.537  0.2531 -0.1165  0.1625
22431W        W38615  12.720  16.872  13.499 -0.2366  0.2516 -0.0350
22432W        W38616   1.431  13.979   5.467  0.2117 -0.2033 -0.4075
22433W        W38617   2.161   8.654   4.148 -0.1013  0.0250 -0.1236
22434W        W38618   5.786  14.158  12.152 -0.1767  0.3884  0.3135
22435W        W38619  12.552   4.071   1.161 -0.1853  0.1755  0.0308
22436W        W38620  17.431   3.649   5.757 -0.0771 -0.0175 -0.0302
22437W        W38621  17.074  15.544   2.282 -0.0656 -0.2362 -0.2054
22438W        W38622   2.565  12.424  12.639 -0.1473 -0.1758  0.0288
22439W        W38623   0.527   9.046   3.247 -0.1877  0.0434 -0.1019
22440W        W38624  10.443   1.451   1.289 -0.0184  0.0455  0.2699
22441W        W38625  11.333   5.154  13.117  0.0435 -0.2089  0.0677
22442W        W38626   6.235   7.781   2.646  0.0796 -0.0019 -0.0852
22443W        W38627  14.302   0.062  11.833  0.1615 -0.0447  0.0256
22444W        W38628   5.487  12.355   1.899 -0.1790 -0.1319 -0.1311
22445W        W38629   8.271   1.867   4.033  0.1821 -0.2491  0.1878
22446W        W38630  13.698   3.918  12.956 -0.2988  0.1654  0.1644
22447W        W38631   2.579  13.713   1.855  0.1143  0.0978 -0.2961
22448W        W38632  15.620   5.920   4.290  0.1400 -0.0066 -0.3044
22449W        W38633   4.273   7.078   2.320  0.1515  0.0284 -0.0103
22450W        W38634  14.645  17.647   0.147 -0.0268  0.0205 -0.1419
22451W        W38635  12.027   7.199   6.003  0.0978 -0.1127  0.0333
22452W        W38636   6.055   9.210  12.497  0.2455 -0.2003  0.0792
22453W        W38637   6.791  13.499   2.754 -0.0629 -0.1652  0.3629
22454W        W38638  17.230   6.506   1.591  0.3421 -0.0868  0.2802
22455W        W38639  13.890  17.919   2.790 -0.0468 -0.0452 -0.1678
22456W        W38640   8.615   1.385  10.442  0.2795  0.0174 -0.1534
22457W        W38641   1.368   0.003  14.482 -0.1647  0.0231  0.3246
22458W        W38642  13.147   5.664   3.965 -0.2633  0.1019  0.1437
22459W        W38643   2.186   6.193   3.340  0.1066  0.0194 -0.1996
22460W        W38644  10.787   5.287  13.289  0.0939  0.2040 -0.2271
22461W        W38645   6.542   0.335   2.213  0.2380 -0.2492 -0.1428
22462W        W38646   9.569   6.238   4.688  0.1446 -0.3067 -0.1969
22463W        W38647  10.615   0.884  12.799 -0.0839 -0.0056 -0.0792
22464W        W38648  13.007   8.486  14.633 -0.1311 -0.0683  0.0045
22465W        W38649  14.619   3.368  13.180 -0.0341  0.0169 -0.0530
22466W        W38650   7.657   9.371   0.702  0.1724  0.1055  0.1075
22467W        W38651   1.658   2.918   0.528  0.0408  0.2371  0.0165
22468W        W38652  13.473   4.434  12.880  0.0434 -0.1039  0.0577
22469W        W38653   4.813   7.122  11.386  0.0298  0.2593  0.2050
22470W        W38654  15.469   8.674   0.521  0.3016  0.2171 -0.2324
22471W        W38655   8.119  18.004  14.843 -0.4564  0.1137 -0.4385
22472W        W38656  12.718   0.583   3.878 -0.4656 -0.0306 -0.0483
22473W        W38657  10.966   8.615  11.217 -0.0030  0.3063  0.0236
22474W        W38658   1.147  18.107   2.171 -0.2764 -0.1002  0.5530
22475W        W38659   1.634  15.978  12.845 -0.1259 -0.1244  0.1972
22476W        W38660  13.742  11.437  11.504  0.1083  0.0808 -0.2197
22477W        W38661   7.070   4.673  13.563 -0.3615  0.2184 -0.0958
22478W        W38662  13.948  14.731   1.714  0.0251  0.0875 -0.1871
22479W        W38663   7.280   8.029   1.848 -0.0201  0.1828 -0.0138
22480W        W38664  10.914   3.324   3.032 -0.1627  0.0925  0.2380
22481W        W38665   0.663  14.133  11.612  0.2737 -0.0167 -0.1038
22482W        W38666  12.076  18.279  11.431  0.1110 -0.2086  0.1636
22483W        W38667   0.249   7.839  11.894  0.0618  0.2122 -0.0665
22484W        W38668   0.747  10.386  15.670  0.1066 -0.0374 -0.0361
22485W        W38669  14.892   2.594   4.674  0.0016 -0.3013 -0.1560
22486W        W38670   0.034  15.785  15.756  0.0425 -0.1146  0.2565
22487W        W38671  15.454  14.643   0.535 -0.0084 -0.1914 -0.0763
22488W        W38672   3.263  17.022  14.640  0.4410 -0.0802 -0.5396
22489W        W38673  11.046  14.619   3.328  0.1463  0.4353  0.0476
22490W        W38674   8.183   3.630   4.523  0.1165  0.0225 -0.1013
22491W        W38675  15.558   9.562   2.889  0.0478  0.4154 -0.0955
22492W        W38676   1.321  11.308   2.192 -0.1568  0.1591  0.2801
22493W        W38677   9.556   6.027   1.090  0.0395  0.1639  0.2388
22494W        W38678   2.207  10.094  13.884 -0.0341 -0.1058  0.2218
22495W        W38679   6.353  14.153  15.340  0.1839  0.2277 -0.2284
22496W        W38680   9.340  17.091   1.915  0.2161 -0.0895 -0.0085
22497W        W38681  11.447   3.932   0.024 -0.0988  0.0753 -0.0158
22498W        W38682  14.106  17.858  15.399  0.0432  0.0408  0.0763
22499W        W38683  16.497   9.177   2.213  0.2045 -0.0244  0.0435
22500W        W38684  15.427   7.473  15.273 -0.0224  0.2394 -0.0502
22501W        W38685  15.935   7.479   3.513  0.1962 -0.0156  0.4013
22502W        W38686   7.162  10.588  14.130 -0.0797 -0.1928 -0.3546
22503W        W38687   4.617  12.358  15.452  0.3248 -0.0027 -0.0762
22504W        W38688  16.368   0.732   1.839 -0.3266 -0.0227 -0.1726
22505W        W38689   1.753   8.748  12.417 -0.1999 -0.1683 -0.0026
22506W        W38690   8.885   0.675  13.290 -0.0880 -0.3297 -0.3151
22507W        W38691  12.170  17.008  14.189 -0.1937  0.1715 -0.2145
22508W        W38692   9.837   7.576   5.473 -0.0077 -0.2539 -0.3219
22509W        W38693  13.728  17.619   4.733 -0.0011 -0.1301  0.3123
22510W        W38694   2.434  18.005   0.946  0.0886 -0.2415 -0.4498
22511W        W38695   0.513   8.703   0.013 -0.0748 -0.1777  0.2210
22512W        W38696  10.696   6.530   4.572  0.2366 -0.1614 -0.0460
22513W        W38697   3.357  16.008   3.746  0.1560 -0.3858 -0.3781
22514W        W38698   4.012  12.235  12.400  0.0300  0.2078 -0.0712
22515W        W38699   9.740  14.151   2.119 -0.0526  0.2010  0.0166
22516W        W38700   1.663  14.695   5.420  0.0748  0.0831 -0.1841
22517W        W38701  13.742   8.183  16.098 -0.2006  0.1201  0.1899
22518W        W38702   2.475   4.757  12.196 -0.0013 -0.3965  0.3979
22519W        W38703  11.792  15.697  14.794  0.0598 -0.1369  0.1591
22520W        W38704  13.922  16.968   4.768 -0.2608  0.2928 -0.1955
22521W        W38705  17.758  14.676   0.258  0.1179  0.0410  0.4165
22522W        W38706  12.360  10.269   0.477 -0.0810 -0.2944  0.2136
22523W        W38707  12.940  14.836  12.500  0.0570 -0.1204  0.1683
22524W        W38708   2.073  11.292  15.768 -0.0941 -0.0624  0.2085
22525W        W38709  14.781  16.458  13.891  0.0076  0.1593 -0.2106
22526W        W38710  17.678   1.387  15.343 -0.0534 -0.4194  0.0155
22527W        W38711  11.366   5.899   2.103 -0.2902 -0.2348  0.0178
22528W        W38712   1.347  10.775   0.414  0.2506 -0.0723 -0.2048
22529W        W38713   2.610   9.404  13.548  0.0630 -0.1961 -0.3624
22530W        W38714   2.734  17.613   4.714  0.3144  0.0148 -0.0664
22531W        W38715   1.905  17.712   0.451 -0.3424  0.3428 -0.2863
22532W        W38716   7.493   7.716   0.865  0.0759  0.1557  0.2872
22533W        W38717   0.813  11.025   5.210 -0.0593 -0.0673 -0.2589
22534W        W38718  12.033   3.133  10.930 -0.0439  0.2262  0.0212
22535W        W38719  11.698  14.855   0.131  0.1538 -0.1472 -0.0938
22536W        W38720   3.469   4.867   0.420  0.0572 -0.1373  0.1613
22537W        W38721   7.753  11.606  11.049  0.1323  0.1870 -0.0966
22538W        W38722   8.047  15.138  12.881  0.3964  0.2438 -0.1123
22539W        W38723   0.396  14.828   2.079 -0.4126  0.1300  0.0464
22540W        W38724  17.677   1.084  12.735  0.2442 -0.0949 -0.0188
22541W        W38725   1.951   1.049   9.803  0.0027 -0.0839  0.0102
22542W        W38726   8.622   6.529  13.222 -0.2806  0.1996 -0.1821
22543W        W38727  15.366  17.847  14.760 -0.4327 -0.1943  0.1117
22544W        W38728  11.901  13.758  12.220  0.0082  0.3490 -0.2115
22545W        W38729   2.006  14.010   0.156  0.3114 -0.1628 -0.0092
22546W        W38730   8.470  18.289  13.344 -0.0838  0.1904  0.0984
22547W        W38731  12.373  12.323   5.133  0.2799  0.1765  0.3043
22548W        W38732  15.039   5.557   5.820 -0.1636 -0.1871 -0.1467
22549W        W38733  16.624   5.139   2.511  0.1901 -0.3121  0.0738
22550W        W38734   8.704  17.245  11.264 -0.2027 -0.2564  0.2104
22551W        W38735   9.823   2.991  11.507 -0.1287  0.1438  0.5417
22552W        W38736  11.070  12.279  15.710 -0.2766 -0.0923  0.0733
22553W        W38737  15.133  10.738   1.736 -0.0642  0.0926 -0.0886
22554W        W38738  11.018   0.504  13.717  0.1058  0.2590  0.2532
22555W        W38739  16.514   0.938  10.806 -0.3753  0.0156  0.3458
22556W        W38740  10.193   8.637  12.894 -0.0985 -0.1542 -0.1626
22557W        W38741  12.781   1.162  12.458  0.3265  0.0132  0.1635
22558W        W38742  16.220   1.623   5.421  0.3528  0.2965  0.0149
22559W        W38743   6.709   2.302  12.350 -0.0911 -0.1650 -0.2758
22560W        W38744   1.269   1.219   1.708 -0.0381 -0.0371  0.0100
22561W        W38745  10.782  11.299  15.080 -0.0445 -0.3088  0.0602
22562W        W38746   4.082  13.476   4.518 -0.1339  0.3388 -0.1556
22563W        W38747  17.373   7.949  13.347 -0.0043  0.2082 -0.1786
22564W        W38748   0.341   8.909  14.151 -0.0211 -0.5044  0.2563
22565W        W38749  13.655   3.498   1.529 -0.0904 -0.1437  0.1544
22566W        W38750   3.790   6.726  11.978  0.1383 -0.1664  0.2756
22567W        W38751   3.030   7.722   4.602  0.2890  0.1612 -0.1582
22568W        W38752  12.223  11.889   5.101 -0.1277 -0.1697  0.2893
22569W        W38753   9.624  12.074  14.375 -0.1223 -0.0400 -0.0509
22570W        W38754  10.841   4.687   3.334  0.3036  0.1716 -0.2162
22571W        W38755   9.914   3.302  12.347 -0.0143 -0.2780  0.2495
22572W        W38756  10.505  17.918  15.922 -0.1564  0.1843  0.0443
22573W        W38757   9.913  17.302   5.121  0.1781 -0.0494  0.3144
22574W        W38758  14.020  10.942  14.000  0.1715  0.2131  0.3297
22575W        W38759  13.572  15.013  13.475  0.1029 -0.2514 -0.1951
22576W        W38760  10.067  16.869   0.773  0.1771 -0.2650 -0.2014
22577W        W38761  15.244  15.775   1.643  0.0698 -0.2391  0.3150
22578W        W38762  16.540  17.636  11.106  0.0431 -0.2289 -0.1644
22579W        W38763  18.044   0.700  12.676 -0.0102  0.0766 -0.1397
22580W        W38764   3.648  10.976   2.153 -0.2784 -0.2354 -0.1374
22581W        W38765  14.880   4.447  14.742 -0.0611 -0.2050 -0.1566
22582W        W38766   5.843  11.023  12.794 -0.0433 -0.0658  0.1793
22583W        W38767   0.991   4.576   0.797 -0.1717 -0.1635  0.6163
22584W        W38768   1.809  14.925   1.699  0.3578 -0.0106 -0.3175
22585W        W38769   2.726   5.541   4.176  0.0343  0.1769 -0.2306
22586W        W38770  12.885   8.200   1.974 -0.2986 -0.2349  0.2193
22587W        W38771  17.055   1.311  11.540  0.2037  0.0571 -0.0286
22588W        W38772   1.851   9.098  11.667 -0.0967  0.0778  0.3760
22589W        W38773   3.803   2.442   4.502 -0.2146 -0.0145 -0.2435
22590W        W38774  10.438   3.836   2.738  0.0711 -0.1695  0.1914
22591W        W38775  11.956   1.482  12.076 -0.2328  0.2018 -0.1698
22592W        W38776   7.815   0.749   6.252  0.1780  0.2467  0.4881
22593W        W38777   7.253  12.398  13.093  0.4021 -0.0935  0.0926
22594W        W38778  12.770   8.859   0.286 -0.4083  0.2458  0.0296
22595W        W38779   4.094   6.400  12.268 -0.0087 -0.3914 -0.2690
22596W        W38780  17.372   5.182   5.540 -0.2024 -0.3827 -0.2030
22597W        W38781  16.691   3.877   0.227  0.2162  0.3710 -0.4587
22598W        W38782   1.597  10.266  15.425 -0.3051  0.2800  0.1435
22599W        W38783  14.900  16.575   1.922  0.1324  0.3501  0.2826
22600W        W38784  13.873  10.842   6.009  0.2163 -0.2607 -0.2531
22601W        W38785   9.722  17.765   4.293  0.1547  0.2881  0.0173
22602W        W38786   4.151   4.340   0.204  0.3499 -0.1509  0.2553
22603W        W38787  11.938  13.648   2.988  0.4007  0.1921 -0.0626
22604W        W38788  17.948  14.580   3.825  0.1112  0.4474 -0.1233
22605W        W38789   6.951  12.316   4.755 -0.0996  0.0456  0.1141
22606W        W38790  12.859   0.881  15.151 -0.3550  0.0889  0.3047
22607W        W38791  17.141  11.160  12.694  0.2676  0.3151  0.1927
22608W        W38792  10.227   2.291  14.576  0.2563  0.1564  0.2242
22609W        W38793  15.432  15.830  14.852 -0.1307  0.4390  0.2220
22610W        W38794  16.255   9.175   3.133  0.1356 -0.3142  0.1277
22611W        W38795   2.118   5.297  12.556 -0.0062  0.2752 -0.1185
22612W        W38796  18.210  11.496   3.195 -0.2314  0.1784  0.1885
22613W        W38797  13.528  16.890  14.842  0.0637 -0.0667 -0.1512
22614W        W38798   0.460   1.175  10.160  0.0682  0.2126  0.0474
22615W        W38799   2.258  13.249   3.204 -0.1572 -0.1368  0.0022
22616W        W38800   0.649  11.211   2.778  0.1154 -0.2685  0.2717
22617W        W38801  15.273   0.188  11.488  0.2279  0.0748  0.0201
22618W        W38802  10.432  12.421   1.439  0.1222  0.0992 -0.2136
22619W        W38803  12.455  13.952   0.689 -0.1481 -0.2667 -0.0905
22620W        W38804  12.283  10.881   5.578  0.0575  0.4305 -0.0040
22621W        W38805  10.952  11.191   3.071 -0.5146  0.0680  0.1129
22622W        W38806   7.563   9.227  15.181  0.0217 -0.1166 -0.0517
22623W        W38807  10.417  15.144   3.862  0.0303  0.6220 -0.1719
22624W        W38808  11.018   3.763   1.916 -0.1455 -0.0117  0.2349
22625W        W38809  15.227   4.075   1.803  0.2171  0.0910 -0.2146
22626W        W38810  12.008  13.389  11.277 -0.0689  0.1808  0.0112
22627W        W38811  14.589  14.833   1.050 -0.0087  0.0191  0.1628
22628W        W38812  13.394  12.338   0.700  0.0530  0.1625 -0.1852
22629W        W38813   6.118   1.054  12.226 -0.2507  0.1625  0.1524
22630W        W38814  12.537   3.629   4.696 -0.0910 -0.0391  0.0875
22631W        W38815  18.425   2.064  14.775  0.0275 -0.1306 -0.0540
22632W        W38816  16.866   5.681   3.221 -0.0711  0.1428 -0.0473
22633W        W38817   1.957   4.852   3.460 -0.5753  0.1837  0.1086
22634W        W38818  12.768  17.853   3.968 -0.1171 -0.0629  0.0798
22635W        W38819   0.613   2.148   2.416  0.1735 -0.2985 -0.1009
22636W        W38820   2.433  16.791  16.120 -0.1770  0.0343 -0.1609
22637W        W38821   8.817  12.109  14.820 -0.1098 -0.2420  0.0528
22638W        W38822   3.876  17.958   0.553  0.2812  0.0144  0.0627
22639W        W38823  13.992   5.313  13.009  0.1878 -0.3545 -0.2789
22640W        W38824  14.117   8.615  14.831 -0.2103 -0.0960  0.1228
22641W        W38825   4.504   1.020  12.483 -0.0608 -0.0908  0.0344
22642W        W38826   4.877   1.142   5.299  0.0783 -0.3592 -0.0593
22643W        W38827   2.965   2.076   2.874  0.0307 -0.0433  0.3334
22644W        W38828  14.520  18.109  15.931  0.0253  0.0971  0.0742
22645W        W38829  12.121  11.283  15.236 -0.0632  0.0784 -0.0645
22646W        W38830   9.037  15.017  12.596 -0.0925 -0.0706 -0.0435
22647W        W38831  10.606   5.564  12.533  0.2395  0.0759 -0.1712
22648W        W38832   9.481  18.506   5.229 -0.0437  0.4843  0.0526
22649W        W38833   4.539   5.739   0.167  0.3779  0.1242 -0.0427
22650W        W38834   0.534   7.404  11.858  0.2465  0.3300  0.1385
22651W        W38835   5.358   7.947  15.502  0.4175 -0.1138  0.2667
22652W        W38836   3.319   1.567   0.734  0.1361  0.0779 -0.0884
22653W        W38837  10.974   8.149   0.091  0.3039  0.0397  0.1907
22654W        W38838  14.549  17.375  12.993 -0.1475 -0.3877 -0.0999
22655W        W38839  13.854  14.452  11.771  0.1105 -0.0300 -0.0020
22656W        W38840   4.189  15.828   0.680 -0.0772  0.0986  0.1875
22657W        W38841  15.705   5.102   4.435  0.1367  0.1627  0.3268
22658W        W38842  10.757   2.544   2.155  0.3409 -0.0838  0.1430
22659W        W38843   0.488  11.073   1.760 -0.0112  0.1564  0.2711
22660W        W38844   8.657  17.445  11.858 -0.1406  0.1170 -0.2265
22661W        W38845  11.490  12.206  16.101 -0.1419  0.3355 -0.1579
22662W        W38846   4.264  13.081  12.527  0.1835  0.0640 -0.0139
22663W        W38847   1.504   0.446  13.520 -0.2110  0.2672 -0.1219
22664W        W38848   2.484   9.127   1.263 -0.1262 -0.0283 -0.2195
22665W        W38849  15.878   0.145   5.598 -0.2032 -0.2058 -0.3610
22666W        W38850   6.480   7.412  11.438 -0.1076  0.0623 -0.0122
22667W        W38851  15.749   2.052  14.305 -0.2423 -0.0125  0.1059
22668W        W38852  14.674  16.535  15.090  0.1233 -0.0484 -0.0038
22669W        W38853  10.749   5.123   0.857 -0.0360  0.2205 -0.1651
22670W        W38854  14.111   2.622   1.219 -0.0420  0.0736  0.1996
22671W        W38855  17.370   1.069   2.752 -0.0684 -0.1693 -0.1303
22672W        W38856  14.682  11.571  13.310 -0.1082 -0.2573  0.0344
22673W        W38857   2.997   7.006   2.714  0.2959 -0.0321 -0.1508
22674W        W38858  13.764  14.188  10.040  0.0763  0.0605  0.0882
22675W        W38859   7.179  13.945   6.387 -0.0054  0.2765  0.0206
22676W        W38860   4.377   4.748   4.492 -0.0241  0.1932  0.1180
22677W        W38861   5.292   8.907  11.443  0.2262 -0.0910  0.2204
22678W        W38862   2.311  10.650   2.274  0.0245  0.1163 -0.1402
22679W        W38863  12.885   2.761   1.753  0.1075 -0.0391  0.1603
22680W        W38864  16.830  12.786   0.795 -0.0222 -0.0835 -0.2340
22681W        W38865   3.642   7.096   2.379  0.2072  0.1741  0.1733
22682W        W38866   4.380  14.425  15.631  0.0659 -0.0476  0.1579
22683W        W38867  16.499  12.176  11.640  0.3833  0.1110 -0.0343
22684W        W38868   1.594  13.129   5.312 -0.2286 -0.1815  0.0821
22685W        W38869   4.949   2.270   3.826 -0.0749 -0.2730  0.0461
22686W        W38870  16.106  18.230  10.490  0.1449  0.0287  0.2601
22687W        W38871   5.682  13.472   4.159 -0.1451 -0.2675  0.2383
22688W        W38872  10.765   9.611   5.090  0.2216  0.1851  0.0761
22689W        W38873   5.349   5.692   1.905 -0.0970 -0.1854 -0.0241
22690W        W38874   8.759  17.055  13.926  0.0669  0.2607 -0.2387
22691W        W38875  12.250  11.632   3.785 -0.0349  0.0335  0.0802
22692W        W38876  15.617  14.661  11.325  0.1933 -0.0540 -0.0030
22693W        W38877   9.251   5.159   2.241  0.1553  0.4660  0.0756
22694W        W38878   5.308   1.578  15.237  0.0275 -0.3173  0.0487
22695W        W38879   0.594   3.475  13.806  0.0836  0.0718  0.1869
22696W        W38880  12.003  14.611   4.804 -0.0593  0.1341  0.0912
22697W        W38881  16.588  16.911   4.615  0.2724  0.0959  0.0725
22698W        W38882   1.465   5.668   2.291  0.0269  0.2729 -0.0039
22699W        W38883   7.058   1.759   2.643 -0.0644 -0.0466 -0.0017
22700W        W38884   8.410  15.583   4.970 -0.4524 -0.2155  0.0249
22701W        W38885   6.204   3.721  15.114 -0.0261  0.2815 -0.0744
22702W        W38886   1.160   8.240  15.565  0.1305 -0.0128  0.0355
22703W        W38887  16.704   4.090   5.672 -0.0780  0.0025  0.1648
22704W        W38888  13.926   9.665  13.313  0.2917  0.2042 -0.0558
22705W        W38889   7.925   4.210   0.582  0.0493  0.1977  0.1400
22706W        W38890   8.105  14.373   2.270  0.1170  0.0136  0.2064
22707W        W38891  10.295   5.084   0.726 -0.0273 -0.1957 -0.3954
22708W        W38892  17.351   6.282  10.918 -0.1718  0.0846 -0.0134
22709W        W38893   6.486   5.775   1.515  0.2881  0.1440 -0.1876
22710W        W38894   4.492   1.933  10.980  0.1290  0.2902  0.1022
22711W        W38895  15.271  15.600  11.148  0.1350 -0.1322  0.1322
22712W        W38896   9.230  16.351   1.394 -0.3133 -0.1033 -0.0887
22713W        W38897   5.545  16.894   5.393 -0.0475 -0.3688  0.0206
22714W        W38898   0.883   1.510  10.434  0.1670 -0.0261 -0.3258
22715W        W38899  10.542   5.769  14.098  0.1325 -0.0876  0.1404
22716W        W38900   6.769   4.748  13.992  0.3109  0.1588  0.1146
22717W        W38901   2.397   9.603   1.181 -0.0327  0.0622  0.0860
22718W        W38902   3.138   5.601   3.283 -0.1360 -0.1459 -0.1119
22719W        W38903   2.598   7.267   2.922 -0.0446  0.2244  0.0200
22720W        W38904   6.447  12.851  12.914 -0.0009  0.1412 -0.1484
22721W        W38905   4.089  13.167  11.935  0.4412 -0.0034 -0.2464
22722W        W38906  14.393  18.232   3.443  0.3864  0.0541 -0.1599
22723W        W38907   5.414  12.247   4.556 -0.2695 -0.4029  0.0248
22724W        W38908  12.194   4.126  12.178  0.2372 -0.0593 -0.1198
22725W        W38909  18.375   5.940  15.280  0.2453  0.3866  0.1128
22726W        W38910   7.106  11.462  13.756  0.0120  0.0690  0.0215
22727W        W38911   8.103  17.032  13.751 -0.0340 -0.1365 -0.0449
22728W        W38912   3.359  12.517   3.851 -0.2696  0.1252 -0.0355
22729W        W38913  16.756  14.799   1.800  0.4272 -0.1607  0.1137
22730W        W38914   8.195  16.638   2.579 -0.2134 -0.1849  0.0437
22731W        W38915   5.752  16.463   0.850 -0.1480  0.1118 -0.1620
22732W        W38916   2.795   5.762  11.930 -0.0013 -0.1761 -0.1986
22733W        W38917   6.269   2.652   1.286 -0.1021  0.2569 -0.3536
22734W        W38918   0.528  11.276   6.142  0.1388 -0.0248 -0.0387
22735W        W38919   9.710  17.512   2.753  0.0072  0.0566  0.0183
22736W        W38920   4.043   7.241   2.820 -0.0681 -0.0123 -0.1163
22737W        W38921   6.340  12.987   3.535 -0.2261 -0.0036  0.4061
22738W        W38922  11.529   6.385   0.702 -0.0377  0.1516 -0.2807
22739W        W38923  14.140  17.122   1.867 -0.2934 -0.0850  0.2135
22740W        W38924   9.238  15.916   0.092  0.1064 -0.1033 -0.1777
22741W        W38925  17.642  16.970  10.932  0.0813 -0.0665 -0.0283
22742W        W38926   0.914   0.930  15.684 -0.2313  0.0777 -0.1998
22743W        W38927  12.447   5.370   1.654  0.1186 -0.5170  0.1832
22744W        W38928  16.151   5.265   1.249 -0.2000  0.2805  0.0148
22745W        W38929  15.031   1.807  11.828  0.3358  0.1476 -0.2749
22746W        W38930   2.793  15.243  11.105 -0.0997  0.2545 -0.1461
22747W        W38931   1.075  16.440   5.745 -0.1401 -0.1343 -0.1270
22748W        W38932   5.613   3.627   1.628 -0.5515  0.0811 -0.2153
22749W        W38933  14.472  13.398   4.537  0.1979 -0.1580  0.1145
22750W        W38934  16.188  10.280  12.380 -0.2838  0.1091 -0.2882
22751W        W38935   8.595  12.174  14.379 -0.3540  0.1135 -0.4498
22752W        W38936  15.352  13.069   0.304 -0.1647 -0.1342 -0.1464
22753W        W38937  10.463   6.295   3.822  0.2158  0.2327  0.0003
22754W        W38938   0.424   3.947   3.547 -0.2081 -0.0989 -0.2506
22755W        W38939   2.895  15.579   2.027  0.1777  0.0173  0.0628
22756W        W38940   7.422  12.841   2.323  0.2627  0.3484 -0.0509
22757W        W38941   3.791  17.071   1.812 -0.1697 -0.2368  0.3672
22758W        W38942  15.774   8.134   3.959 -0.3314 -0.0810 -0.1564
22759W        W38943  15.821   4.447   4.748  0.0867 -0.2573 -0.0687
22760W        W38944  15.615   5.244   1.557  0.2274 -0.1986  0.0390
22761W        W38945   3.896  13.193  11.469  0.3429 -0.1429 -0.2249
22762W        W38946  13.952  16.636   1.771 -0.2305 -0.0415  0.0230
22763W        W38947   4.410  15.946  14.537  0.0418  0.4173 -0.0410
22764W        W38948  16.798  10.619  13.860 -0.0438 -0.2916 -0.2162
22765W        W38949   5.241   8.405   5.006  0.3754 -0.1408  0.2190
22766W        W38950   0.956   6.389   3.622 -0.0564 -0.0378  0.0119
22767W        W38951   1.064   0.632   1.227  0.0441  0.2406 -0.0062
22768W        W38952   7.633   2.922  14.616 -0.1427 -0.0538 -0.0992
22769W        W38953  13.258   1.168  11.794  0.3977  0.2217  0.2079
22770W        W38954   0.637   4.704   2.849  0.0528 -0.3546  0.3794
22771W        W38955   3.899  11.494   4.437  0.2705  0.2489  0.2379
22772W        W38956  14.484  18.215  13.634 -0.0086  0.1393  0.1169
22773W        W38957   6.815   1.335   5.652 -0.0453 -0.2498  0.0198
22774W        W38958  10.021  15.051   4.149 -0.0389  0.2679  0.3160
22775W        W38959   6.533   3.473   4.289 -0.1576 -0.1773 -0.0047
22776W        W38960   8.974   3.806   2.636 -0.3401 -0.0246 -0.1491
22777W        W38961  12.354  10.656  13.326  0.2895 -0.5054  0.0434
22778W        W38962   6.377  10.177   2.905  0.3290  0.1478 -0.0289
22779W        W38963   3.398   8.655   0.503 -0.2871 -0.2008  0.0168
22780W        W38964  13.213   7.285  11.373  0.0091 -0.0992  0.1827
22781W        W38965   6.046  13.968  11.253  0.0829 -0.1159  0.0746
22782W        W38966  12.232   1.581   2.697 -0.0173 -0.1191 -0.0721
22783W        W38967   9.152   2.550   0.533  0.2713 -0.2324  0.4456
22784W        W38968   3.174   4.662   3.345 -0.1423  0.1615 -0.0525
22785W        W38969  12.982  18.464  15.442 -0.1034 -0.2342 -0.2027
22786W        W38970  14.962  13.540   0.863 -0.0192 -0.0575 -0.1164
22787W        W38971   6.004  13.455   4.618  0.2391 -0.3194 -0.2996
22788W        W38972  15.425   2.478   5.282  0.1688  0.0842 -0.0030
22789W        W38973   5.952   6.717  12.100 -0.0567 -0.3597  0.0824
22790W        W38974   2.216   5.432  14.711  0.0118  0.1012 -0.0258
22791W        W38975   5.962   8.790  14.046  0.0729 -0.0664  0.0704
22792W        W38976  12.143  17.693  12.077 -0.0651 -0.0746 -0.0655
22793W        W38977  13.152   0.482   5.423 -0.0188 -0.0310  0.0220
22794W        W38978   9.535   8.367  16.047  0.1086  0.1223  0.6318
22795W        W38979  15.946   5.348   5.259  0.0490  0.1147  0.2251
22796W        W38980  17.341   7.417   3.586 -0.1101  0.1183 -0.0336
22797W        W38981   0.508   3.038  12.184  0.3483  0.1696  0.3690
22798W        W38982  13.986  12.505   1.978 -0.0560  0.2835  0.0898
22799W        W38983  11.458  18.168   3.634  0.0678 -0.1093  0.2819
22800W        W38984  17.469   8.907  15.606  0.1292  0.1354  0.4975
22801W        W38985   3.982   6.851   1.648 -0.1327 -0.0187 -0.0230
22802W        W38986  15.679   4.765  12.918  0.3696  0.1023 -0.1004
22803W        W38987   6.445  11.649   1.209  0.0442 -0.0335 -0.0003
22804W        W38988  14.652  11.416   0.220 -0.0183 -0.3340  0.0860
22805W        W38989  17.893  17.851  10.701 -0.2389  0.0104  0.0060
22806W        W38990   5.751   5.555   3.831  0.1359  0.3168  0.1414
22807W        W38991   1.777   4.159   1.215 -0.2292  0.1327 -0.0652
22808W        W38992  15.045  17.486   3.813  0.3329 -0.0590 -0.2146
22809W        W38993  12.149  15.916  12.240  0.0155  0.1435  0.0674
22810W        W38994   7.027  13.044  15.324 -0.1184 -0.3178 -0.0001
22811W        W38995  11.594   1.115   2.083 -0.1844 -0.4337  0.2082
22812W        W38996   9.638   5.492  14.322 -0.1030 -0.1601 -0.0583
22813W        W38997  12.105  12.340  14.902  0.3245  0.1745  0.2135
22814W        W38998  16.599   2.307   1.064 -0.0408 -0.0560  0.0910
22815W        W38999   7.315  10.893   2.143  0.0901 -0.0833  0.3701
22816W        W39000   3.070   2.539   1.650  0.0251  0.0903 -0.2420
22817W        W39001   7.233  17.883   0.201 -0.4187 -0.0305  0.2083
22818W        W39002   6.718   6.575   5.334  0.2954  0.3608  0.5047
22819W        W39003  11.399  12.194  11.485 -0.0667 -0.2217  0.2658
22820W        W39004   2.648   9.681  12.167  0.0612  0.0183  0.0140
22821W        W39005   3.392   5.608   1.052  0.4980 -0.2767 -0.2018
22822W        W39006   1.968   4.908   0.789 -0.1245 -0.1766  0.4462
22823W        W39007   4.517   2.865  11.611 -0.0894  0.3374  0.1081
22824W        W39008   2.533   4.689   1.481  0.0860  0.2430 -0.0842
22825W        W39009   3.420   5.076  10.978 -0.2402 -0.1847 -0.1087
22826W        W39010   5.233   0.491   3.181  0.2746  0.0900 -0.0300
22827W        W39011  10.534   3.068   4.025 -0.1708 -0.0544  0.1738
22828W        W39012   1.371   8.373   5.156 -0.0044  0.1467  0.1374
22829W        W39013   1.905  12.347   3.548  0.1838  0.0317  0.3252
22830W        W39014   0.337   2.478  14.776 -0.0271  0.0854  0.2145
22831W        W39015  12.570   1.312   0.515 -0.0701 -0.0707 -0.1658
22832W        W39016   3.670  10.108   4.322  0.0269  0.0962  0.4531
22833W        W39017   1.057   8.032  13.253  0.3783  0.0931  0.0410
22834W        W39018   8.586   0.768   0.077 -0.0934  0.0064  0.0703
22835W        W39019   4.129   7.621  12.871  0.0465 -0.0971 -0.1857
22836W        W39020   7.583   9.175   3.652  0.3773  0.2542  0.1339
22837W        W39021  13.961   4.715   5.262 -0.0418 -0.0412  0.1438
22838W        W39022   8.207  17.568   4.478  0.0298  0.2733 -0.0991
22839W        W39023  15.132  17.655   4.538  0.3245 -0.0689 -0.0742
22840W        W39024   1.544   7.457  15.394 -0.1815 -0.0503  0.1767
22841W        W39025  13.002   6.183   3.928  0.1287 -0.2218  0.1745
22842W        W39026   0.024   4.275  12.936  0.2227  0.2663 -0.2589
22843W        W39027   7.211  14.053   1.998 -0.1108 -0.1100  0.1053
22844W        W39028   7.798   4.015  15.577  0.1618 -0.2132 -0.1868
22845W        W39029  10.058  11.970   3.975  0.0165 -0.1347 -0.0870
22846W        W39030  16.118   5.716   0.375  0.1817 -0.2393  0.4151
22847W        W39031  11.838  10.515  15.548  0.0744  0.0900 -0.0220
22848W        W39032   0.118  13.106   2.379  0.0777  0.0557  0.2803
22849W        W39033   4.182  17.659  12.792 -0.0063  0.1914 -0.0984
22850W        W39034  13.377  17.663   2.903 -0.2764 -0.3378 -0.1088
22851W        W39035   8.766   3.512   3.728 -0.1702 -0.0025  0.1153
22852W        W39036   2.014  16.099  14.264  0.0815 -0.1633  0.1664
22853W        W39037   7.011  14.998   4.765  0.3464  0.1815  0.1692
22854W        W39038   5.113   4.237   3.909 -0.1231  0.0794 -0.1242
22855W        W39039  17.592   8.251  11.732 -0.3540  0.2875  0.5225
22856W        W39040  12.039   5.465  14.889 -0.0031 -0.4283  0.1497
22857W        W39041  10.818   8.837  15.830  0.1451 -0.1118 -0.0209
22858W        W39042   0.141  14.317   4.871  0.2319 -0.2939 -0.3014
22859W        W39043  11.966   0.066  13.089  0.2599 -0.0943  0.0452
22860W        W39044   7.465  17.857  10.379 -0.0773  0.0383 -0.0735
22861W        W39045   6.939  13.589   1.823  0.2931 -0.0415 -0.1922
22862W        W39046   0.472  16.301  11.158 -0.0521 -0.1076  0.0232
22863W        W39047   6.814  15.869   4.389  0.2207  0.1153 -0.2009
22864W        W39048   4.556  13.979  13.852 -0.0013  0.1846 -0.0903
22865W        W39049   7.197   6.884   5.142  0.2078  0.1178  0.0588
22866W        W39050  14.527   8.198  11.393 -0.2310 -0.2314 -0.0658
22867W        W39051   7.859  17.421  11.830 -0.1880  0.0293  0.3033
22868W        W39052  13.658  15.824   2.805  0.1426  0.0329  0.0287
22869W        W39053   1.021  15.642  13.572  0.2210 -0.1976 -0.0815
22870W        W39054  17.050   3.300  13.898  0.0511  0.0288  0.0344
22871W        W39055   2.779   8.411  13.705  0.0071  0.1167  0.0450
22872W        W39056  14.222   5.522   0.679  0.0640 -0.0205 -0.0616
22873W        W39057   1.857   0.971   4.541  0.2059 -0.1941 -0.0386
22874W        W39058  18.215  13.401  15.823 -0.2179  0.3673 -0.0285
22875W        W39059   9.360  17.264   2.422 -0.2882  0.0492 -0.0485
22876W        W39060  13.236   0.891   3.731  0.1273 -0.0316 -0.1500
22877W        W39061   1.377   2.992   3.258 -0.1161  0.1264 -0.1858
22878W        W39062   7.173   1.755   5.021  0.1854  0.1563  0.0111
22879W        W39063   1.485  15.087   5.767  0.2242  0.0026 -0.2380
22880W        W39064  12.727   5.859   1.509 -0.1386 -0.1798  0.3395
22881W        W39065   4.882  18.027   3.278  0.1797 -0.1132 -0.2016
22882W        W39066  10.372   5.717  12.065  0.1046 -0.0125 -0.1338
22883W        W39067  15.680   2.137  10.618  0.0808 -0.0428  0.0991
22884W        W39068  14.679   5.672   0.402 -0.0066 -0.2114 -0.0890
22885W        W39069  18.144   9.687  13.974 -0.0191  0.2239 -0.0901
22886W        W39070  18.319  10.289  12.595  0.1625 -0.2170 -0.4171
22887W        W39071   6.379  15.952   4.549  0.0054  0.1636  0.3301
22888W        W39072   3.639  10.151   0.969 -0.2136 -0.4618  0.1788
22889W        W39073   2.272  17.710  11.691  0.1532 -0.0308  0.0152
22890W        W39074   9.769  11.453  15.419 -0.3483  0.1600  0.0199
22891W        W39075   1.594  17.222   1.721  0.0989 -0.0817 -0.0915
22892W        W39076   9.390   7.686   4.249  0.0519  0.1219  0.2182
22893W        W39077  17.001   7.481  12.586  0.3087  0.0913  0.0423
22894W        W39078   8.615   3.835   4.328  0.0825 -0.1125 -0.0838
22895W        W39079   2.079   8.514  11.963  0.4934  0.0871 -0.0387
22896W        W39080   7.867   3.509   6.443  0.3138 -0.1150  0.0863
22897W        W39081   4.276   7.099   0.123 -0.0927 -0.1827 -0.1667
22898W        W39082   9.952   6.833  12.204 -0.0304  0.0165 -0.1250
22899W        W39083   7.496  18.003  15.594 -0.2478  0.1603 -0.0337
22900W        W39084  17.565  12.236   4.951 -0.1678 -0.1346 -0.0266
22901W        W39085   2.405   7.784   2.434 -0.1252  0.1257 -0.0357
22902W        W39086   5.688   7.558  14.841 -0.1214  0.0797 -0.1718
22903W        W39087  15.741   9.657   1.149 -0.1873 -0.2256 -0.0884
22904W        W39088   7.263   5.277  14.827 -0.2085 -0.2403  0.2531
22905W        W39089   6.558   0.369  14.492  0.4614  0.2925  0.4035
22906W        W39090   3.334   1.337  10.864  0.0558 -0.0630  0.3055
22907W        W39091   3.269   8.410   5.296  0.2172 -0.1283  0.2723
22908W        W39092   6.548  13.623   0.223  0.0388 -0.2894 -0.1590
22909W        W39093  16.878  15.110   2.996  0.1618  0.0696  0.2341
22910W        W39094   8.291  12.531  15.287 -0.2494  0.1035  0.0397
22911W        W39095   6.901   6.233   3.980 -0.0245  0.1592 -0.1448
22912W        W39096  16.420  17.002   2.444 -0.0996  0.0688  0.3695
22913W        W39097  12.476   7.342  13.853  0.0841  0.1121  0.1780
22914W        W39098   7.891   7.066   0.341  0.1605 -0.1319  0.1197
22915W        W39099   5.109   9.765  14.562  0.0637 -0.2108  0.1139
22916W        W39100  11.164  14.882  13.065  0.2269  0.0885 -0.0902
22917W        W39101   9.523   5.949   0.117 -0.4322  0.5810 -0.0619
22918W        W39102  16.149   5.676   4.911 -0.0233  0.0198 -0.2107
22919W        W39103  17.805  16.868   1.080  0.2108 -0.1043 -0.1608
22920W        W39104   2.401  10.141  14.971 -0.0038 -0.1636  0.1700
22921W        W39105   6.267  17.311   2.105 -0.0019 -0.0736 -0.2624
22922W        W39106  13.307  17.748   1.581 -0.1353  0.1746  0.1345
22923W        W39107   5.531  15.432  14.125 -0.0954  0.0792  0.2667
22924W        W39108   8.098   8.220  11.097 -0.2194  0.0481 -0.1321
22925W        W39109   3.545  10.319  11.293  0.1254 -0.0610  0.0941
22926W        W39110   0.018   1.675  11.021  0.1134  0.3761 -0.0280
22927W        W39111  14.497  16.147  14.187  0.3155 -0.1493  0.0306
22928W        W39112  17.106  15.418  12.943  0.1423 -0.2633  0.0968
22929W        W39113  14.414  11.616   3.933  0.0123  0.1728  0.0720
22930W        W39114   1.955  18.177   0.624 -0.1107  0.1292 -0.0367
22931W        W39115  13.143  14.394  12.181  0.0521 -0.1675 -0.1673
22932W        W39116  16.539   5.175  12.677 -0.2623 -0.4759 -0.4601
22933W        W39117  10.699   0.554   1.694 -0.3477  0.0853 -0.0558
22934W        W39118   6.365  15.220   4.040 -0.1959  0.0378  0.2146
22935W        W39119   6.089  17.943  16.093  0.0260 -0.2474 -0.4571
22936W        W39120  15.948   2.522  14.234  0.1764 -0.3486  0.0995
22937W        W39121   9.385   4.002   0.137  0.0214 -0.4264  0.0018
22938W        W39122   0.703   0.727  12.116 -0.2366 -0.0922  0.0963
22939W        W39123   8.545  12.049   0.686  0.1493 -0.0483  0.0867
22940W        W39124  10.064  12.144  11.338 -0.4892 -0.2900 -0.1773
22941W        W39125   1.302   4.597  15.600 -0.1650  0.0024  0.1529
22942W        W39126   5.736  18.453   5.191  0.2025  0.2434 -0.2055
22943W        W39127  16.340  10.287  13.568  0.0418  0.0555  0.2768
22944W        W39128   4.566   1.323   1.864 -0.1438 -0.0781  0.2144
22945W        W39129  17.461  16.228   3.420  0.1451  0.0617  0.2407
22946W        W39130   5.545   3.217   0.717 -0.4241 -0.2468 -0.1273
22947W        W39131   3.733   3.270  14.792 -0.3687 -0.0207 -0.3090
22948W        W39132   7.643   7.113   5.235 -0.1556  0.0390  0.4184
22949W        W39133   3.308  14.612   0.247 -0.3613 -0.1220  0.2039
22950W        W39134   1.943   5.308  15.121  0.0859 -0.1177  0.0616
22951W        W39135   5.652  15.339   0.549 -0.1820  0.0154  0.0556
22952W        W39136  15.763   3.372  13.788  0.4294  0.0284 -0.1469
22953W        W39137  17.772  13.818   5.860 -0.2182  0.0713  0.1624
22954W        W39138   4.714   4.696   2.490  0.1709  0.0601 -0.1275
22955W        W39139   9.406   8.224   2.487  0.0260 -0.0327 -0.1977
22956W        W39140   3.764   7.773  11.305 -0.1005  0.5396  0.0258
22957W        W39141   7.454  18.255  12.129 -0.2626  0.0664  0.3700
22958W        W39142  16.815   8.221  14.055 -0.1051 -0.0142  0.2392
22959W        W39143  17.025  15.256  11.623  0.0743  0.3524  0.0598
22960W        W39144   4.375   2.047  11.798  0.0608  0.0483 -0.1330
22961W        W39145  14.628  14.664   0.489  0.2055  0.0611 -0.2255
22962W        W39146   7.621   6.428   2.892  0.0297 -0.1875 -0.1106
22963W        W39147   3.048  17.393  14.458 -0.0113 -0.1965  0.1158
22964W        W39148  14.287  15.316   2.309  0.1304  0.2664 -0.0478
22965W        W39149   3.300  10.746   2.451  0.2493 -0.0695 -0.1389
22966W        W39150   5.397   4.032  10.639  0.1391  0.2992 -0.2216
22967W        W39151  13.408  15.837   3.267  0.0336  0.1221  0.1724
22968W        W39152   6.771   0.640   0.656  0.0690 -0.3622 -0.2097
22969W        W39153  16.270   1.577  11.906  0.1096  0.4950 -0.3230
22970W        W39154   4.148   9.379  11.535 -0.1941  0.0812 -0.3084
22971W        W39155  17.042  11.083  15.334  0.0212 -0.1769  0.2665
22972W        W39156  16.144   4.811   5.946  0.0198  0.0263  0.3262
22973W        W39157  15.965   8.735   4.043 -0.1296  0.1218 -0.1540
22974W        W39158  13.924   8.880  12.790 -0.4134 -0.4532  0.0819
22975W        W39159  13.037   3.060  13.479  0.1085  0.0022  0.4558
22976W        W39160  12.250  10.818  15.799  0.0556 -0.1926 -0.0597
22977W        W39161   4.139  11.095  11.466  0.2648  0.0357 -0.2062
22978W        W39162  14.548   2.864   3.068 -0.1246 -0.0654 -0.1309
22979W        W39163   6.346   2.970  15.663  0.0566 -0.3176 -0.0199
22980W        W39164  13.345  17.540  10.866  0.2044 -0.2852 -0.0911
22981W        W39165   8.390  11.295  12.906 -0.0432 -0.0686  0.1061
22982W        W39166  15.884   6.100  14.007 -0.0417  0.1071  0.1407
22983W        W39167  14.271  17.040  11.863 -0.0256  0.0057  0.0821
22984W        W39168  11.309  11.752   0.072  0.1401 -0.0446 -0.0392
22985W        W39169   7.405   9.823  14.906 -0.0306 -0.0267 -0.0511
22986W        W39170   8.004  16.019  15.723 -0.1371 -0.2366 -0.1456
22987W        W39171   6.361  11.863   3.454 -0.0526  0.2356 -0.0175
22988W        W39172   8.685   6.303   3.359  0.0853 -0.1374  0.1398
22989W        W39173   1.575   3.129   3.687  0.2595  0.3601  0.0261
22990W        W39174  10.121   0.115   0.114  0.0522 -0.1338  0.3293
22991W        W39175   9.468   6.682  13.075  0.0109 -0.1361 -0.1494
22992W        W39176   8.612   5.503  14.164  0.1294  0.0176 -0.1623
22993W        W39177  15.684  14.532  14.748 -0.0664  0.1700 -0.1617
22994W        W39178   1.160   2.604  14.665  0.0221 -0.0152 -0.0013
22995W        W39179   1.733  10.966  13.467  0.1600 -0.1534  0.3290
22996W        W39180  11.912   2.608   0.164  0.2909 -0.3858 -0.1763
22997W        W39181   0.492  13.718  14.575  0.0325  0.0193 -0.1755
22998W        W39182  15.620   1.616   1.633  0.2760  0.2416  0.0792
22999W        W39183   7.561  12.560   4.475 -0.3022 -0.0631  0.2396
23000W        W39184   5.230  16.964   3.197  0.2273  0.2493  0.1991
23001W        W39185   4.068  11.661  11.547 -0.1181 -0.2404 -0.1342
23002W        W39186   1.104  10.550  16.142 -0.0996 -0.2441 -0.1459
23003W        W39187  17.084  12.149   3.999  0.1813  0.0757  0.2585
23004W        W39188  14.583   3.373  15.689  0.1693  0.2126  0.0073
23005W        W39189  10.322   9.214   0.791 -0.0742  0.3219 -0.3707
23006W        W39190   3.363   0.704   2.235 -0.0324 -0.2287 -0.3306
23007W        W39191   2.183  18.520  13.195 -0.0793  0.0010  0.1016
23008W        W39192  10.839  16.895   6.185 -0.0098 -0.2143  0.2230
23009W        W39193   9.170   9.328  14.428  0.0900  0.2836 -0.1160
23010W        W39194   1.455  18.077   4.879 -0.2314  0.0585 -0.0200
23011W        W39195  14.437   9.317  15.747  0.0926 -0.2446  0.2116
23012W        W39196  17.650   6.359  14.772 -0.0740 -0.0760  0.1460
23013W        W39197  10.851  10.434  10.488 -0.0080  0.0809  0.2158
23014W        W39198   0.768   2.554   3.089  0.1532  0.1892 -0.1078
23015W        W39199   0.440  13.954   5.215 -0.1221 -0.0256 -0.3221
23016W        W39200   5.833   2.569   2.751  0.2208  0.1110  0.1482
23017W        W39201   8.239   1.110  11.556  0.4090  0.1306 -0.1278
23018W        W39202  12.319   0.624   5.053  0.1517  0.0352 -0.0103
23019W        W39203   9.882   2.884   5.388  0.3029  0.2587  0.0366
23020W        W39204   5.325   0.770  12.071 -0.2197 -0.1782 -0.0474
23021W        W39205  16.368   0.236  12.123  0.0761 -0.4063  0.1417
23022W        W39206  10.847  14.675  11.176 -0.0855  0.1460 -0.0237
23023W        W39207   8.101  17.314  14.178 -0.5655 -0.2957  0.0626
23024W        W39208   0.516   8.865   5.010  0.0276  0.0204  0.2537
23025W        W39209  10.649  11.731  10.459  0.0306  0.1420  0.2153
23026W        W39210   6.204  15.923  12.810  0.2178  0.2121 -0.1773
23027W        W39211  13.941  13.820   3.320 -0.3285  0.4803 -0.2157
23028W        W39212   2.199   1.708  11.162  0.2376 -0.0781  0.1386
23029W        W39213  16.653   3.394   3.617  0.2692  0.1961 -0.1785
23030W        W39214  14.922  16.803  10.664  0.0617 -0.2082 -0.0572
23031W        W39215  18.036  11.557   0.272  0.1558  0.2330  0.1005
23032W        W39216  11.782  12.604  12.565  0.1249 -0.0546 -0.1553
23033W        W39217   4.316   8.093  12.886  0.0534 -0.0168 -0.1368
23034W        W39218   9.479   5.445   4.192  0.4736  0.1441 -0.3336
23035W        W39219  10.167   0.808   3.204 -0.0410  0.0949 -0.1484
23036W        W39220  15.881   1.572   4.946 -0.0258  0.1449 -0.1262
23037W        W39221  15.529   9.118   0.777  0.0861  0.2372  0.0786
23038W        W39222   6.784  17.185   4.097  0.0295  0.0103 -0.1995
23039W        W39223   7.539  15.134  15.733  0.0776  0.1620 -0.0305
23040W        W39224  13.546   5.112  12.094 -0.1858  0.3557  0.1178
23041W        W39225  10.105  10.936  12.359  0.0074 -0.1093  0.1881
23042W        W39226  10.521  13.719   3.988 -0.0884  0.1621  0.0348
23043W        W39227   0.646   8.592  14.944  0.2126  0.0546  0.0795
23044W        W39228  17.276  12.707  12.989 -0.0507  0.3683 -0.0871
23045W        W39229   6.922  17.219  11.917 -0.1501  0.0664 -0.0017
23046W        W39230  13.115   2.487  13.639 -0.0378 -0.3737  0.0513
23047W        W39231   0.561  17.634   5.010 -0.4303  0.0010  0.0193
23048W        W39232   9.119   9.526  12.602 -0.0021  0.1616 -0.0645
23049W        W39233  17.736   4.372   1.435 -0.2048 -0.1527 -0.1469
23050W        W39234  15.754   7.950   3.495 -0.0296 -0.2619 -0.3196
23051W        W39235  11.978  14.958  15.384 -0.2083  0.2837 -0.0017
23052W        W39236   6.675   6.884  12.747  0.1600  0.0992 -0.1556
23053W        W39237   1.166   7.499   2.529  0.0247 -0.1155 -0.1675
23054W        W39238   0.767  17.824  11.001 -0.1503  0.3962 -0.0855
23055W        W39239   2.439  10.581   3.101  0.3409  0.1757 -0.2617
23056W        W39240   4.703   6.353  15.141  0.2579  0.0637  0.2433
23057W        W39241  11.349   5.739  11.645 -0.1181  0.0075  0.1639
23058W        W39242   4.499   5.723   2.009  0.2669 -0.2287  0.1043
23059W        W39243  15.807  18.149   2.134  0.0125  0.1047 -0.1216
23060W        W39244   6.882  18.166   0.053 -0.2824 -0.0676  0.0455
23061W        W39245   7.101  10.196  14.923  0.0822 -0.3151 -0.0205
23062W        W39246   6.430  15.704  13.776 -0.2679  0.1814 -0.1575
23063W        W39247  17.092  16.202  15.422 -0.0465  0.1307 -0.0135
23064W        W39248   6.566   4.277   3.186 -0.1004  0.1700 -0.4160
23065W        W39249  17.435  10.117   5.609 -0.3273 -0.1030  0.1767
23066W        W39250   3.924   6.755  15.995  0.1932 -0.0314 -0.0346
23067W        W39251   3.830  11.670   3.600 -0.0186  0.4032  0.0391
23068W        W39252   0.712   9.722  13.973 -0.2383 -0.1165 -0.0841
23069W        W39253   5.480   8.854   4.799 -0.0019  0.2297 -0.2898
23070W        W39254   2.462   5.498   3.780  0.1243 -0.0876  0.1233
23071W        W39255   8.395   3.796   5.417 -0.3334  0.0934 -0.5746
23072W        W39256   6.115   3.975  13.393 -0.2626 -0.2340 -0.0658
23073W        W39257   3.391  12.707  13.262 -0.0540 -0.2285 -0.0403
23074W        W39258   3.695  10.316   5.431 -0.1581 -0.0554  0.0600
23075W        W39259   0.939   1.971  13.629  0.0991 -0.2755  0.0765
23076W        W39260   9.495   4.043  14.240 -0.1977 -0.0548 -0.0671
23077W        W39261   1.454  13.777   6.233 -0.0132 -0.2182 -0.0249
23078W        W39262  11.273   5.642  15.800 -0.1073  0.1049  0.2292
23079W        W39263  17.357  16.994  11.489 -0.1791 -0.2244  0.0106
23080W        W39264  12.328   4.129   2.099  0.2127  0.1350  0.3479
23081W        W39265   1.624  16.185  15.463 -0.0553 -0.0817  0.2721
23082W        W39266  10.354   2.084  13.048 -0.2061  0.2606  0.1050
23083W        W39267  15.730   5.991   3.793 -0.0947 -0.0736 -0.0309
23084W        W39268  11.731  13.736   2.016 -0.3833  0.0845  0.3917
23085W        W39269  11.682  10.905   4.226  0.0496  0.0271  0.2022
23086W        W39270   3.932   6.850  10.908 -0.1382  0.2684 -0.0565
23087W        W39271  13.155  11.666  11.352  0.0801  0.1838  0.1486
23088W        W39272   1.696  11.024   3.968  0.0145  0.1160 -0.2344
23089W        W39273  12.275  18.396   4.331 -0.0040  0.1020  0.2376
23090W        W39274   4.609   2.227   5.122  0.1664 -0.0187 -0.0666
23091W        W39275   8.059   7.382   0.695  0.1488 -0.3195  0.0214
23092W        W39276  13.844   9.170  12.011  0.4752 -0.0814  0.0816
23093W        W39277  10.536  16.320   1.383 -0.1569  0.0692  0.0769
23094W        W39278  18.259   9.737   0.068  0.3457  0.1026  0.2461
23095W        W39279   7.771   6.418  11.547 -0.1830  0.1931 -0.0585
23096W        W39280  13.729  14.342   0.606 -0.3300  0.1912  0.0602
23097W        W39281  10.015  12.497   4.139 -0.2689  0.0242  0.2605
23098W        W39282   9.650   2.079   3.769  0.1741 -0.0757  0.0091
23099W        W39283   5.805   6.752  13.835 -0.2458  0.0523  0.0104
23100W        W39284   9.630  14.287   3.781  0.3150  0.0185 -0.1548
23101W        W39285  13.384   6.681   5.131  0.1150 -0.1068  0.1529
23102W        W39286   0.469   8.577  11.748 -0.2082  0.0946 -0.0333
23103W        W39287  18.483  13.674  15.068 -0.1541  0.2237  0.1445
23104W        W39288  16.167  14.119   0.096 -0.0158  0.2720 -0.0035
23105W        W39289   0.668  16.205  15.476  0.4184 -0.0737 -0.0377
23106W        W39290  15.525   3.932   3.465  0.2648 -0.2758 -0.0685
23107W        W39291  15.645   6.520   0.372  0.3187  0.1358  0.0879
23108W        W39292   2.229  10.863  16.115  0.1149  0.0098  0.2386
23109W        W39293   9.019   4.120  14.422 -0.0260 -0.2824 -0.1610
23110W        W39294  14.630   5.176  12.120  0.1418 -0.1389  0.0892
23111W        W39295   8.159  15.508  12.095 -0.6338  0.0739  0.1309
23112W        W39296   4.025  10.917   4.347 -0.0217  0.3495 -0.1235
23113W        W39297   0.551   7.678   4.269  0.0023 -0.1184  0.0841
23114W        W39298  11.037   8.863   0.611 -0.1423 -0.2645 -0.0310
23115W        W39299   5.893  11.455  11.657 -0.1651 -0.0091  0.0046
23116W        W39300   9.648   9.410  14.156 -0.0675 -0.1171 -0.0558
23117W        W39301  14.749   2.224   0.520  0.1209  0.0440  0.1701
23118W        W39302   6.078  12.458  11.712  0.0556  0.3219 -0.0495
23119W        W39303  12.183   1.147   3.493  0.1566  0.0874 -0.0705
23120W        W39304   5.549   2.389   3.203  0.0713 -0.1410  0.1574
23121W        W39305   9.905   2.127  11.241  0.1452 -0.0520  0.2076
23122W        W39306  15.043   9.521  12.008 -0.0790 -0.0193 -0.2853
23123W        W39307  16.059   5.121   0.193 -0.0227 -0.1550 -0.1664
23124W        W39308  17.394  10.358   1.851  0.0796  0.1982 -0.1429
23125W        W39309   3.174  17.083  11.089 -0.0639 -0.0479  0.1128
23126W        W39310   2.823  15.257  12.475  0.0951 -0.1593 -0.0877
23127W        W39311  14.505  11.504   0.725  0.0746  0.2001 -0.1829
23128W        W39312  12.860  16.554   4.217  0.0377  0.0718 -0.1367
23129W        W39313   5.541  11.800  12.960  0.0592 -0.3916  0.0510
23130W        W39314   2.611   5.877   5.102  0.0623 -0.1449  0.0681
23131W        W39315   5.556  18.310   0.804  0.0399  0.3597  0.0975
23132W        W39316  11.462  12.147   3.956 -0.0479  0.1341 -0.2434
23133W        W39317   8.189  12.080  11.221 -0.3369 -0.1686  0.0247
23134W        W39318   2.096  12.202  13.533  0.4093  0.0447  0.0185
23135W        W39319   6.920  13.856  11.676 -0.0178  0.5720  0.1483
23136W        W39320  15.689   2.930  13.511 -0.0263  0.2886  0.1298
23137W        W39321  15.449   5.036  13.265 -0.1663 -0.1502 -0.4163
23138W        W39322   8.894  18.158  12.140 -0.2693 -0.3025  0.0366
23139W        W39323  12.296   7.352   0.509 -0.0809  0.4066  0.1272
23140W        W39324   3.111   2.385  12.346 -0.1218 -0.0845 -0.1321
23141W        W39325   1.953  18.459  12.735 -0.2429 -0.0678  0.0450
23142W        W39326   1.958  18.268   4.491 -0.0843 -0.0372 -0.3641
23143W        W39327   7.997  16.318  13.207 -0.0438 -0.1134 -0.2431
23144W        W39328  14.861  16.212   1.592 -0.0269  0.0962  0.0942
23145W        W39329  17.472  16.134   5.186 -0.1044  0.1780 -0.3651
23146W        W39330  11.448  17.542  14.652 -0.1734 -0.2774 -0.2584
23147W        W39331   2.221   2.577  14.587  0.0153  0.3704  0.1026
23148W        W39332   4.959  13.118   4.837  0.0801 -0.1857 -0.3300
23149W        W39333   6.438   0.380  13.631 -0.0188  0.0828  0.1450
23150W        W39334  12.238   1.301  12.524 -0.0054  0.0244  0.0065
23151W        W39335   6.686  11.728   2.936 -0.2754 -0.2479 -0.1710
23152W        W39336   2.967   9.161   0.227 -0.1122  0.1284  0.1411
23153W        W39337  16.855  14.826  15.545 -0.0339  0.2568 -0.1526
23154W        W39338   1.483  15.026   3.932 -0.2245  0.1427  0.0512
23155W        W39339   9.879   6.806   1.380  0.2059  0.1811  0.2467
23156W        W39340  13.190   9.366   3.772  0.1869  0.3133 -0.1454
23157W        W39341   7.745   5.854   2.913 -0.6235 -0.0203  0.0884
23158W        W39342   2.897   4.386   4.208 -0.0458  0.0432  0.1533
23159W        W39343   2.876  11.196   1.656  0.1423  0.3128 -0.1154
23160W        W39344   7.374  14.511  14.086 -0.0750  0.1829  0.1288
23161W        W39345   2.749   6.593   1.089 -0.1367  0.0471 -0.0431
23162W        W39346   8.520   1.275  11.912 -0.1035 -0.2590 -0.0591
23163W        W39347  12.511   6.064   5.232 -0.1351  0.1265  0.0132
23164W        W39348   2.435   2.217  10.521 -0.1520  0.1695 -0.0340
23165W        W39349   9.844   3.691   3.648  0.2134  0.3422 -0.0083
23166W        W39350  10.958   3.869   2.790  0.0945 -0.1859  0.1673
23167W        W39351   3.690  13.657   2.814  0.0466 -0.2070  0.0663
23168W        W39352  15.689   3.062   2.706  0.2388 -0.3000  0.2695
23169W        W39353  15.583  17.497   0.235  0.0925 -0.1162 -0.1482
23170W        W39354   4.180   1.226  15.231  0.2401 -0.4312  0.2644
23171W        W39355  12.472   9.407  12.261  0.0036  0.0420 -0.1057
23172W        W39356  14.243   9.213  13.535 -0.0958 -0.0318 -0.1986
23173W        W39357   7.088   7.321   2.435 -0.0577 -0.0323 -0.1519
23174W        W39358   1.656  15.625   1.358 -0.1456 -0.0897 -0.1057
23175W        W39359   8.710   1.667   0.241 -0.1928 -0.1519  0.0240
23176W        W39360  14.763   8.624  11.571  0.0175  0.1660  0.1008
23177W        W39361   5.823  10.563  14.553 -0.0078  0.0974 -0.1017
23178W        W39362  18.391  16.231   0.595 -0.2726 -0.0027 -0.0672
23179W        W39363   4.670  10.364   5.160  0.2009 -0.0889  0.1141
23180W        W39364   8.748   7.132  11.541 -0.2955  0.0760 -0.1843
23181W        W39365   7.574  10.543   3.720 -0.2491  0.0222 -0.1479
23182W        W39366  14.940  11.762   0.953  0.2331  0.2076 -0.0105
23183W        W39367  10.767   0.378  12.767 -0.1208  0.2146  0.0577
23184W        W39368  14.415  17.059   4.617  0.0849 -0.1891  0.2407
23185W        W39369   6.236  12.341  12.989 -0.3264 -0.0797 -0.3117
23186W        W39370   1.448  10.115   4.532 -0.2237  0.0463 -0.1528
23187W        W39371  10.024   8.092  13.865  0.0864 -0.1250 -0.0142
23188W        W39372  12.491  14.530   1.380 -0.1032  0.1499 -0.0489
23189W        W39373   0.641  14.434   5.017  0.0020  0.0255  0.1560
23190W        W39374   5.078   4.486   4.878  0.1348  0.1255 -0.0004
23191W        W39375   1.893  15.133  12.888  0.0233  0.2496 -0.0004
23192W        W39376  12.442   6.520  11.769  0.3899 -0.0630 -0.0095
23193W        W39377   5.905   6.290   2.545  0.0716  0.2576  0.4671
23194W        W39378   3.796  16.914   1.343 -0.1692  0.0413  0.0502
23195W        W39379  12.185   6.906   5.071  0.2776  0.0796 -0.1388
23196W        W39380  13.210   9.968   5.921 -0.1186 -0.1997  0.1226
23197W        W39381  12.959   8.461   2.886  0.2438  0.1536 -0.0127
23198W        W39382  16.421  17.117   3.420  0.0348 -0.1719  0.1654
23199W        W39383   3.111  10.463  16.104  0.0607 -0.1694  0.0110
23200W        W39384  13.441   6.748  12.779 -0.0139 -0.2266  0.4756
23201W        W39385   5.420  10.247   3.926  0.0254  0.0816 -0.2794
23202W        W39386  16.873   2.749   0.802 -0.1783  0.1254 -0.0146
23203W        W39387   3.843  14.740   5.044  0.0349 -0.1535 -0.0620
23204W        W39388  17.012  15.035  14.686  0.2813 -0.0951  0.2690
23205W        W39389   2.083  12.494   2.359 -0.3403  0.0394 -0.2156
23206W        W39390  14.032  11.325   0.442  0.0279  0.4081  0.0304
23207W        W39391   7.497  11.756   4.218 -0.0594  0.0281  0.0797
23208W        W39392   0.010  18.055  10.668 -0.1130  0.1659 -0.0363
23209W        W39393   5.963  10.526   4.256  0.2878  0.0694  0.0172
23210W        W39394  14.587  11.097  10.543  0.2897 -0.1964 -0.0050
23211W        W39395   7.346  15.182  14.966 -0.4913 -0.2171 -0.1387
23212W        W39396  17.301  17.819  12.481 -0.2036 -0.4644  0.1314
23213W        W39397   1.747  14.224  13.618 -0.0897  0.1171 -0.2744
23214W        W39398  14.506  10.636  12.562 -0.2264 -0.0717 -0.1325
23215W        W39399  17.703   5.311   2.986  0.3302 -0.0672 -0.0231
23216W        W39400  17.702  11.622   1.278  0.2382 -0.1467 -0.1811
23217W        W39401  10.851  17.704  12.127  0.0448  0.1153 -0.0569
23218W        W39402   0.501   3.605   4.423  0.0632  0.1149  0.4585
23219W        W39403   0.921   9.692  14.505  0.2549 -0.1362  0.0995
23220W        W39404  16.734  10.223  14.682  0.4453  0.1496  0.1311
23221W        W39405  15.984  18.329  11.332  0.0036 -0.0302 -0.0754
23222W        W39406   3.380  16.881   3.823 -0.3812  0.0370  0.1706
23223W        W39407   9.566   3.674   2.572  0.3425  0.2410 -0.1640
23224W        W39408  16.698   8.466  12.526 -0.0184 -0.0617  0.0266
23225W        W39409   9.694  14.167   4.292  0.2381 -0.0501  0.0871
23226W        W39410   3.512   3.219  14.236 -0.2144  0.1600  0.0901
23227W        W39411  12.015  17.277   1.117  0.0170 -0.0080  0.1368
23228W        W39412   7.374   6.714   0.865 -0.1473  0.0549 -0.4000
23229W        W39413   3.928  10.437  11.669 -0.1610  0.2991  0.0735
23230W        W39414   8.262   2.160  14.343  0.1123  0.0120  0.0381
23231W        W39415   9.053   7.356   3.456 -0.0766 -0.2166  0.0835
23232W        W39416   8.004  11.285  14.888 -0.1110 -0.0791  0.2250
23233W        W39417  15.069  17.483  12.221  0.2781  0.1397  0.1429
23234W        W39418   9.616   6.124  14.310  0.0014 -0.4107 -0.1409
23235W        W39419  16.748   9.286   2.842  0.3193  0.0326  0.0167
23236W        W39420  18.279   5.102   1.562 -0.1682  0.1160  0.1316
23237W        W39421  14.428  10.987   0.501  0.0530  0.0426 -0.2839
23238W        W39422   2.441   8.178   2.878  0.0736  0.1536 -0.3099
23239W        W39423  16.436   5.698   2.517  0.2540  0.3361 -0.1719
23240W        W39424  16.341  10.786  15.019 -0.0434  0.1727 -0.4584
23241W        W39425  18.414  14.598  15.083 -0.0302  0.0258 -0.0594
23242W        W39426  16.019  12.211  12.525 -0.1635 -0.0606  0.3634
23243W        W39427  16.638  12.711  14.626 -0.0586 -0.3446 -0.1011
23244W        W39428   3.197   2.319   2.273  0.0189  0.0243  0.2226
23245W        W39429   6.082   8.364  11.592  0.3180  0.1446  0.0275
23246W        W39430  13.580  17.213  12.768 -0.0072 -0.0646 -0.0809
23247W        W39431  14.101   5.250   5.842  0.2296 -0.2687 -0.3216
23248W        W39432  17.358   0.385   1.557  0.1281  0.1840 -0.3007
23249W        W39433   5.523   6.989   2.631  0.1003  0.1695 -0.0098
23250W        W39434   8.219   5.657  15.981  0.5565  0.1545  0.1677
23251W        W39435  13.429   6.215  14.926 -0.1556 -0.2676  0.3553
23252W        W39436   8.440  11.866   2.161  0.0327  0.1276 -0.1872
23253W        W39437   2.914  10.629  12.515  0.1838  0.1085 -0.0022
23254W        W39438   6.405  18.193   2.142  0.1194 -0.0143  0.2460
23255W        W39439  12.813  17.839  15.919  0.2304  0.0004  0.2443
23256W        W39440   5.968   9.318  14.764 -0.0062 -0.2489 -0.2721
23257W        W39441  17.201  11.772  13.328 -0.4390 -0.3005  0.0247
23258W        W39442  10.738  13.393   0.634 -0.2254  0.1384 -0.0298
23259W        W39443   5.298  15.510   5.389  0.1398 -0.1520 -0.1486
23260W        W39444   1.731   9.953  14.537 -0.1274 -0.0460  0.0727
23261W        W39445  10.787   5.063   5.196  0.2994  0.1168  0.0237
23262W        W39446  12.935   9.688   5.169  0.0774 -0.3011 -0.0026
23263W        W39447   4.783   2.449   5.495  0.2176  0.2210  0.2464
23264W        W39448  17.616   8.681  12.109 -0.5314 -0.0451  0.0081
23265W        W39449  16.863  10.523  15.540  0.1355  0.2126 -0.0374
23266W        W39450   2.740   9.575   4.733  0.1291 -0.0061 -0.0825
23267W        W39451  15.630  15.760   2.148 -0.2494  0.2077 -0.1220
23268W        W39452  12.152   1.319   3.985 -0.0879  0.0468  0.0255
23269W        W39453   0.181   8.310  15.063 -0.3935 -0.0772  0.1482
23270W        W39454  16.514  15.667   2.125  0.0598 -0.0099  0.1427
23271W        W39455  11.879  17.950  13.972 -0.2790  0.1092  0.2522
23272W        W39456  13.161  12.840   4.048  0.2932 -0.0138 -0.0493
23273W        W39457  12.890  14.275   4.938  0.0288 -0.0966  0.0811
23274W        W39458  13.432   4.721   3.007 -0.0278  0.1544 -0.2717
23275W        W39459  13.614   0.316   1.474  0.0333 -0.0383  0.0545
23276W        W39460  17.837  18.216   2.911  0.1196 -0.0117  0.2730
23277W        W39461   6.258   5.638  13.418  0.2810  0.3007  0.0385
23278W        W39462  13.508  10.038  11.718 -0.4769 -0.4653 -0.0921
23279W        W39463   5.816  13.445   1.180  0.0469  0.1385  0.1881
23280W        W39464   7.519  18.373   0.614 -0.0834 -0.1305  0.0234
23281W        W39465  16.620   0.728  11.239 -0.0333  0.0763  0.2953
23282W        W39466  16.363   6.858  11.177  0.1323 -0.1979  0.0146
23283W        W39467   8.642   7.059  13.210 -0.1405 -0.4625 -0.1235
23284W        W39468  11.379  13.025   0.201 -0.0470 -0.1685  0.0104
23285W        W39469   6.413   3.021  14.072 -0.1136 -0.0228 -0.2247
23286W        W39470  13.999   4.847  15.203  0.0367 -0.2472 -0.0033
23287W        W39471   0.093   3.316  14.270 -0.0361 -0.0309  0.1125
23288W        W39472  10.305  12.497  14.059  0.3975 -0.1832  0.4588
23289W        W39473  17.017  16.481   3.098  0.1798 -0.1648  0.0460
23290W        W39474   6.930   1.628   0.502 -0.3097  0.4285  0.2992
23291W        W39475   3.287  16.329   4.123  0.0105 -0.0777  0.0536
23292W        W39476   9.588   6.092   5.581  0.0622  0.0951 -0.3015
23293W        W39477  10.143  12.017   1.200  0.0662  0.0198 -0.0252
23294W        W39478   2.765   2.450  14.718 -0.0117 -0.0564  0.0499
23295W        W39479   1.077   2.468  10.807  0.0873 -0.2313 -0.1744
23296W        W39480   0.673   3.470   3.174  0.1764 -0.0246  0.0838
23297W        W39481   4.068  16.652  15.066 -0.2629 -0.1893 -0.1830
23298W        W39482   9.337  15.671   5.205  0.0978  0.1457 -0.1425
23299W        W39483  11.106  15.316  14.466 -0.1362  0.0618  0.2601
23300W        W39484  15.525   7.313   4.308  0.0290  0.2530  0.2487
23301W        W39485  10.761   8.537   2.922  0.1533 -0.0351 -0.0379
23302W        W39486   5.682   0.158   0.403 -0.1944 -0.1188 -0.0480
23303W        W39487  13.712  10.102  13.551  0.0629 -0.1377  0.0630
23304W        W39488   7.802  16.193   4.374 -0.3463  0.0180 -0.2593
23305W        W39489  14.121   5.440   3.720  0.0951  0.3096 -0.0820
23306W        W39490   8.191   2.273  11.334  0.0253  0.0478  0.3247
23307W        W39491   0.167   2.332  14.261  0.0524 -0.1365  0.2094
23308W        W39492   0.960  15.454  10.964  0.3874  0.0648  0.0918
23309W        W39493   6.634   7.916   5.012  0.0254 -0.1364 -0.1342
23310W        W39494  17.701  10.581  15.947  0.2005  0.2189  0.0673
23311W        W39495  14.453  13.641   0.424  0.1576  0.1191 -0.0171
23312W        W39496  11.388  10.036   1.607  0.4518  0.2364 -0.1035
23313W        W39497   4.275   9.366   0.299 -0.0196  0.1648  0.3148
23314W        W39498   4.043   9.924   2.685 -0.3196  0.0006  0.0267
23315W        W39499   1.030   9.441   2.665  0.3225  0.1067  0.0964
23316W        W39500   5.465   3.312   3.486 -0.0449  0.0343  0.1551
23317W        W39501  15.317  11.326  14.257  0.1196 -0.0943  0.1610
23318W        W39502   0.590   4.874   1.112  0.3032  0.0354  0.1457
23319W        W39503  17.797  18.459  11.155  0.1461 -0.1524 -0.2740
23320W        W39504  12.639  18.087  15.562  0.0421  0.1140  0.2324
23321W        W39505  18.059  14.954   0.026  0.1757  0.1747 -0.1002
23322W        W39506  17.962  15.773   0.105 -0.1475  0.0479  0.2150
23323W        W39507   1.357  15.497  12.767  0.0167 -0.0257  0.1899
23324W        W39508  16.579  12.654  15.701 -0.1331 -0.0715  0.4515
23325W        W39509   6.683  15.870   5.427  0.0181 -0.1656 -0.1403
23326W        W39510  11.819  10.792   5.455  0.0917 -0.0201  0.2384
23327W        W39511   9.024   0.783  13.785  0.0283  0.2107 -0.0171
23328W        W39512  14.767  14.103  12.977 -0.0112 -0.1979 -0.1427
23329W        W39513  16.816  15.159   2.129 -0.1548  0.1796 -0.2901
23330W        W39514   9.240  10.367   2.138 -0.0818 -0.0258 -0.1810
23331W        W39515  14.752   7.590   0.672 -0.0607 -0.1953 -0.0594
23332W        W39516   0.069   4.957   1.055 -0.1667 -0.0344 -0.3420
23333W        W39517   8.875  16.096  15.800 -0.0644 -0.0476  0.0942
23334W        W39518  15.735   7.015   0.144 -0.2147 -0.0277  0.1162
23335W        W39519   7.954  11.412   1.046 -0.0790  0.0316 -0.0833
23336W        W39520  16.265  11.356   0.916  0.0076 -0.0109 -0.1717
23337W        W39521  18.165   0.772  15.087  0.2757  0.1473  0.2385
23338W        W39522   0.226   1.298  10.630 -0.1323  0.0739  0.1362
23339W        W39523  16.857   0.568   2.909 -0.1883  0.1336 -0.3817
23340W        W39524   8.476  14.890   2.870  0.0772 -0.0186  0.1419
23341W        W39525  14.313  10.049  12.269  0.0944  0.2425  0.0477
23342W        W39526   4.527  11.266  12.074 -0.0098  0.3241  0.0784
23343W        W39527   3.825  11.015  15.137  0.0623 -0.0416  0.0437
23344W        W39528  11.579   9.688  14.775 -0.2579 -0.2701 -0.0155
23345W        W39529   6.602  13.142   3.071  0.2597 -0.2208  0.0420
23346W        W39530   3.545   3.133   2.688 -0.1078  0.0245  0.0086
23347W        W39531   2.290  13.612  12.737  0.2109  0.0379  0.1695
23348W        W39532  14.184  17.469   3.462 -0.4200 -0.0140  0.3766
23349W        W39533  18.034  10.470  10.949 -0.0450 -0.0074 -0.1592
23350W        W39534  16.379   8.387   0.417  0.0128 -0.1798  0.0953
23351W        W39535  10.768  11.457  13.707 -0.4558  0.1128  0.1780
23352W        W39536   5.274   8.021   2.088  0.2715 -0.0799 -0.1489
23353W        W39537   5.851  13.505  14.907 -0.0274 -0.0154  0.1593
23354W        W39538  10.030   2.320   1.564  0.1224 -0.3631 -0.0373
23355W        W39539   4.765  13.047  11.513  0.0115  0.1510  0.0207
23356W        W39540   7.298   6.382  12.730 -0.3991  0.0479  0.1079
23357W        W39541   1.172  10.879   0.850  0.2562  0.3194  0.0792
23358W        W39542   0.394  11.792   4.932 -0.1415 -0.2445 -0.0117
23359W        W39543   1.954   6.013  13.387 -0.1905 -0.2671  0.1202
23360W        W39544   1.863   2.890  13.562 -0.1932  0.1509  0.1620
23361W        W39545   9.000  10.063   2.461 -0.2451 -0.0706  0.1919
23362W        W39546  17.375   7.117  12.979 -0.1953 -0.1157  0.1610
23363W        W39547   6.308   1.720  14.267  0.0387 -0.3666  0.1075
23364W        W39548  17.247   9.236  12.477  0.3448  0.1585 -0.3451
23365W        W39549  15.495   8.250   6.019  0.1501  0.4355 -0.0158
23366W        W39550  18.385   6.213   3.639  0.3174  0.0541 -0.0043
23367W        W39551   6.543   7.503  14.713  0.2910  0.1701 -0.0205
23368W        W39552  13.799   0.539  12.679  0.0946 -0.2198 -0.0736
23369W        W39553  13.040  17.921  12.498  0.2029 -0.0165  0.1893
23370W        W39554   1.671   9.971   3.600  0.0317  0.1014 -0.2735
23371W        W39555  12.575   3.609   0.845 -0.2875 -0.2523 -0.1282
23372W        W39556   1.734   9.045   2.287 -0.2536 -0.2858  0.0225
23373W        W39557  14.900   4.013   1.406 -0.1456  0.0426  0.5589
23374W        W39558   6.546   0.323   3.376 -0.2004  0.2137 -0.0005
23375W        W39559   6.408  13.746   5.271 -0.0547 -0.1507  0.0877
23376W        W39560   3.640   4.480  12.863 -0.1346 -0.2027 -0.0584
23377W        W39561   5.157   7.503   4.846  0.0715 -0.2419  0.1052
23378W        W39562   3.401  11.981   2.448 -0.2998  0.2065 -0.2870
23379W        W39563   2.447  12.546  13.744  0.0054 -0.2122  0.2272
23380W        W39564   4.563   8.451  11.308  0.0793 -0.3145 -0.1687
23381W        W39565   7.314   2.631   2.374  0.1928  0.1648  0.1167
23382W        W39566   9.129   6.394   3.632 -0.1499 -0.1861  0.1520
23383W        W39567  14.278   2.540   4.235  0.5341  0.0214  0.0820
23384W        W39568  17.858  15.362  12.643  0.4040  0.0422  0.1438
23385W        W39569  11.605  10.332   5.459 -0.0216 -0.3979  0.0544
23386W        W39570   8.893   3.958   1.622 -0.1853 -0.4582 -0.2450
23387W        W39571  10.389   7.042   1.464 -0.1848 -0.2279 -0.2615
23388W        W39572  15.882   6.920   4.303 -0.0365 -0.2613 -0.0378
23389W        W39573  17.796  16.218   3.787 -0.3168 -0.3569 -0.2150
23390W        W39574   8.796   9.085   5.163  0.0213  0.0284  0.2114
23391W        W39575   9.751  17.112  14.681 -0.0596  0.0445  0.2384
23392W        W39576  10.796   9.106  15.026 -0.1629  0.1650 -0.0248
23393W        W39577  13.576  11.270  13.247 -0.3293  0.1326 -0.3272
23394W        W39578   5.136   5.440  15.055 -0.0510  0.3596 -0.0814
23395W        W39579   8.343   9.552   1.793 -0.0796  0.1766 -0.1054
23396W        W39580  11.609   4.699   2.049 -0.0841 -0.0075 -0.1335
23397W        W39581   6.267  16.091   0.829  0.0373  0.0730  0.0572
23398W        W39582   8.382  16.728  14.041  0.1071 -0.0338 -0.0949
23399W        W39583   9.963   6.254  15.462 -0.0010 -0.0739  0.1769
23400W        W39584  10.052  17.234   0.308 -0.2161  0.2652 -0.2568
23401W        W39585  10.861  14.744  14.350  0.1264 -0.0400  0.0683
23402W        W39586   6.481  17.203  11.732  0.1982  0.1761 -0.3887
23403W        W39587   5.145  10.076  14.099 -0.3400  0.2937 -0.0067
23404W        W39588   9.813   3.875   4.975 -0.0550 -0.0401  0.1429
23405W        W39589  16.208   9.355  12.964 -0.0663 -0.1435 -0.1661
23406W        W39590   6.472  12.631   2.288  0.0381 -0.1805  0.1267
23407W        W39591  13.075   0.652  14.695  0.1293  0.0118 -0.1111
23408W        W39592   5.972   7.636  15.718 -0.0400 -0.3183  0.1211
23409W        W39593   6.065  15.576  14.303  0.0174 -0.3175  0.1485
23410W        W39594  14.752   0.127  10.334  0.3114  0.3504  0.0748
23411W        W39595  15.403  14.112   2.937 -0.0313 -0.0566  0.3595
23412W        W39596   6.039  17.734  14.415 -0.0111 -0.0228 -0.0953
23413W        W39597  13.212   6.655   1.184  0.3388 -0.1230 -0.2167
23414W        W39598   7.089   1.059  16.115  0.0714  0.1231 -0.0840
23415W        W39599   8.602   4.840  15.696  0.1191 -0.0268 -0.1322
23416W        W39600  11.804   0.618   3.574 -0.5609  0.1866  0.2672
23417W        W39601  11.203   4.773  15.761  0.2449  0.0196 -0.2195
23418W        W39602   5.407   3.907   3.366 -0.0279  0.2767  0.0879
23419W        W39603   4.947  14.652  12.318  0.2942  0.1624  0.3195
23420W        W39604   3.861  15.523   2.424 -0.0440  0.1826 -0.2926
23421W        W39605  13.853   9.444   6.467 -0.0508  0.3160 -0.1908
23422W        W39606  11.023   0.708  11.533  0.0781 -0.2443 -0.0389
23423W        W39607   1.186   0.279   0.157 -0.2975  0.0688  0.0453
23424W        W39608  18.223  12.500  11.373 -0.0958  0.0199  0.2456
23425W        W39609  10.608   4.446  15.950 -0.2689 -0.2099  0.0207
23426W        W39610  15.702   9.808   5.075 -0.0293 -0.0502  0.3439
23427W        W39611  10.449   7.586  15.691  0.1966  0.1407 -0.1917
23428W        W39612  18.128   9.010  15.382  0.1387  0.2211 -0.2750
23429W        W39613  10.475  17.677  13.313 -0.1847 -0.1172 -0.0877
23430W        W39614   5.614  17.472  10.706 -0.0017 -0.4307  0.1572
23431W        W39615  16.055   7.720   3.860 -0.2777 -0.0475 -0.1089
23432W        W39616  14.309  15.637  15.072  0.4493 -0.2170  0.2411
23433W        W39617  13.611  10.553   3.533 -0.4319 -0.3478 -0.3483
23434W        W39618  15.626   3.694   0.165  0.1409 -0.2570  0.1233
23435W        W39619   1.822   8.483  15.556 -0.1316  0.1104 -0.4554
23436W        W39620  18.246   0.270  15.085  0.1693 -0.1125 -0.1404
23437W        W39621  16.141  17.628  14.922  0.0337  0.0850 -0.0959
23438W        W39622   2.986   7.247   4.755  0.0336 -0.0243 -0.1364
23439W        W39623  10.427  12.673  11.405  0.2436 -0.0834 -0.0392
23440W        W39624  17.610   7.692   4.292  0.0944 -0.1930  0.1034
23441W        W39625  17.334  11.319   1.161 -0.6512 -0.0259 -0.2059
23442W        W39626   3.144  12.317  15.854  0.1568  0.1577  0.0271
23443W        W39627   6.700  10.789   5.287  0.0832  0.1558  0.0251
23444W        W39628  12.099   6.904   0.525 -0.1408 -0.0020 -0.2494
23445W        W39629   7.590   6.794  12.787 -0.2660  0.0582 -0.1937
23446W        W39630  17.661   5.794   1.650 -0.1976 -0.1639 -0.1267
23447W        W39631   2.915   3.980   4.747  0.0215  0.3825 -0.3652
23448W        W39632   4.054   4.123   3.419 -0.0320  0.1683 -0.1516
23449W        W39633  15.355  15.707  15.842  0.0413  0.0928  0.0342
23450W        W39634   9.313   5.355  11.844 -0.2648 -0.1239  0.0378
23451W        W39635   1.243   2.486   0.674 -0.0727  0.1728 -0.0175
23452W        W39636   8.511   6.947   4.984  0.0961 -0.0101  0.3759
23453W        W39637  15.870   8.001   5.830  0.3003  0.4432 -0.0040
23454W        W39638   4.660  16.578   4.255 -0.0901  0.0317 -0.0516
23455W        W39639   2.857  11.646  14.258  0.1800 -0.2423 -0.0216
23456W        W39640   4.604   3.036   3.091 -0.0935  0.1987  0.3531
23457W        W39641   3.480   4.481  10.121  0.1992 -0.3054 -0.0736
23458W        W39642   4.398   6.088  14.820 -0.2954  0.0867  0.0052
23459W        W39643   2.080  16.107   4.413 -0.1136  0.3079 -0.0175
23460W        W39644  16.061   2.381   0.945  0.0276 -0.1551 -0.0887
23461W        W39645   2.999  18.345  14.146  0.0952 -0.0039  0.0488
23462W        W39646   2.795  14.288  14.842  0.2053  0.1177 -0.0959
23463W        W39647   6.494   5.483   4.332 -0.3359  0.2303 -0.0990
23464W        W39648   1.741   7.528  13.934 -0.3163  0.2565 -0.0292
23465W        W39649   2.575   1.623  15.178  0.0265  0.0873 -0.4777
23466W        W39650   4.532   0.521  14.135 -0.2853 -0.3987 -0.2549
23467W        W39651   8.292   7.353   6.048  0.1837 -0.1385  0.0998
23468W        W39652  12.647   8.627  13.927  0.2995 -0.0203  0.3609
23469W        W39653   8.735   0.533   2.517 -0.0600 -0.2073  0.4021
23470W        W39654  14.711   6.706   2.300  0.1331 -0.0815 -0.2181
23471W        W39655   0.302   4.435   4.461 -0.0494  0.0967  0.1811
23472W        W39656  17.178   1.214   5.132 -0.0682  0.2390  0.1935
23473W        W39657  13.920   4.729   0.572  0.0834  0.1452  0.0362
23474W        W39658  15.479  18.308  11.762  0.2334 -0.0025 -0.0388
23475W        W39659  11.675  15.197  11.717 -0.1145  0.1674  0.3866
23476W        W39660   2.352   2.511   0.625  0.0025 -0.2070 -0.0446
23477W        W39661   2.633   1.082   2.675  0.0098 -0.0416 -0.1295
23478W        W39662   7.414  14.391  13.162 -0.1813 -0.1634 -0.2742
23479W        W39663   8.073   3.035   4.018 -0.0220  0.2613 -0.0347
23480W        W39664  14.174   8.408   2.461  0.3977  0.0867 -0.0547
23481W        W39665   0.981  11.186  11.525 -0.0298 -0.0122  0.3200
23482W        W39666   1.571  11.223  14.881  0.0622  0.1190 -0.0469
23483W        W39667   2.056   4.462  12.146 -0.2366  0.0170 -0.2791
23484W        W39668  17.287  16.345  13.894 -0.5594  0.1553  0.0413
23485W        W39669   0.561   0.372   3.356  0.0423  0.0774 -0.0244
23486W        W39670  11.252  12.701  12.828 -0.0299 -0.2027 -0.0849
23487W        W39671  16.391  12.458   2.589 -0.0870 -0.1770 -0.0418
23488W        W39672   8.525   4.922   1.523 -0.2625 -0.1429  0.0546
23489W        W39673   0.555   5.484   4.874  0.3475  0.2487  0.0204
23490W        W39674   2.455   8.341   0.853  0.1986 -0.2208  0.1627
23491W        W39675  14.375   4.002   3.981  0.2697  0.1009  0.0703
23492W        W39676   7.086   8.472   4.386 -0.0611 -0.0471  0.2325
23493W        W39677   9.894  13.758   1.401  0.0218  0.2139 -0.0287
23494W        W39678   3.646   9.957  15.407 -0.2149  0.2783  0.0016
23495W        W39679   5.860  13.644   3.448 -0.2442 -0.0587  0.0328
23496W        W39680  14.604  10.358  14.414  0.2319 -0.0965  0.3385
23497W        W39681   9.772   1.265  12.919  0.0963  0.0707  0.1915
23498W        W39682  18.461   3.047  12.155  0.4649 -0.0701  0.1383
23499W        W39683   4.265  13.852   5.172  0.1785 -0.1427 -0.0484
23500W        W39684  10.940   7.644   0.263 -0.3334  0.0956  0.2213
23501W        W39685  11.685  13.064  12.689 -0.2843  0.1947  0.3457
23502W        W39686   5.836   3.391   3.085 -0.2311 -0.1153  0.1061
23503W        W39687  12.165   6.353  13.018 -0.0812  0.1383 -0.0711
23504W        W39688   1.380  12.141   2.253 -0.2827  0.1166 -0.2444
23505W        W39689  17.834   2.311   6.122 -0.1665 -0.0685  0.0832
23506W        W39690  14.363  16.054   3.371 -0.2176  0.2759  0.0484
23507W        W39691  10.365   7.289   0.740 -0.6322 -0.0864 -0.0897
23508W        W39692   2.080   3.408   4.488  0.1288  0.1068  0.4021
23509W        W39693  15.001   1.303  11.858  0.0038  0.2020 -0.0574
23510W        W39694  12.168   3.447  14.424  0.4124 -0.1424  0.4913
23511W        W39695   5.311  15.454  13.232  0.0641  0.1737  0.1385
23512W        W39696  13.150  11.870  15.413 -0.0675 -0.3012  0.0189
23513W        W39697   5.311   5.451   2.535 -0.1717 -0.2162 -0.0099
23514W        W39698   1.966   0.482   0.239 -0.1532 -0.0632 -0.1856
23515W        W39699  10.805   0.051  12.322  0.0755  0.0293 -0.4131
23516W        W39700   5.782   1.964   1.908 -0.1632 -0.0488 -0.1070
23517W        W39701  10.208   9.638  15.909  0.3183  0.2258  0.1069
23518W        W39702   8.329   6.852   4.026  0.1475 -0.2829  0.1584
23519W        W39703   5.755   2.636  13.547 -0.3107  0.0433  0.1384
23520W        W39704   5.697   5.039   1.795  0.0710  0.3793 -0.0182
23521W        W39705  17.878  11.566  12.549 -0.0250 -0.0495  0.0462
23522W        W39706  12.771  18.521  15.968 -0.1477  0.2854 -0.1476
23523W        W39707  12.754  15.598   5.335  0.3880  0.0855  0.3938
23524W        W39708  17.317  10.383  12.898 -0.3142  0.1891  0.2017
23525W        W39709   9.148  14.436   3.747  0.0642  0.2455 -0.2471
23526W        W39710   2.226  11.583  15.263  0.2150 -0.0777  0.1009
23527W        W39711   1.137   8.019   4.838 -0.1195  0.3417  0.0854
23528W        W39712   2.584  11.081   2.235  0.2234  0.1462  0.3176
23529W        W39713  15.251   9.464  12.502 -0.2654 -0.1109  0.2185
23530W        W39714   4.654   7.645   1.733 -0.3219 -0.0972 -0.1514
23531W        W39715  16.827   9.312   1.907  0.0693 -0.3211 -0.0549
23532W        W39716   8.120   7.479  12.250 -0.2263  0.3079 -0.0239
23533W        W39717   7.672  15.978   1.407 -0.1870  0.1087  0.0553
23534W        W39718  17.814   2.801   5.274 -0.1362 -0.2664  0.0141
23535W        W39719   1.329   6.218  11.685  0.0436 -0.1509 -0.1672
23536W        W39720  18.122   6.687   4.411 -0.2176 -0.1320 -0.0213
23537W        W39721  17.892  10.769   1.618  0.1100  0.0636 -0.4668
23538W        W39722   0.971  15.379  14.048  0.1299 -0.0052  0.2471
23539W        W39723  14.991  16.452  11.554 -0.3117  0.0294 -0.0163
23540W        W39724   2.570  14.524   4.299 -0.1429  0.0615  0.1121
23541W        W39725  11.157  16.915  13.792  0.1209  0.0229  0.2099
23542W        W39726   0.676   4.938  13.424 -0.1109  0.1893 -0.0730
23543W        W39727   4.785  14.020   0.254 -0.2362  0.2355 -0.0314
23544W        W39728   2.491   0.546  11.897 -0.1156  0.1644  0.1484
23545W        W39729   6.992  17.427   0.442  0.0842 -0.3125  0.3199
23546W        W39730   7.532   0.628   1.747 -0.1141  0.1391 -0.3211
23547W        W39731   6.585   1.859   1.917  0.2550  0.3100 -0.3376
23548W        W39732   2.175  12.759   0.576  0.1830  0.2725  0.1832
23549W        W39733  15.280   2.105   0.672 -0.2361  0.3712 -0.0400
23550W        W39734   6.541  11.784   4.411 -0.2455 -0.0422 -0.0420
23551W        W39735   7.721  18.105  13.717  0.0414 -0.0084  0.1352
23552W        W39736   9.444   8.766  12.254 -0.1447 -0.1707  0.0093
23553W        W39737  17.617  13.167   4.137 -0.0592  0.1109  0.0508
23554W        W39738  16.569  13.326  10.951 -0.0604 -0.1456  0.1884
23555W        W39739   4.304   3.926   2.136  0.1671 -0.2561  0.0190
23556W        W39740  17.854  16.271   1.985 -0.0506  0.0390  0.0210
23557W        W39741   4.531   9.416  12.074 -0.1641  0.1678 -0.1873
23558W        W39742   4.417   7.475   3.558 -0.2726 -0.1189 -0.0072
23559W        W39743   3.602   9.503  12.351  0.4226  0.1409  0.1466
23560W        W39744  13.080  10.697   1.092  0.0606 -0.1171 -0.0948
23561W        W39745   4.729  12.842  14.814  0.0702 -0.0338  0.0036
23562W        W39746  11.711   8.086  13.950  0.2210 -0.0246 -0.3329
23563W        W39747   6.863   3.242  12.387  0.0952 -0.2477  0.1098
23564W        W39748  16.501  10.990   5.519 -0.3643 -0.4189  0.2421
23565W        W39749   2.299   3.008  11.557  0.0729 -0.1045  0.1483
23566W        W39750   7.935  13.159  14.398  0.0256  0.1895  0.0404
23567W        W39751   5.590   7.800   4.351  0.1084  0.5402  0.0788
23568W        W39752   8.176   1.540  15.022 -0.1932 -0.1620  0.0387
23569W        W39753  10.052   1.425  14.807  0.1951  0.4533  0.1744
23570W        W39754  14.613   3.821   5.562 -0.2731 -0.1935  0.2606
23571W        W39755  10.920  10.764  16.089 -0.2522  0.1377 -0.2175
23572W        W39756   8.390  18.343   3.382 -0.0976  0.2020 -0.1181
23573W        W39757   9.410  13.334   3.040  0.0255 -0.1903  0.2173
23574W        W39758  17.259  17.638  16.035  0.2057 -0.1399  0.4115
23575W        W39759   5.408  16.672  13.349 -0.2932  0.1068  0.0869
23576W        W39760   0.899   0.061   4.163  0.1044 -0.1423  0.0018
23577W        W39761   1.724  16.209  12.337  0.3958  0.1955  0.0337
23578W        W39762   5.223  11.908   4.915  0.1623 -0.1288 -0.0941
23579W        W39763  11.518   3.198   1.281 -0.2474  0.1579 -0.0255
23580W        W39764   2.477  12.590   4.330  0.0085  0.1826  0.3774
23581W        W39765  18.139  14.116  14.440  0.0340 -0.2903  0.1940
23582W        W39766   2.270   0.604  10.886  0.1840  0.0276  0.3090
23583W        W39767  15.273  14.790  15.074 -0.0472  0.3075 -0.0377
23584W        W39768   5.318  16.751   4.974  0.0676  0.2437 -0.0517
23585W        W39769   8.000   6.324   0.307 -0.0380  0.0542  0.3099
23586W        W39770   5.988   6.018  12.572 -0.3911 -0.0338  0.2890
23587W        W39771  13.539   4.962   1.841  0.1523 -0.1749  0.1498
23588W        W39772  16.478   1.810  10.501 -0.4056 -0.2211  0.4254
23589W        W39773   1.049  13.299  11.361  0.3617 -0.2166  0.3535
23590W        W39774   2.069   1.605  11.822 -0.3650  0.1392 -0.1383
23591W        W39775  11.469  15.328  13.092 -0.1893  0.3790  0.2360
23592W        W39776   3.548   4.020   3.587 -0.1659 -0.0525 -0.1117
23593W        W39777   3.247   4.843  14.687 -0.0939  0.0340 -0.0883
23594W        W39778   5.730  11.570  15.847  0.0872  0.3595 -0.1859
23595W        W39779   9.935  15.572  14.957 -0.0902  0.2510  0.1881
23596W        W39780  12.319   2.451  13.022  0.2012  0.2714 -0.0336
23597W        W39781   4.230  17.338   2.583  0.0506 -0.3871 -0.1552
23598W        W39782   3.466   1.528  12.521 -0.0489 -0.0257  0.0062
23599W        W39783   3.236  10.330  12.701  0.0899 -0.1688 -0.0083
23600W        W39784  11.887  11.897  15.914 -0.0646  0.0627  0.2269
23601W        W39785  11.487   4.060  13.818 -0.2120  0.1291 -0.2433
23602W        W39786   1.570   8.104  13.323 -0.3364 -0.2791  0.2471
23603W        W39787   1.931  13.201  12.182 -0.3350  0.2416  0.1912
23604W        W39788  16.554  10.945  13.589  0.0215  0.0383  0.1844
23605W        W39789  18.224   9.282   4.945 -0.0413  0.1834  0.1984
23606W        W39790   2.468   9.816   3.118 -0.2924 -0.0312 -0.0214
23607W        W39791  12.663  15.036   4.399 -0.1663 -0.0680 -0.0995
23608W        W39792  12.264   9.164   4.194  0.0582  0.0335 -0.1050
23609W        W39793  13.899  16.551   2.240  0.1682  0.2326 -0.2515
23610W        W39794  17.255  12.910   5.245  0.0341  0.1032 -0.2116
23611W        W39795  13.883  18.440   1.217  0.2901 -0.0362 -0.0790
23612W        W39796  17.085  13.056   4.779  0.4141  0.1415 -0.0988
23613W        W39797   6.868   3.809  15.883 -0.3556 -0.1930 -0.0279
23614W        W39798  10.083  17.724  11.441  0.2603 -0.0370  0.2646
23615W        W39799   4.657  14.052  11.067 -0.3098 -0.3454  0.0595
23616W        W39800  12.202   9.717   0.467 -0.2629 -0.1488 -0.2648
23617W        W39801  11.307  18.235   5.093 -0.0688 -0.2698 -0.6037
23618W        W39802  15.294  15.747  13.249  0.2111  0.0951 -0.1406
23619W        W39803   2.298  17.969   0.319 -0.3536 -0.0371  0.0390
23620W        W39804  16.209  14.332   3.904  0.1033 -0.0753 -0.1083
23621W        W39805  11.285  10.417  14.376 -0.5041  0.2347 -0.2547
23622W        W39806  11.271  14.340   5.023 -0.1137 -0.1531 -0.2973
23623W        W39807  13.684   1.031  12.672 -0.0655 -0.1826  0.0366
23624W        W39808   1.338  10.269  14.491  0.6269  0.0743 -0.4426
23625W        W39809   4.670   2.175   0.261 -0.0364  0.1480  0.1343
23626W        W39810  10.472   2.499   2.826  0.1961 -0.0932 -0.0090
23627W        W39811  14.718   5.962   2.820  0.1519  0.1151  0.0485
23628W        W39812   8.900  16.009   2.516 -0.0897 -0.3566 -0.0982
23629W        W39813  18.380   6.943  12.276 -0.4304 -0.1261  0.0665
23630W        W39814   8.540   2.217  15.998 -0.0096  0.1676  0.0892
23631W        W39815  16.230   4.675  11.568 -0.2452 -0.2247 -0.1091
23632W        W39816  16.376  16.645   0.439  0.2086 -0.0029 -0.0526
23633W        W39817  13.194  17.917  12.030  0.0576  0.1133  0.0143
23634W        W39818  13.198  12.160  11.561 -0.2876  0.1658 -0.3166
23635W        W39819   8.196   0.548  14.733 -0.1167 -0.3393 -0.1116
23636W        W39820  16.250   4.759   0.960  0.1782  0.0615  0.0639
23637W        W39821  15.975  17.794  15.685  0.0771 -0.0810 -0.2849
23638W        W39822  14.837  14.602  14.271 -0.0833  0.0537  0.0529
23639W        W39823   6.136   6.164   0.201  0.1324  0.1233  0.2974
23640W        W39824  17.990  18.037  14.242 -0.5189  0.0777 -0.3996
23641W        W39825   2.777   5.807  13.643 -0.0782 -0.1143 -0.4198
23642W        W39826  15.887  15.982   2.959 -0.2935  0.1202  0.1991
23643W        W39827   0.444   2.148   4.857  0.0363  0.1419 -0.1661
23644W        W39828   0.804  10.057  12.576  0.2610 -0.2173  0.1288
23645W        W39829   1.612   3.212  11.299  0.0488  0.1133 -0.0367
23646W        W39830  13.140  13.663   1.549  0.1217 -0.3182 -0.0574
23647W        W39831   2.023   4.046   3.623 -0.4771  0.1579 -0.0868
23648W        W39832   5.623  17.303   3.408  0.0036 -0.0443 -0.1136
23649W        W39833  18.473  10.034   3.739  0.1264 -0.0788  0.0592
23650W        W39834  15.065   6.550   3.592 -0.0782  0.2524  0.1791
23651W        W39835  18.312   0.241  11.808 -0.1991  0.0723  0.3097
23652W        W39836   1.728   2.250   1.285  0.1739  0.0825  0.0821
23653W        W39837   5.849   6.749  15.679 -0.1127  0.0389  0.1923
23654W        W39838  12.362  11.785   5.959 -0.3381  0.0215 -0.2202
23655W        W39839   5.343  15.514   3.615  0.2044 -0.1229 -0.2949
23656W        W39840  11.593   5.560   1.180 -0.2636 -0.0836 -0.3404
23657W        W39841  11.131  11.065   2.391 -0.1026 -0.0687 -0.0444
23658W        W39842  13.480  16.941   1.853  0.1837  0.3875 -0.0536
23659W        W39843  10.654   1.651  12.230 -0.3573 -0.0919 -0.0037
23660W        W39844  12.844  13.466   2.021  0.0487  0.1053 -0.2860
23661W        W39845   3.571  16.523   4.666 -0.0666  0.0587  0.1763
23662W        W39846  15.520  14.973   1.976  0.1155  0.3112  0.1586
23663W        W39847  13.116   5.085  13.916  0.1859 -0.1218 -0.0656
23664W        W39848   0.139   3.118   9.963 -0.2198  0.1469  0.0232
23665W        W39849  15.911   4.194  13.816  0.2031  0.2374 -0.1006
23666W        W39850  17.229  10.013  13.230  0.0703  0.1668  0.0944
23667W        W39851   6.304  16.807  14.880 -0.1176  0.0523 -0.0054
23668W        W39852  18.006   1.005  11.306  0.0003  0.3114  0.4398
23669W        W39853  15.264   2.254   4.813 -0.3692  0.0580 -0.0822
23670W        W39854   9.236   3.723  14.587 -0.2038  0.0707  0.3920
23671W        W39855   5.487   4.456  14.127 -0.0473  0.1983 -0.0127
23672W        W39856  17.958  11.433  11.608 -0.1222  0.2029  0.1876
23673W        W39857   2.736   1.612   2.779  0.1679  0.2380 -0.1372
23674W        W39858  15.942  18.026  12.652  0.0350 -0.0918  0.0783
23675W        W39859  10.515  11.336  12.739  0.4012  0.1698  0.1453
23676W        W39860  11.792   2.609   5.097 -0.2405  0.1903 -0.1106
23677W        W39861   6.318   6.414  11.914 -0.1305 -0.2225  0.0542
23678W        W39862   9.605   9.650  13.561  0.1020  0.1554 -0.2307
23679W        W39863   5.348  17.591  11.821 -0.1831 -0.0036 -0.1972
23680W        W39864   0.343   6.052   2.950  0.1888  0.0917 -0.0021
23681W        W39865  14.514   0.378   0.570  0.2782 -0.3168 -0.4286
23682W        W39866   1.468  13.858   4.776  0.0555  0.1484 -0.1375
23683W        W39867   3.382  11.986   0.927 -0.2322  0.3154  0.3438
23684W        W39868  14.179  10.577  16.059 -0.3629  0.0232  0.2042
23685W        W39869  12.267  15.490  14.771  0.5114  0.0438 -0.2388
23686W        W39870   3.063   1.551  11.659 -0.2098  0.0522 -0.1067
23687W        W39871  15.353  13.325  13.983 -0.1858 -0.1490  0.1346
23688W        W39872   0.029   2.214  10.749 -0.2360  0.2547  0.0022
23689W        W39873  18.483   4.582  10.507  0.0265  0.1165 -0.3216
23690W        W39874   0.997   1.859  15.299 -0.2528  0.1025  0.2295
23691W        W39875  10.216  11.973  12.325 -0.0966 -0.0160 -0.1843
23692W        W39876   1.963  10.155   1.848 -0.4228  0.6009 -0.1699
23693W        W39877  13.537   7.746   3.524 -0.1369  0.1282 -0.1929
23694W        W39878  15.619  15.700  11.492 -0.2074  0.1820  0.3895
23695W        W39879  11.777  16.202  15.161 -0.0046 -0.0077 -0.0417
23696W        W39880   0.836  10.059   1.629  0.1856  0.2890  0.3063
23697W        W39881   0.460  15.021  14.371  0.0103  0.1055  0.0570
23698W        W39882  17.975   6.459   4.834  0.1365 -0.3232  0.0578
23699W        W39883  14.462  10.597   2.197  0.1849  0.1544  0.0155
23700W        W39884   7.910   7.545  14.595  0.1756 -0.1051 -0.0702
23701W        W39885   3.704  17.598   1.011 -0.2447  0.0585  0.0501
23702W        W39886   9.613  11.055   0.590  0.0341 -0.0569  0.2642
23703W        W39887  10.598  10.931   2.382  0.3208 -0.3653 -0.1685
23704W        W39888  11.191  13.127   5.024 -0.0577 -0.0850  0.0955
23705W        W39889   4.725   5.117   4.052 -0.1750  0.2672  0.0092
23706W        W39890  17.678   0.167   1.970  0.0611 -0.0364  0.1527
23707W        W39891   2.444   5.049  13.032  0.1669 -0.2631  0.0427
23708W        W39892  10.461  10.887   6.279  0.0122 -0.0971 -0.1509
23709W        W39893  14.168  14.908   3.525  0.2288 -0.2701  0.0743
23710W        W39894  12.095  15.822   0.239  0.0245  0.1137 -0.0075
23711W        W39895   1.874   9.848  13.644 -0.3944 -0.4794  0.2080
23712W        W39896   8.466   0.773  13.812 -0.2195  0.1228  0.2234
23713W        W39897  14.301   1.000   3.494  0.2781  0.1414 -0.0645
23714W        W39898   9.674   1.820  14.827 -0.3522  0.2043 -0.0299
23715W        W39899  15.499  14.954   9.903 -0.0847  0.0776  0.2898
23716W        W39900  10.473   8.079   0.159 -0.2050  0.3390 -0.1766
23717W        W39901   7.216  14.388  14.817  0.2033 -0.2013  0.0836
23718W        W39902  12.612  11.303   0.312 -0.4014 -0.0384  0.1447
23719W        W39903  15.495   9.997  14.388  0.1483 -0.1669  0.1770
23720W        W39904  14.212  17.981  11.754  0.1716  0.3465  0.2535
23721W        W39905  16.343   6.205  13.890 -0.0534  0.0040  0.1162
23722W        W39906   8.161   3.405   0.654  0.2570 -0.1160  0.2234
23723W        W39907  14.076  16.719   2.764 -0.1778 -0.1740 -0.0563
23724W        W39908   5.406   0.703  14.397  0.1123  0.1089 -0.1066
23725W        W39909  16.140  14.047   3.413  0.2143  0.5680 -0.0479
23726W        W39910   3.912   7.250   1.979 -0.1939 -0.0405 -0.0966
23727W        W39911   8.422   8.232  13.884  0.4071 -0.4002 -0.0221
23728W        W39912  10.236   0.619  14.241  0.2871  0.1226  0.0020
23729W        W39913   8.678   2.817   1.204 -0.1727 -0.1134  0.2607
23730W        W39914  17.990  14.017  15.321 -0.0098 -0.2109 -0.0084
23731W        W39915   0.641   4.863  12.889 -0.0326  0.0966  0.2993
23732W        W39916  11.244   6.278   3.197 -0.1891 -0.1919 -0.0044
23733W        W39917  18.472   8.050   4.259  0.1759 -0.1051  0.1086
23734W        W39918  17.024   5.211  14.089  0.0451 -0.0770 -0.2762
23735W        W39919   3.662  15.626  13.435 -0.1711 -0.3068 -0.0884
23736W        W39920  10.593   7.218   0.284 -0.0558 -0.2141  0.0891
23737W        W39921   0.696   9.061   4.126 -0.1342  0.0615 -0.2176
23738W        W39922   4.792   9.688  13.656 -0.1787  0.0115 -0.2233
23739W        W39923   5.095   0.027   4.020  0.1874 -0.0072 -0.0799
23740W        W39924   1.635  16.379   2.530  0.5269 -0.0760  0.0402
23741W        W39925  13.027  15.205  11.660 -0.2215  0.1490 -0.1965
23742W        W39926  11.607  14.035  14.138 -0.1244  0.1408  0.0424
23743W        W39927   7.284  16.131  11.041 -0.1133 -0.2095  0.0555
23744W        W39928  15.150   7.105  13.510  0.1342 -0.0818 -0.0557
23745W        W39929   0.970   1.669  14.636  0.1068  0.0029  0.1107
23746W        W39930   6.010  17.707   5.521  0.2834 -0.3283  0.1681
23747W        W39931   0.350  11.140  12.455  0.1919  0.2048 -0.4091
23748W        W39932  10.381  11.507   1.000  0.0472 -0.1581  0.1881
23749W        W39933   1.371   2.958  13.656  0.4544  0.0662 -0.0322
23750W        W39934   1.438  14.962  12.640 -0.0206 -0.1844 -0.0499
23751W        W39935   7.723   7.420   3.849  0.0740 -0.2436  0.1386
23752W        W39936   0.364  10.902   4.826 -0.0936 -0.0654  0.3440
23753W        W39937   0.032  17.540  10.062  0.1079 -0.0831  0.2027
23754W        W39938  12.737   3.306   1.869 -0.0290  0.1295  0.2500
23755W        W39939  12.261  18.317   3.314 -0.3665 -0.1433 -0.1248
23756W        W39940  14.123   2.809   3.510  0.2721  0.0475  0.1305
23757W        W39941  11.581   0.720   4.083 -0.2830 -0.0956  0.1356
23758W        W39942   9.980   0.156   5.170  0.1344  0.0269 -0.0590
23759W        W39943  11.136  11.000   4.867 -0.0617 -0.1110 -0.0221
23760W        W39944  16.747   7.726   0.943  0.0095  0.0466  0.2363
23761W        W39945   8.629   7.585  12.490  0.1413  0.0637 -0.1349
23762W        W39946   3.616   8.869  11.125  0.2703  0.2621  0.1492
23763W        W39947  14.164   3.669   0.424  0.0938 -0.2326 -0.2772
23764W        W39948   9.858  11.486   6.050  0.0198 -0.0721  0.0600
23765W        W39949   6.096  17.265   2.564 -0.3710 -0.3506  0.1077
23766W        W39950  13.886  14.583   4.311 -0.1198  0.2362 -0.1702
23767W        W39951  14.163  12.140  14.434  0.2074  0.2158  0.0457
23768W        W39952  17.287  17.504   9.919  0.3392 -0.1825 -0.5695
23769W        W39953   0.198   0.887  15.592  0.2807  0.0136 -0.1780
23770W        W39954   9.791  10.004   5.007 -0.1545 -0.0112 -0.0378
23771W        W39955   9.949  11.824   2.295 -0.0033  0.2191 -0.0757
23772W        W39956   4.693   8.639   3.566 -0.2011  0.0521  0.2431
23773W        W39957  13.634  15.653  12.189 -0.0713 -0.2212 -0.1619
23774W        W39958   1.363   3.723  10.804  0.3973  0.0338 -0.1813
23775W        W39959   1.597   7.654   0.449  0.1018  0.0959 -0.1789
23776W        W39960  11.727   9.469   5.244 -0.1298  0.0559  0.0776
23777W        W39961   4.328  12.701   1.531 -0.2964 -0.3120  0.1074
23778W        W39962  10.583   7.020  12.793 -0.2501 -0.1960  0.2245
23779W        W39963  17.529   0.415  11.342  0.1234  0.0609  0.0676
23780W        W39964  13.743   9.776  15.121  0.4138  0.3729  0.2104
23781W        W39965   9.204  13.371  11.429  0.0808  0.3696  0.2023
23782W        W39966  13.136   3.585   3.367  0.2445 -0.1808  0.0942
23783W        W39967  17.981   6.441   0.258 -0.0896 -0.3370 -0.2900
23784W        W39968  11.455   2.234  13.004  0.1050  0.3486  0.4474
23785W        W39969   8.000  16.834  13.288  0.0915 -0.3148 -0.0944
23786W        W39970   4.921   3.688   3.462 -0.2515  0.2185  0.3509
23787W        W39971  11.173   5.049   3.494 -0.0885  0.2461  0.1192
23788W        W39972   0.362   5.088  11.669 -0.3579  0.0931 -0.5836
23789W        W39973  12.070   5.649   4.500 -0.3214 -0.1147  0.2622
23790W        W39974   4.656  15.417   1.398  0.2506 -0.2534 -0.2041
23791W        W39975   7.574   1.302   4.525 -0.0189 -0.1645 -0.1536
23792W        W39976  14.565   2.087  12.421  0.0641 -0.1888 -0.1603
23793W        W39977   4.912   7.296  14.417 -0.1909  0.2579  0.1415
23794W        W39978   1.793   5.924   1.962  0.1201  0.1619  0.1078
23795W        W39979   2.937   8.211   3.909  0.3338 -0.0936 -0.0115
23796W        W39980  15.538   2.831   3.853 -0.0832  0.0488 -0.3793
23797W        W39981   4.610   5.783  11.628 -0.0969  0.1447 -0.1033
23798W        W39982  14.141   1.506  14.607  0.0118  0.1815  0.0460
23799W        W39983   0.205   1.406   1.328 -0.1650 -0.2068 -0.3088
23800W        W39984  14.492  11.138   4.245  0.1260 -0.3968 -0.0652
23801W        W39985  13.184   3.419  12.183 -0.1313 -0.2156 -0.2464
23802W        W39986   4.698   0.584  11.444  0.2974  0.0084 -0.0160
23803W        W39987  12.715   4.029   0.623 -0.3105 -0.1265  0.0190
23804W        W39988  11.399   6.235   4.147 -0.3425  0.2972 -0.1603
23805W        W39989  10.715  16.589  15.382  0.0096 -0.0879 -0.0179
23806W        W39990   2.728   3.104  13.226 -0.1025 -0.1359 -0.0802
23807W        W39991  10.395   0.736  13.233 -0.1533 -0.0590  0.0217
23808W        W39992   5.923   5.623   4.307  0.1390 -0.0277 -0.3773
23809W        W39993   5.396   9.537  14.014  0.0876 -0.1559 -0.1050
23810W        W39994   9.687  11.341  11.899 -0.1584  0.0590 -0.0068
23811W        W39995   8.363  12.186   4.196  0.1287  0.4368 -0.0191
23812W        W39996   4.264   9.624   1.412 -0.2153 -0.0135  0.2251
23813W        W39997   9.143   0.340   4.567  0.3090  0.3148  0.3273
23814W        W39998   0.383  11.593  12.275  0.0612 -0.0652  0.2439
23815W        W39999   1.700   5.360   3.400  0.1797 -0.1206  0.2408
23816W        W40000   0.393   3.186  11.652  0.3615  0.2666 -0.1519
23817W        W40001  10.598  13.328  14.300  0.2638 -0.1588 -0.3777
23818W        W40002  14.599   3.735   1.731  0.3307  0.1166 -0.1957
23819W        W40003   1.210   6.408   2.904 -0.1183  0.3584 -0.2117
23820W        W40004  17.466   9.741   4.755 -0.2626  0.1756  0.0591
23821W        W40005  12.739   4.835   1.667 -0.5288  0.2972 -0.1383
23822W        W40006   0.134   8.555  14.458 -0.0639  0.0681  0.0201
23823W        W40007  17.862  16.711   4.395  0.1155 -0.0243  0.1438
23824W        W40008   3.894   4.290   1.023  0.1457  0.0479 -0.0043
23825W        W40009  15.974  11.815  13.907 -0.1043 -0.0778  0.2441
23826W        W40010  13.970   2.708   2.832 -0.0519 -0.0775 -0.2383
23827W        W40011  14.095   5.201   5.041  0.0779 -0.0201 -0.2918
23828W        W40012  15.775   1.010   1.181  0.5968  0.0917 -0.1687
23829W        W40013  16.402   7.757  15.259 -0.0540  0.2176 -0.0114
23830W        W40014  16.719   9.682   0.852  0.0717  0.0495  0.2048
23831W        W40015   8.642  15.935   4.431 -0.0103 -0.0449  0.0072
23832W        W40016  10.487   8.394  14.625  0.1470 -0.1221 -0.2009
23833W        W40017   6.770  15.624  15.439  0.4872  0.1066  0.1238
23834W        W40018   5.445   2.919   9.958 -0.0237 -0.1198  0.0426
23835W        W40019   3.480   6.155   3.912  0.0603  0.0694 -0.2792
23836W        W40020  10.338   6.683  15.296  0.3262 -0.0366  0.0231
23837W        W40021   1.259  17.837  11.850 -0.2320  0.0323 -0.3365
23838W        W40022   4.015   6.999  15.514 -0.1586  0.0297 -0.0396
23839W        W40023   6.471  14.258  14.752 -0.2562 -0.1209 -0.1914
23840W        W40024  11.257   7.617  13.758  0.1142 -0.0741 -0.1304
23841W        W40025  15.717  14.187  15.638 -0.2081 -0.1363  0.0048
23842W        W40026   5.961  11.984  15.779 -0.2440  0.1510 -0.0389
23843W        W40027  18.068   9.972  15.085  0.4264 -0.2471  0.0358
23844W        W40028  14.021  18.368   0.387  0.0639 -0.1875 -0.2421
23845W        W40029  14.411  16.478   1.959  0.1562  0.0723  0.1757
23846W        W40030   4.200  14.403   4.995  0.2607  0.0776  0.2372
23847W        W40031   7.650  18.025  12.593 -0.1538 -0.0701 -0.1247
23848W        W40032   4.637   6.247  12.229  0.0278  0.1459  0.2367
23849W        W40033  15.618   9.989  13.827 -0.1853 -0.1096  0.3962
23850W        W40034   5.847  16.765   4.900  0.0825 -0.1426 -0.0266
23851W        W40035  13.402   2.320   4.212 -0.0920  0.3432 -0.0296
23852W        W40036   5.875   7.816   3.496 -0.2933  0.0157 -0.2098
23853W        W40037   6.719  10.324  15.531 -0.0493 -0.2042 -0.1655
23854W        W40038  16.722   3.280  14.348 -0.0841  0.2391  0.0453
23855W        W40039   2.885  17.802  14.215 -0.2368  0.2188  0.2176
23856W        W40040   9.080   9.649   1.306  0.0272 -0.0077 -0.0516
23857W        W40041  14.175  17.416   5.025  0.2669 -0.0356  0.3317
23858W        W40042   0.023  13.213   4.122  0.1992  0.4103  0.1400
23859W        W40043  12.086   6.906  14.478  0.0489  0.0224  0.0329
23860W        W40044   9.188   4.343   1.862 -0.1053  0.0892  0.0777
23861W        W40045   5.642   0.254  10.432 -0.1661  0.1617 -0.2727
23862W        W40046  18.137  12.467  15.727 -0.5431 -0.3037  0.0672
23863W        W40047   5.185   4.165  13.122  0.3838  0.1803 -0.3179
23864W        W40048   8.150   2.216   0.906 -0.3263 -0.0429 -0.0827
23865W        W40049   9.143   9.746   4.590 -0.2040 -0.1718 -0.0799
23866W        W40050   8.644  17.181   5.272 -0.3602 -0.0300 -0.1712
23867W        W40051  12.183   1.358  15.202  0.0664 -0.0774 -0.2377
23868W        W40052  14.588   7.290   0.147 -0.1447 -0.0762 -0.2368
23869W        W40053  13.992   7.190   2.911  0.0711 -0.4604  0.3965
23870W        W40054   3.415  12.144   1.422 -0.1506 -0.0963 -0.3617
23871W        W40055  15.247  15.411   2.239  0.2318 -0.0845 -0.1416
23872W        W40056  13.137  11.411   0.407  0.4493 -0.0585  0.2545
23873W        W40057  11.923   7.532   0.010  0.1561  0.0372 -0.1966
23874W        W40058   7.910   4.744  11.519 -0.3265 -0.0747  0.2298
23875W        W40059  14.887   1.565   5.816 -0.0719 -0.1316  0.1014
23876W        W40060   4.389  11.417   5.677 -0.3236 -0.1895 -0.0389
23877W        W40061  16.565  16.780   0.885  0.1776  0.2837  0.4650
23878W        W40062  10.992   7.610   2.021 -0.0137  0.0017  0.0449
23879W        W40063  16.969   6.142  13.151  0.0672  0.3319 -0.1772
23880W        W40064  17.926   2.722   4.775 -0.0468  0.2241  0.1369
23881W        W40065   0.445  14.345   5.503 -0.3125  0.2478  0.3706
23882W        W40066   5.160  12.481  14.896  0.0996  0.5435 -0.0300
23883W        W40067   7.484   5.542   1.603  0.1924  0.1697 -0.1309
23884W        W40068   8.112   0.538   2.987  0.0646 -0.2178 -0.1259
23885W        W40069  16.760  11.529   1.375 -0.4504  0.1300 -0.1744
23886W        W40070  11.261   4.374   4.019  0.1437 -0.1646 -0.0837
23887W        W40071  16.611   1.131  13.570 -0.1020  0.0937  0.0605
23888W        W40072   7.522  13.089  15.532 -0.1217  0.2098  0.0451
23889W        W40073   5.493   3.453  12.743  0.0833 -0.1644  0.0992
23890W        W40074  14.243   1.705  12.413  0.1134 -0.0010 -0.0488
23891W        W40075   0.246  15.995   1.826  0.1058  0.0814  0.1419
23892W        W40076   1.915   7.624   6.299 -0.2257 -0.1116 -0.0810
23893W        W40077   2.930   3.942  12.618  0.3471  0.1706 -0.0094
23894W        W40078   0.235   6.278   1.263  0.2466 -0.0327  0.0569
23895W        W40079   7.609  15.917   3.283 -0.1584  0.3551  0.1631
23896W        W40080   1.174  18.393   1.754  0.0089  0.0771  0.0068
23897W        W40081  10.300   1.176   0.031  0.0333 -0.1861 -0.0245
23898W        W40082   8.515   8.272  15.968 -0.3967  0.2235 -0.2335
23899W        W40083  15.455   5.055   3.342 -0.2217  0.2500 -0.0146
23900W        W40084   4.951  10.182  13.521 -0.1127 -0.1719 -0.2292
23901W        W40085   1.181   4.259  15.211 -0.0510 -0.0149  0.1859
23902W        W40086  15.769   2.158  13.027 -0.1303  0.1259  0.1710
23903W        W40087  18.078   7.535   2.451  0.0695 -0.0922 -0.1587
23904W        W40088  14.101   4.224  14.980 -0.2495  0.3053 -0.2600
23905W        W40089   3.386   9.810   4.086 -0.1426 -0.1758 -0.1457
23906W        W40090   7.674   3.159  14.156 -0.1588  0.3243  0.4283
23907W        W40091   7.365  12.372  14.836 -0.1145 -0.1686  0.2417
23908W        W40092   3.292  13.921  14.251 -0.1766 -0.0538 -0.0087
23909W        W40093  10.849  11.159   0.292 -0.1389 -0.1498 -0.0195
23910W        W40094  10.516   7.746  11.205  0.0209  0.2065  0.3322
23911W        W40095   1.999  13.479   4.582  0.0632  0.2669 -0.3853
23912W        W40096   8.788  11.225  12.099  0.1792 -0.0127  0.3024
23913W        W40097   4.863  17.310  14.379  0.0089 -0.0807 -0.0617
23914W        W40098  18.489  11.394   3.653  0.0725  0.3002  0.0339
23915W        W40099  16.767  12.632   2.279 -0.1052  0.0515  0.1596
23916W        W40100   9.770   6.139   4.205 -0.0636  0.0612 -0.2248
23917W        W40101  11.036   6.652  13.960 -0.0601 -0.0560 -0.0408
23918W        W40102   5.687   2.254   2.351  0.3102  0.1421 -0.0484
23919W        W40103   7.887  10.044   2.726  0.1448 -0.1133 -0.3335
23920W        W40104   6.884   6.394   1.698 -0.2300  0.0105 -0.2793
23921W        W40105  13.806  13.380   3.101 -0.1669 -0.0930  0.0895
23922W        W40106  15.576   0.852  10.374 -0.0508 -0.0210  0.1110
23923W        W40107  13.818   8.335  11.594  0.1131 -0.1458  0.3070
23924W        W40108   6.527   3.571  12.254 -0.0841 -0.0845 -0.0283
23925W        W40109   0.262  10.805   4.243 -0.0352 -0.3641  0.0066
23926W        W40110   7.527   1.065  12.998  0.3579 -0.1662 -0.1352
23927W        W40111  13.897  16.381   0.420  0.1178 -0.1896 -0.0873
23928W        W40112  15.290   7.743   4.636  0.0129 -0.0095  0.2584
23929W        W40113   9.062   6.244   2.020 -0.0299  0.0272 -0.2463
23930W        W40114   1.586  10.593   3.199  0.2333  0.0541  0.0721
23931W        W40115   3.708  17.881  13.587  0.1282  0.1310 -0.2748
23932W        W40116  17.026   9.382   1.076  0.2560  0.2800  0.4468
23933W        W40117  13.848  11.743  14.293  0.3663 -0.2973  0.0461
23934W        W40118   4.353   9.567   3.967  0.0728  0.1129  0.0837
23935W        W40119  14.279  15.408   0.955 -0.2927 -0.1080  0.0071
23936W        W40120   0.272   2.035  13.515  0.1052 -0.0735  0.0143
23937W        W40121   2.904  13.540   3.458 -0.1943 -0.2973  0.0848
23938W        W40122  18.320   5.107   2.557 -0.0286 -0.0227  0.0580
23939W        W40123  10.543  15.768   0.198 -0.0288  0.2239  0.0435
23940W        W40124   8.963   7.414   4.390 -0.0595  0.0868 -0.0493
23941W        W40125  16.050  16.452   1.784  0.4226  0.2190  0.1198
23942W        W40126  14.416   3.284   4.531  0.1087 -0.2128 -0.4775
23943W        W40127  17.179  13.251  14.439 -0.1449 -0.0322 -0.0263
23944W        W40128  18.134   7.892   2.805  0.0072  0.2545  0.1764
23945W        W40129   2.402  10.386  11.545  0.0413  0.1061  0.1417
23946W        W40130  10.569   8.042   0.992 -0.0900  0.1957 -0.0943
23947W        W40131   5.008   8.442  14.784  0.1360 -0.1227  0.0597
23948W        W40132  11.007   2.054  15.147  0.3426 -0.2707 -0.0144
23949W        W40133   1.368   1.927   1.459  0.0889 -0.1317  0.1863
23950W        W40134   5.033  17.067  13.525  0.0068  0.0704  0.0503
23951W        W40135  18.211  10.172   5.403 -0.1524  0.1877  0.0484
23952W        W40136  15.489  15.358  11.920 -0.0553  0.0659 -0.3443
23953W        W40137   8.469   4.372   4.349 -0.1671  0.0826  0.3788
23954W        W40138  17.427   3.307   1.802 -0.0839  0.1980  0.4090
23955W        W40139   3.560  11.528   2.135  0.4188  0.1528 -0.2995
23956W        W40140  11.249   3.730   4.420  0.0374  0.2588  0.0321
23957W        W40141  14.291   0.845  15.237  0.1592 -0.2929 -0.0095
23958W        W40142   8.626   7.522   3.915 -0.0312 -0.3688  0.1884
23959W        W40143   7.381  17.467  11.930  0.0654 -0.2104  0.1465
23960W        W40144   7.808   4.225  13.322  0.1480  0.0813  0.2540
23961W        W40145  16.923   2.667  13.453 -0.0030 -0.1562 -0.1090
23962W        W40146  17.755  14.063   2.728  0.1242 -0.0629  0.1904
23963W        W40147  14.791  18.122   3.163  0.3304  0.0854 -0.0344
23964W        W40148  18.258  17.464   3.006 -0.0177 -0.0948 -0.0211
23965W        W40149   1.469   8.416   4.686 -0.3239  0.0233  0.0092
23966W        W40150  10.404   6.755   4.208 -0.0110 -0.1902  0.0005
23967W        W40151   4.399   5.697   4.292  0.0826 -0.2337 -0.0637
23968W        W40152   2.929  14.017   0.987 -0.3699 -0.0051  0.2686
23969W        W40153   2.296   8.785   5.097  0.2849 -0.1655 -0.3037
23970W        W40154  12.040  14.774  14.289 -0.2837 -0.0941  0.1628
23971W        W40155   5.656   3.211  10.943  0.0536 -0.0317 -0.1242
23972W        W40156   6.862   6.193  13.900 -0.0044 -0.0663 -0.3202
23973W        W40157   9.610  12.431   0.330 -0.1703 -0.4512  0.2121
23974W        W40158   6.708   5.893   2.854 -0.0663 -0.0214  0.3867
23975W        W40159  17.349   3.101   2.220 -0.3902  0.1667 -0.1378
23976W        W40160   5.042   4.313   3.353  0.0003  0.2427  0.2189
23977W        W40161   7.557  17.296  11.365  0.2747 -0.3027 -0.1259
23978W        W40162  15.769  11.253   1.568 -0.2067 -0.2422 -0.1619
23979W        W40163   6.583  10.803  15.388  0.0491  0.1310 -0.3048
23980W        W40164   4.353   2.139   4.213  0.0235  0.1191  0.0941
23981W        W40165   7.860   3.557  15.000  0.0611  0.2278 -0.0085
23982W        W40166   4.854   6.286   2.613  0.3052 -0.3070  0.1464
23983W        W40167  11.152   9.428  13.435 -0.2430  0.1616  0.0115
23984W        W40168   8.986  17.336  14.579 -0.0342  0.0026 -0.0142
23985W        W40169   7.226   4.976   1.920  0.1459  0.0577 -0.3943
23986W        W40170  15.009  12.810  12.068 -0.0073  0.0683  0.0337
23987W        W40171   3.042   5.765  14.248  0.1967 -0.0934  0.1495
23988W        W40172  12.769  11.833  14.092  0.0446  0.0773  0.1558
23989W        W40173   9.763   0.888  14.133  0.2330 -0.4497 -0.0712
23990W        W40174   7.855  12.952   4.347  0.0103  0.0433 -0.0086
23991W        W40175  17.444   5.129  11.301 -0.2424 -0.0733 -0.0151
23992W        W40176   1.048   8.239   3.063  0.2665  0.1552  0.0642
23993W        W40177   2.733   7.917   0.411  0.0076  0.1328 -0.4481
23994W        W40178   5.301  13.973  11.597 -0.0957 -0.0293  0.3777
23995W        W40179  13.435   9.676  13.259 -0.2598  0.2106  0.1257
23996W        W40180   6.012  12.214  13.927  0.3084 -0.0051  0.0264
23997W        W40181   1.380  16.942  14.473 -0.1093  0.1021  0.0386
23998W        W40182  13.299   5.135  14.415 -0.1886 -0.2565  0.2177
23999W        W40183  18.409   4.884   4.430 -0.0870 -0.0600 -0.2166
24000W        W40184   4.457   0.426  12.908  0.0930  0.0407  0.0427
24001W        W40185  13.802   0.235  10.742  0.1982 -0.1863  0.0001
24002W        W40186   6.136   2.492  14.934  0.1296  0.3676  0.3470
24003W        W40187  13.264   9.191  13.284 -0.0656  0.1054  0.2852
24004W        W40188   6.092   8.838   1.220  0.0030  0.0194 -0.1755
24005W        W40189  14.439   2.280   0.092 -0.2603 -0.2685  0.0388
24006W        W40190   9.950  12.461  12.094 -0.2250  0.2769 -0.1831
24007W        W40191  10.302   9.342   3.058  0.0406 -0.0913  0.1232
24008W        W40192  11.643   4.906  11.787 -0.0238 -0.1658  0.0013
24009W        W40193  10.824   3.648  14.681  0.1508 -0.1069 -0.0409
24010W        W40194   8.937   8.140   5.169  0.1666 -0.0716  0.1875
24011W        W40195   4.875   7.474   3.751  0.0959 -0.0525  0.0759
24012W        W40196   5.979   4.216   3.809  0.0055  0.1016 -0.2538
24013W        W40197   6.194  11.641  16.114  0.0443 -0.2492 -0.1497
24014W        W40198  18.489  10.365  14.073 -0.0569  0.2341  0.1307
24015W        W40199   8.585   0.775   0.665 -0.0036 -0.0683 -0.1702
24016W        W40200   8.319   1.981  12.564  0.1565  0.1275 -0.1161
24017W        W40201   1.910   1.209  13.565 -0.2221 -0.3921 -0.3380
24018W        W40202   0.720  10.771  15.143  0.0759  0.1288 -0.1518
24019W        W40203   5.200   5.497  12.612 -0.1553 -0.0213 -0.0001
24020W        W40204   4.469   2.882   5.980 -0.1506 -0.3716  0.1653
24021W        W40205  15.592  16.529   9.923  0.0975 -0.3280  0.1988
24022W        W40206   7.316  15.970   4.375  0.2308  0.2146  0.4794
24023W        W40207   1.761  18.175  14.690 -0.2463 -0.1609  0.1822
24024W        W40208   1.459  14.992   2.937  0.2343 -0.0174  0.1536
24025W        W40209   5.616   3.098   2.198  0.1821 -0.1227  0.0860
24026W        W40210   4.532   1.715   0.187 -0.3941 -0.0450 -0.0734
24027W        W40211  17.125  14.926   0.959 -0.0029  0.2656  0.0256
24028W        W40212  14.684   0.934  15.593 -0.1823  0.2627  0.0540
24029W        W40213  14.705   0.876  12.007  0.1132  0.0714 -0.1776
24030W        W40214   8.666  13.911   3.440  0.2797  0.2123  0.1390
24031W        W40215  14.311  10.257   0.351 -0.1228  0.0187  0.2508
24032W        W40216  13.131   4.753   0.139 -0.0574  0.3653  0.0667
24033W        W40217   7.632   9.776   4.127 -0.0086  0.4943 -0.1023
24034W        W40218   2.899   7.268  16.090  0.3060 -0.0238 -0.0682
24035W        W40219   1.455  12.320   0.427 -0.1318 -0.3854 -0.1507
24036W        W40220   7.656  15.381   4.625 -0.1915  0.2338  0.2273
24037W        W40221   1.842  10.624   5.341  0.1644 -0.1078 -0.0530
24038W        W40222  13.143  14.217  11.682 -0.2356  0.3002  0.1475
24039W        W40223   7.610   8.228  11.130 -0.4108  0.0356 -0.0197
24040W        W40224  16.495  11.335  11.311 -0.1736  0.0520  0.2086
24041W        W40225   3.976  13.591   3.296  0.0032  0.0015 -0.2456
24042W        W40226  11.423  15.747   2.794 -0.0710 -0.1766 -0.1363
24043W        W40227  15.695  16.391  14.183  0.3030  0.2936 -0.0999
24044W        W40228   1.554   6.579  12.622  0.2251 -0.1951  0.0055
24045W        W40229  18.402   4.491   4.123 -0.0619 -0.0865  0.4407
24046W        W40230  14.156   2.360  13.133 -0.1049 -0.1591 -0.2306
24047W        W40231   4.618   1.142  14.893 -0.1476  0.4261 -0.3150
24048W        W40232   4.645  12.697  14.027  0.1484 -0.2187  0.0163
24049W        W40233  17.279   0.476  10.838 -0.1037  0.3390 -0.2210
24050W        W40234   4.199   2.722   2.906  0.4567  0.0908 -0.5445
24051W        W40235   9.669  14.129  12.084  0.0750 -0.0620 -0.3093
24052W        W40236   4.196  14.441  14.433  0.4393 -0.0720  0.2152
24053W        W40237   7.495  15.521   2.240  0.0728 -0.0997  0.1253
24054W        W40238   3.216   8.422  11.735  0.0181  0.2790  0.3099
24055W        W40239   7.120   3.049   2.061  0.1334  0.0832 -0.2585
24056W        W40240  16.461  15.432  13.871  0.0529  0.1495  0.3627
24057W        W40241   8.057   3.164  15.804  0.2940  0.1918  0.2848
24058W        W40242  17.775   6.970  13.265 -0.0445 -0.0963 -0.2165
24059W        W40243   5.857   5.586   3.173  0.2785 -0.2879 -0.1827
24060W        W40244   3.351  15.134  11.098 -0.0663 -0.1542  0.3137
24061W        W40245  13.949  10.147   1.707 -0.2169 -0.0319 -0.0710
24062W        W40246   0.213   6.574   2.726 -0.1382  0.0430 -0.1973
24063W        W40247  12.052   2.270   4.784 -0.1364  0.2980  0.3025
24064W        W40248  10.659   5.100   1.453  0.0538 -0.0544 -0.0074
24065W        W40249   5.653   1.713  12.522 -0.0983 -0.2487 -0.0464
24066W        W40250   3.462   4.237  11.474 -0.1006  0.0051  0.0747
24067W        W40251  12.879   8.937  13.603  0.2067  0.1394 -0.0203
24068W        W40252   9.420  15.864   2.613  0.1470 -0.1409  0.0941
24069W        W40253   2.134  18.128   2.586 -0.1484 -0.1705 -0.4117
24070W        W40254   0.651   1.425   0.146 -0.2687 -0.2288  0.2908
24071W        W40255   7.072  16.000   3.351  0.2266  0.3016  0.1119
24072W        W40256  17.019  11.120   4.938 -0.4986 -0.1354  0.0034
24073W        W40257   9.693  18.117  13.772 -0.3388  0.2980 -0.1408
24074W        W40258  10.574   8.746   5.274 -0.2156  0.2067 -0.1436
24075W        W40259  11.963  17.643   1.670  0.1837 -0.0402 -0.1177
24076W        W40260   4.733   7.730  11.095  0.2002 -0.1871  0.0366
24077W        W40261  16.877  16.660  13.876 -0.0728 -0.2007  0.1400
24078W        W40262   5.112   2.818   1.462  0.1201  0.1397  0.3605
24079W        W40263  17.676   4.122   2.739 -0.0085  0.2972 -0.0961
24080W        W40264   7.085  11.542  12.383  0.0851  0.0680 -0.1032
24081W        W40265  12.051   2.592   2.917 -0.1723 -0.0042  0.0896
24082W        W40266  17.406   6.671  13.910  0.0847  0.1689  0.3397
24083W        W40267  17.095   5.174  13.078  0.2212  0.1075  0.2666
24084W        W40268  18.144   4.191   2.904  0.0795  0.0637 -0.1425
24085W        W40269  11.717   8.654  16.116  0.1266  0.0153 -0.3778
24086W        W40270  11.629   1.178  15.386 -0.1292  0.0235  0.2147
24087W        W40271   7.196  11.947   3.783 -0.2093 -0.0965 -0.0719
24088W        W40272  16.004  13.780  15.694  0.0462 -0.0253 -0.2698
24089W        W40273   3.609   1.165   3.886 -0.0136 -0.3934  0.1306
24090W        W40274   3.772  16.265   4.190 -0.1863 -0.0473  0.0785
24091W        W40275   3.658   0.450  13.523 -0.5316  0.2166  0.0547
24092W        W40276  12.253   5.229  13.971  0.1247 -0.2906 -0.2554
24093W        W40277   2.190   0.556   0.760  0.1722 -0.3477 -0.1480
24094W        W40278   5.639   1.022  13.824 -0.3914  0.1625  0.2379
24095W        W40279  13.969   1.778  15.075  0.3996 -0.0096 -0.2314
24096W        W40280   4.734   6.431   4.614 -0.0336 -0.1842 -0.1638
24097W        W40281  16.693  16.743   5.114 -0.2358  0.1128  0.0593
24098W        W40282  14.836   0.076  12.381 -0.1930 -0.0504  0.0818
24099W        W40283  10.753   2.686   1.657  0.4415 -0.3434 -0.0438
24100W        W40284  11.949   6.523   3.970 -0.0144 -0.1935 -0.0406
24101W        W40285   5.434   5.810   2.952 -0.3195  0.0763 -0.0442
24102W        W40286   7.993  14.589   3.667  0.0796  0.1244  0.1791
24103W        W40287   2.266   4.206  10.878 -0.3672 -0.1013 -0.0401
24104W        W40288   4.175  11.772   4.704  0.2346  0.3408 -0.0524
24105W        W40289   4.878  18.400  16.039 -0.1526 -0.1339  0.1393
24106W        W40290   4.229  13.908   4.285 -0.1461  0.1254  0.1530
24107W        W40291   0.598  10.747   3.581  0.0350  0.0234  0.2699
24108W        W40292   5.522   4.526   1.503 -0.0314  0.1191 -0.0647
24109W        W40293  17.401  17.800  10.832  0.0624  0.0884 -0.1941
24110W        W40294   1.253   2.659   2.881 -0.1526 -0.1746 -0.1162
24111W        W40295   0.103   8.296   3.780 -0.0681 -0.0714 -0.0388
24112W        W40296  14.422   4.354  16.008  0.2078 -0.0859  0.1616
24113W        W40297   2.791   3.442  12.840 -0.1589 -0.0395 -0.0879
24114W        W40298   0.161   0.320   4.319 -0.2862  0.0708 -0.3427
24115W        W40299   8.247   0.155  13.063  0.1301  0.0401 -0.2211
24116W        W40300   9.563   8.556   4.102 -0.2460 -0.3157 -0.2704
24117W        W40301   0.590  12.801   3.477  0.2134  0.0080 -0.0136
24118W        W40302  13.447   8.190   4.283  0.4856 -0.3108  0.3324
24119W        W40303   7.257  17.748   3.153  0.1042  0.1167  0.2345
24120W        W40304   9.422  16.573   3.816 -0.3156  0.2493  0.1126
24121W        W40305  16.333  17.526   2.438 -0.1150 -0.0867 -0.3305
24122W        W40306   0.351   5.064  15.505 -0.0198 -0.0669 -0.1818
24123W        W40307   3.791   1.029  11.737  0.0482  0.1983 -0.2473
24124W        W40308   2.178   0.585  15.211  0.0542 -0.0222 -0.2595
24125W        W40309   0.950   4.179   1.885  0.0127  0.0390  0.0148
24126W        W40310  12.091   2.919  14.179 -0.0758 -0.2155 -0.3307
24127W        W40311  12.506  16.833  12.650 -0.3029 -0.2372 -0.2534
24128W        W40312   1.483   7.071   3.411 -0.0258  0.0208 -0.2337
24129W        W40313   4.159   5.232  14.713 -0.1182  0.2420 -0.3866
24130W        W40314  16.508   5.732  16.011 -0.3544  0.2737  0.1022
24131W        W40315  14.977   2.371  14.149 -0.0596  0.3610  0.2585
24132W        W40316   3.508   2.529   3.491  0.0239 -0.2077  0.0734
24133W        W40317  16.200   2.299  15.809  0.1466  0.0610  0.1931
24134W        W40318  13.331   7.886   2.731 -0.2717  0.0465 -0.1294
24135W        W40319   0.579   0.874   1.995  0.1661 -0.1678  0.0425
24136W        W40320   0.728  17.953   4.013 -0.2853  0.0414 -0.1811
24137W        W40321  13.547   4.364  13.825  0.0532  0.0434  0.1390
24138W        W40322   4.984  17.692   1.416 -0.0899  0.2449 -0.0361
24139W        W40323  11.363   1.676   2.231 -0.0917 -0.2089  0.0622
24140W        W40324   6.643   0.028   0.789 -0.1452 -0.1632  0.0572
24141W        W40325   3.007   8.025  13.322  0.0094 -0.0820 -0.0049
24142W        W40326   2.454   2.910   2.297 -0.2979  0.0255 -0.1451
24143W        W40327   6.527   2.913   4.270  0.0387  0.0956 -0.2129
24144W        W40328  18.470   0.297   2.160 -0.5110  0.1427  0.3114
24145W        W40329   8.636  15.969  11.351  0.0771  0.2874 -0.1578
24146W        W40330   7.172  10.421   2.388  0.2883 -0.0058  0.1386
24147W        W40331  11.875  14.004  12.690  0.2864 -0.1319 -0.1147
24148W        W40332  12.795   1.347  11.968  0.0851  0.4637 -0.0227
24149W        W40333   2.012  12.552   0.103  0.0487  0.0072  0.0341
24150W        W40334  14.458   3.450   4.011  0.0158 -0.1140  0.0664
24151W        W40335   9.256   7.822  11.604 -0.1039 -0.1725  0.0336
24152W        W40336   8.560  15.833  13.447 -0.1630 -0.0225 -0.1645
24153W        W40337  11.912   7.127   1.053 -0.1618  0.0847  0.1946
24154W        W40338   6.268  18.240  13.666  0.0233 -0.1788 -0.1631
24155W        W40339   3.181   7.439   3.008  0.0509 -0.0273 -0.1724
24156W        W40340  13.629   5.233   3.925  0.1466  0.0850  0.0452
24157W        W40341   5.113  15.229  12.478  0.3095 -0.2059  0.2645
24158W        W40342  15.495   1.852  13.379 -0.2957  0.0831  0.0457
24159W        W40343  15.770  12.057   4.069 -0.1737 -0.1098  0.1470
24160W        W40344   0.012  11.601   0.166  0.2964 -0.1872 -0.0730
24161W        W40345   4.789   8.206  15.833  0.0047 -0.5926 -0.0900
24162W        W40346  17.986   7.095   2.200  0.2092  0.1769 -0.2968
24163W        W40347  13.235   8.075  10.425  0.1120 -0.1162 -0.2747
24164W        W40348  14.026   9.119   5.142 -0.0802 -0.4223  0.0181
24165W        W40349  11.290  15.568   5.632  0.0795  0.2825 -0.3551
24166W        W40350   0.082   7.535   0.828 -0.0054  0.0147 -0.2531
24167W        W40351   8.851   3.089  15.788  0.0514 -0.0032 -0.0209
24168W        W40352   6.699   3.004   1.691 -0.4604 -0.0284 -0.0903
24169W        W40353  18.351   5.605   0.026 -0.1836  0.0599  0.1703
24170W        W40354  15.257   2.839   4.868  0.1217 -0.0384  0.4213
24171W        W40355  11.996  11.364   5.257  0.0056 -0.1109 -0.2583
24172W        W40356  15.616  15.108  15.347  0.1796 -0.1679  0.0581
24173W        W40357  18.514  12.546   2.257  0.3964  0.0955  0.0307
24174W        W40358   4.695  10.238  15.957  0.1409 -0.0840 -0.3301
24175W        W40359   3.894   9.613  14.301  0.2827  0.0428 -0.0308
24176W        W40360   7.392   1.883   0.452 -0.0785 -0.1386 -0.1038
24177W        W40361  14.352  11.643  12.846  0.4033  0.2738  0.0710
24178W        W40362   5.590   3.894   4.143  0.2807  0.3591 -0.2819
24179W        W40363   2.786   2.526  12.805 -0.0026  0.5550 -0.0831
24180W        W40364   7.474  11.402   0.826  0.0714 -0.0188 -0.1879
24181W        W40365   8.207  12.303   2.496 -0.4928  0.2270 -0.1484
24182W        W40366  15.200   3.310   5.151  0.1451  0.1766 -0.1077
24183W        W40367   9.658  13.312   1.951 -0.2840  0.2735 -0.1084
24184W        W40368  15.474  16.501   5.483  0.0645 -0.1576 -0.0723
24185W        W40369   4.039   2.129   4.879 -0.4038 -0.0152  0.0378
24186W        W40370  12.112  13.918  15.342  0.2004 -0.0878  0.3361
24187W        W40371   2.483  11.821  11.587 -0.1073 -0.0197 -0.1476
24188W        W40372  10.646   8.224   3.306  0.0785  0.1680 -0.2325
24189W        W40373   5.971   0.371   4.717 -0.2532 -0.0150 -0.4502
24190W        W40374  15.792  13.996  14.834  0.2127 -0.0053  0.0385
24191W        W40375  11.520  12.533   6.069 -0.1709 -0.2011 -0.0377
24192W        W40376  10.698   3.753   3.163  0.0936 -0.0582  0.0690
24193W        W40377  15.180   2.775  11.167  0.1392 -0.0813 -0.2551
24194W        W40378  16.450  13.272  15.656  0.1102  0.2864 -0.1660
24195W        W40379  13.386  15.251   0.472 -0.1788  0.0963  0.1829
24196W        W40380   8.617  12.757  15.736  0.2018  0.1966  0.0799
24197W        W40381  17.399  18.406   1.581 -0.0023  0.1531 -0.2034
24198W        W40382   7.370   7.926   0.404  0.3411  0.0347  0.0972
24199W        W40383  14.508  13.164   0.183 -0.2203  0.4613 -0.3389
24200W        W40384  14.525  16.270  15.548  0.0130  0.1337 -0.0842
24201W        W40385  14.980   5.756  11.510  0.0906 -0.1825 -0.1502
24202W        W40386   6.996  11.657   1.988 -0.0927 -0.2560  0.0862
24203W        W40387   7.687  14.097  13.471  0.0885  0.1228  0.2897
24204W        W40388  10.390   5.431   4.146  0.0458 -0.0814  0.0701
24205W        W40389   1.705   7.514  14.554 -0.2941  0.0754 -0.4106
24206W        W40390  17.678  14.139   3.678  0.2530 -0.1787  0.1703
24207W        W40391  16.852  12.543  16.142  0.1441 -0.0579 -0.1801
24208W        W40392   1.678  12.878   5.819  0.2935 -0.1940 -0.0044
24209W        W40393   4.936  17.216  13.062 -0.1835 -0.1739  0.3493
24210W        W40394  13.448   6.485   0.029  0.3179 -0.1825  0.0183
24211W        W40395  14.643  12.422   5.055 -0.1072  0.0453  0.5201
24212W        W40396  16.646   4.028   4.387  0.0489  0.1512  0.2788
24213W        W40397   8.248   1.963  13.077 -0.0041  0.0738  0.1080
24214W        W40398  12.299  17.433   3.717 -0.2078 -0.1918 -0.0520
24215W        W40399  16.607  16.429  14.573 -0.2654  0.0786 -0.0936
24216W        W40400  17.515   8.967   4.667 -0.0210 -0.3065  0.0226
24217W        W40401   0.307   5.971  11.564  0.2099 -0.1017  0.3071
24218W        W40402   1.812  17.673  10.644 -0.0115 -0.1663  0.0378
24219W        W40403   6.859   0.680   3.466  0.0661 -0.3766  0.0869
24220W        W40404   5.097   8.656  12.718  0.1332  0.0199  0.4291
24221W        W40405  12.011  12.575   2.417  0.3023 -0.0346 -0.0511
24222W        W40406  13.149  18.486   0.602 -0.0500 -0.2656 -0.1305
24223W        W40407  11.123   5.144   1.660  0.0802 -0.1097 -0.0136
24224W        W40408   8.378   7.609   2.458 -0.0167  0.1158  0.1743
24225W        W40409   9.580  10.986  12.902  0.1061 -0.2211  0.0829
24226W        W40410  14.709  13.698   1.681  0.0583  0.1728  0.1304
24227W        W40411  10.913   5.028  12.336  0.3190 -0.0541 -0.1707
24228W        W40412  11.504  16.237   2.635  0.2653 -0.0266  0.0104
24229W        W40413   5.914   6.784   2.439 -0.0612  0.1467 -0.2245
24230W        W40414   3.594   2.530  11.445 -0.1213 -0.2095 -0.1066
24231W        W40415  12.790   3.805  11.108  0.0518  0.0844 -0.0295
24232W        W40416   2.347  17.075  15.408  0.0925 -0.2953 -0.0890
24233W        W40417   5.000  10.196   5.501 -0.0938  0.2718  0.0197
24234W        W40418   9.236   9.956  15.743 -0.0573  0.0348 -0.0514
24235W        W40419  14.625   2.779   5.655  0.0588  0.2261 -0.1839
24236W        W40420   1.996   0.552   4.794  0.0096 -0.5666 -0.1009
24237W        W40421  16.323  10.703  13.994 -0.1190  0.0599  0.0014
24238W        W40422   2.107  13.548  15.440  0.1123 -0.1414 -0.0100
24239W        W40423   0.813   5.345   4.014 -0.2216 -0.1726  0.0641
24240W        W40424  16.231  15.334   0.036  0.4405  0.1799  0.1279
24241W        W40425  10.176  14.404   5.927 -0.2609  0.0956  0.0201
24242W        W40426   8.244   5.482   3.722  0.1782 -0.0931  0.1253
24243W        W40427  17.042   9.975  12.040 -0.0699  0.1940 -0.0230
24244W        W40428   9.313   4.545   4.730  0.1405  0.0634  0.3635
24245W        W40429  12.199   9.478   2.429  0.1375 -0.0140 -0.2606
24246W        W40430  15.578  13.513  14.546 -0.0368 -0.3579 -0.0831
24247W        W40431  13.568  13.376  15.964  0.3353  0.0323 -0.2070
24248W        W40432  15.563   6.276   2.623 -0.1396  0.0071  0.2167
24249W        W40433  12.040   1.258  15.673 -0.0265 -0.3937 -0.1196
24250W        W40434   9.364  11.378   4.953  0.4573  0.0478 -0.1942
24251W        W40435   0.620   6.618  13.740 -0.0917  0.0609 -0.4170
24252W        W40436   0.358   6.070  14.998  0.2692  0.1493 -0.3053
24253W        W40437  17.003  14.355  12.903  0.0678  0.3049 -0.2326
24254W        W40438  13.589   3.896   1.794  0.1647  0.2051 -0.3094
24255W        W40439  13.292   3.178   0.442 -0.1437  0.1157  0.2979
24256W        W40440   1.561  12.204  14.420  0.1598  0.0281 -0.2188
24257W        W40441   5.134   7.000  15.271  0.0519 -0.0352  0.0375
24258W        W40442   5.414  17.138   5.867  0.0430 -0.1041 -0.0572
24259W        W40443  11.864  16.685  15.138 -0.0659  0.1922  0.3908
24260W        W40444   7.822   2.942   2.572 -0.2325 -0.0001  0.2555
24261W        W40445  13.459   0.602  14.309 -0.2302  0.0784  0.0648
24262W        W40446   7.989  12.948  13.035 -0.1498 -0.1055 -0.0864
24263W        W40447  13.149   1.629  10.558 -0.2459 -0.0742  0.5313
24264W        W40448   1.376  15.381   2.560 -0.2108  0.0052  0.2162
24265W        W40449   0.383   3.314   0.739 -0.1307  0.0045 -0.0416
24266W        W40450  10.750   2.166  14.714  0.0215 -0.0515  0.0195
24267W        W40451   8.671  12.777  12.091  0.4491 -0.4911 -0.0220
24268W        W40452   2.304   3.182  14.112  0.0325  0.1890  0.1948
24269W        W40453  13.321   6.807  13.985  0.1612 -0.0508  0.4132
24270W        W40454   6.027  10.093   4.847  0.3186 -0.1005  0.3105
24271W        W40455   7.835  12.069   0.006  0.1232  0.0685 -0.1612
24272W        W40456  11.390   0.616   5.013  0.3362  0.0579 -0.1685
24273W        W40457   2.697   2.897   1.842  0.3766  0.2880 -0.0641
24274W        W40458  10.410   3.856   0.830 -0.2006 -0.1355 -0.0102
24275W        W40459  10.813  16.821   0.282  0.0360 -0.1724  0.1547
24276W        W40460   9.159   6.937   0.085 -0.3783  0.1364 -0.2020
24277W        W40461  12.170  17.227   0.463  0.0901  0.1477 -0.1276
24278W        W40462   2.412  14.556  15.512 -0.1331  0.0201 -0.0688
24279W        W40463   1.182  12.555   2.902  0.3350  0.3251 -0.2401
24280W        W40464   0.371   0.820  13.935 -0.0479  0.0486 -0.1849
24281W        W40465   6.098   0.369   3.491 -0.0890  0.3151  0.0099
24282W        W40466  10.024  16.492   4.608 -0.1917  0.2086 -0.0601
24283W        W40467  13.140  14.505  14.577  0.1491 -0.0817 -0.3872
24284W        W40468  13.448  10.322   1.793  0.1095  0.2588  0.1340
24285W        W40469  15.276  18.492  11.001  0.0145  0.4657 -0.0947
24286W        W40470   1.864   0.276  14.673 -0.0560  0.2138  0.1974
24287W        W40471   8.371  17.588  11.407  0.0979 -0.2007 -0.3112
24288W        W40472  17.870  10.476  13.565  0.2545 -0.1157  0.0398
24289W        W40473  15.840   4.278  12.262  0.1552  0.2935 -0.3366
24290W        W40474  11.248  13.323   2.692 -0.0777  0.0929  0.0698
24291W        W40475   4.402  15.477   4.209  0.3694 -0.1425 -0.1487
24292W        W40476  10.834   6.164  14.233  0.0216  0.4016 -0.0935
24293W        W40477   3.827   3.170  13.428 -0.1079 -0.0394  0.1263
24294W        W40478  14.519  18.189  12.092  0.1593 -0.2523  0.2369
24295W        W40479  12.079  12.866  12.104 -0.2050 -0.2846  0.0734
24296W        W40480  10.975   6.822  11.763 -0.3963 -0.1537  0.0096
24297W        W40481   1.354   0.282   0.732 -0.1280  0.1452 -0.2301
24298W        W40482  11.028  18.318   5.544  0.2552 -0.2267  0.2223
24299W        W40483   6.115   9.694   1.433  0.1367  0.3945  0.2589
24300W        W40484  11.849   2.885  12.399  0.0856  0.1776  0.0104
24301W        W40485   6.486  14.853   3.724 -0.0249  0.0695  0.0396
24302W        W40486   6.267  13.555   1.500  0.0298 -0.3871  0.1681
24303W        W40487   6.555  11.259   4.434 -0.1703 -0.1912  0.0010
24304W        W40488   2.762   6.717  15.410 -0.0215  0.0499  0.2039
24305W        W40489  13.973   2.031  11.073  0.1333  0.2357 -0.0381
24306W        W40490  15.047  11.845  11.763  0.0138 -0.0749  0.1836
24307W        W40491  14.769   3.433  12.160 -0.0224  0.0958  0.1452
24308W        W40492   1.468  10.926  14.244  0.2566  0.1426  0.0794
24309W        W40493  12.119  12.571   0.341 -0.1515 -0.0959  0.2228
24310W        W40494   8.968   1.505   2.924  0.0702  0.2460  0.2164
24311W        W40495  14.976  17.662  14.531 -0.1196  0.1837  0.1242
24312W        W40496   3.745  15.617   4.974  0.1816 -0.1739  0.0054
24313W        W40497  10.211   6.437   4.573  0.4434  0.2479 -0.0895
24314W        W40498  16.328   6.686  12.792 -0.0154  0.0849  0.0565
24315W        W40499   8.059  17.147  12.806  0.0884 -0.0512  0.0085
24316W        W40500  17.110   9.650  13.589  0.2580  0.0817  0.1268
24317W        W40501   3.803  11.694  13.985 -0.2020 -0.3041 -0.0682
24318W        W40502   4.570  16.881  14.524 -0.1444 -0.0498  0.0910
24319W        W40503   7.381   4.099   3.166 -0.1249 -0.1296 -0.0168
24320W        W40504   4.760   8.659   1.237  0.0195  0.0931 -0.2502
24321W        W40505  14.281   5.246  11.520  0.1302 -0.0960 -0.1915
24322W        W40506  18.226  10.856  13.420  0.1960  0.2072  0.2981
24323W        W40507  10.886  15.495   1.451 -0.2499 -0.0242 -0.0470
24324W        W40508  18.366   3.666   0.839  0.1578 -0.2816 -0.0339
24325W        W40509   1.729   2.921   5.513  0.0030 -0.1388 -0.1663
24326W        W40510  11.229   5.505   4.927 -0.0692  0.0711 -0.5726
24327W        W40511   7.186  16.673  13.514  0.0970 -0.4909  0.1149
24328W        W40512   0.938  16.730  12.442  0.0628  0.0339 -0.0234
24329W        W40513   6.120   1.861  13.374  0.2629  0.3504 -0.0578
24330W        W40514   2.161   5.890   3.754 -0.1896  0.2711  0.0859
24331W        W40515   2.404   2.528   1.646 -0.1325 -0.2462 -0.1970
24332W        W40516   9.180  14.879  14.486 -0.1187  0.1436  0.0984
24333W        W40517   4.996   2.892  11.821 -0.2292 -0.1711 -0.0766
24334W        W40518   2.320   1.993  15.419  0.2245 -0.4234 -0.0233
24335W        W40519   9.917   3.386  13.488 -0.6492  0.4596  0.0153
24336W        W40520   1.045   1.660   3.126 -0.0814 -0.1619  0.1098
24337W        W40521   0.739  18.466   0.022 -0.3209  0.1845 -0.3011
24338W        W40522   3.370  17.996  13.939 -0.1729  0.1144 -0.0169
24339W        W40523  11.647   5.184   0.243  0.0186 -0.1093 -0.0041
24340W        W40524   9.018   7.926  12.447 -0.3030 -0.1007  0.1392
24341W        W40525  10.966  17.328   0.332 -0.2145  0.0664  0.0224
24342W        W40526   8.998  12.520  11.747 -0.3667 -0.0106  0.4363
24343W        W40527   3.665  16.012  16.118  0.1351 -0.0410 -0.3236
24344W        W40528   2.903   6.420  12.488  0.0119 -0.1951  0.2151
24345W        W40529  15.294   2.527   1.907  0.1308 -0.2756 -0.1628
24346W        W40530  10.861  11.703   0.247 -0.0247  0.1323 -0.0393
24347W        W40531  12.030   1.892   0.952  0.1847 -0.1294  0.2228
24348W        W40532   5.157   0.149   0.896 -0.1042 -0.2175  0.0794
24349W        W40533  13.746  16.413  11.553  0.1792 -0.1828 -0.0127
24350W        W40534  13.732   6.988   4.773  0.0065 -0.1845 -0.0950
24351W        W40535   2.997  12.997   1.661 -0.2833  0.1377  0.1268
24352W        W40536   2.227   4.545  14.759  0.1029 -0.3038 -0.0619
24353W        W40537  16.269   2.330  13.687 -0.0446  0.2428 -0.0793
24354W        W40538  14.851   5.215  14.433  0.1183 -0.3153  0.0170
24355W        W40539  17.170   6.115   3.415 -0.1025 -0.1628 -0.0118
24356W        W40540   6.997   7.701   2.080 -0.0330 -0.1555 -0.1800
24357W        W40541   0.166   7.004  15.109  0.0467 -0.0523  0.0100
24358W        W40542  12.454  11.681   0.952  0.0850  0.1617 -0.1596
24359W        W40543  10.613   2.939   0.081 -0.0379  0.0126  0.1247
24360W        W40544   4.050   0.301   1.790 -0.1926 -0.0160  0.0162
24361W        W40545  13.967   3.931   5.294 -0.0265 -0.1658  0.1093
24362W        W40546   0.858   1.130  14.662 -0.0618 -0.2074 -0.0508
24363W        W40547   1.072   2.885   1.060  0.1407 -0.1865  0.3344
24364W        W40548  12.183   4.825   3.773  0.0296  0.0323 -0.2035
24365W        W40549  14.820  11.013   5.121  0.2116 -0.0122  0.0901
24366W        W40550   8.352   9.817   4.975  0.1656  0.2369 -0.0448
24367W        W40551  13.990   6.640   6.151 -0.3095 -0.1656 -0.0915
24368W        W40552   6.254   5.682   5.850 -0.1868  0.5370  0.1676
24369W        W40553   0.157   4.396  10.921 -0.0068 -0.1461 -0.0279
24370W        W40554   8.535  14.958  15.878  0.1575 -0.1356  0.1624
24371W        W40555   8.967   3.371  14.243  0.2437 -0.0212  0.2459
24372W        W40556   7.135  10.004   3.513  0.0086  0.0046  0.3693
24373W        W40557   2.578  16.476   6.006  0.2979  0.2128 -0.1503
24374W        W40558   9.570  16.441  15.213 -0.2413  0.0597  0.1482
24375W        W40559  10.225   0.391  15.766  0.2612 -0.1193  0.2548
24376W        W40560   2.898  10.705   0.400 -0.2861 -0.3355  0.2075
24377W        W40561  18.476  15.087  11.829  0.2824  0.0423 -0.0679
24378W        W40562  15.731   5.689  12.577  0.0473 -0.0221 -0.1651
24379W        W40563   5.606  14.443  13.195 -0.1862 -0.3628 -0.2785
24380W        W40564   1.045  16.784  11.854  0.1863 -0.3083 -0.1173
24381W        W40565   0.498  17.040   2.513  0.0547 -0.1113 -0.0539
24382W        W40566  13.671   3.945  15.697  0.1757 -0.1897 -0.1733
24383W        W40567  13.770   0.938  11.755  0.1734  0.0178  0.1097
24384W        W40568   9.118  13.918   3.720 -0.0056 -0.3559  0.2718
24385W        W40569   1.665  12.370   2.596 -0.0728 -0.1620 -0.3215
24386W        W40570   1.103   9.639   1.432 -0.0794 -0.1128  0.2497
24387W        W40571  10.500  18.357  14.381 -0.0224  0.1677  0.1184
24388W        W40572   4.259   7.503   5.379  0.1331  0.0422 -0.0789
24389W        W40573   0.777   4.100  14.676 -0.0463  0.0354  0.2343
24390W        W40574  11.238  18.171   2.289  0.0890  0.3521 -0.2010
24391W        W40575  10.365   1.586   2.812  0.0605 -0.3801  0.0506
24392W        W40576  10.133   2.848   4.209 -0.1118  0.0881 -0.1551
24393W        W40577   7.932  11.668  15.759 -0.1205 -0.0880  0.1227
24394W        W40578   3.044  13.921   5.319 -0.1975  0.2037 -0.0578
24395W        W40579   7.033  11.600   1.007  0.0402  0.1041  0.2967
24396W        W40580  13.705  17.656   3.241 -0.1378  0.3988 -0.0338
24397W        W40581   1.389  16.945  11.047 -0.0812 -0.2582  0.0007
24398W        W40582  11.852   9.414   3.258 -0.2448 -0.0873 -0.0898
24399W        W40583  15.664  15.767  12.941 -0.2085  0.2463 -0.1814
24400W        W40584   6.221   5.265  10.970  0.1210 -0.2181 -0.1706
24401W        W40585  12.778   2.519   0.178  0.1547  0.0211  0.1947
24402W        W40586   7.213   2.267  10.021 -0.3064 -0.0848 -0.1698
24403W        W40587   8.050   4.333   1.671  0.0761  0.0630 -0.0802
24404W        W40588  15.247   7.680   4.146 -0.0528 -0.0106 -0.0713
24405W        W40589  15.511   5.575  15.977  0.1771  0.1224  0.2248
24406W        W40590   2.419  15.113   0.342 -0.2213  0.0674 -0.1028
24407W        W40591  14.452  14.160  15.156 -0.0458 -0.0688  0.0078
24408W        W40592   2.027   2.124   0.675 -0.3627 -0.3640  0.0329
24409W        W40593   1.117   6.051  11.288 -0.0660 -0.0827  0.0428
24410W        W40594   3.366   5.198  11.433  0.1126 -0.0050 -0.0910
24411W        W40595   7.145   6.393   0.004 -0.3287  0.1865  0.1752
24412W        W40596   8.029  12.881  15.740  0.1791 -0.2052  0.2537
24413W        W40597   4.133  16.152   1.030 -0.0401  0.0261  0.0235
24414W        W40598   9.376   8.640   4.581 -0.0183 -0.0283  0.1814
24415W        W40599   1.310  12.792  13.272 -0.1110 -0.2347  0.1228
24416W        W40600  11.324   3.381   1.731 -0.0202  0.2133  0.6115
24417W        W40601   6.475  14.620  15.181  0.0812 -0.0397  0.2402
24418W        W40602  17.796   8.182  14.884  0.0992 -0.0911 -0.1085
24419W        W40603  15.384   9.022   5.024 -0.4357 -0.1908  0.0639
24420W        W40604   5.611  13.852  15.975 -0.0705 -0.3069 -0.2139
24421W        W40605   1.810  11.999   5.452  0.3851 -0.2503  0.1247
24422W        W40606  16.558   4.309   3.414  0.2021  0.0901  0.2028
24423W        W40607  16.480  10.212  14.055  0.0842 -0.0161  0.0256
24424W        W40608   0.814   8.520   4.816  0.2459  0.0945  0.1097
24425W        W40609  16.502   0.132  11.166 -0.1025 -0.0746 -0.2164
24426W        W40610   4.392  18.298  12.205  0.0459  0.0142 -0.1935
24427W        W40611  10.029  13.831  11.781 -0.1150 -0.1183  0.1003
24428W        W40612  11.255  17.221  14.299 -0.5175 -0.1037  0.2287
24429W        W40613   8.052   9.686   0.704 -0.3063  0.0466 -0.2824
24430W        W40614  12.025   4.809   1.844 -0.0426 -0.3178 -0.3380
24431W        W40615  14.611  13.167   0.682  0.0036 -0.3450 -0.2277
24432W        W40616  17.271   4.923  11.800 -0.0865 -0.1409 -0.0832
24433W        W40617  15.774  14.804   4.168  0.0131 -0.2680 -0.1166
24434W        W40618  11.594   7.142  12.687  0.0175 -0.1156  0.1730
24435W        W40619  16.895  16.517   4.651 -0.3160  0.3799  0.0281
24436W        W40620  14.003  10.721   0.376  0.0290  0.0442  0.0504
24437W        W40621   6.325  14.590  12.906  0.2284  0.1661  0.2610
24438W        W40622   3.123   4.527   4.707 -0.2688 -0.0771 -0.2297
24439W        W40623  13.098   3.931   4.162  0.0736  0.1497  0.0032
24440W        W40624  16.895  12.754   3.958 -0.1349 -0.0883 -0.2571
24441W        W40625   1.514   4.603   2.393 -0.0104  0.4024 -0.1665
24442W        W40626  17.305   7.848   2.392  0.1669  0.0717 -0.2986
24443W        W40627   9.563   1.807   5.715  0.1762 -0.0520 -0.1355
24444W        W40628  16.742   1.325   2.118 -0.2602 -0.2417  0.5110
24445W        W40629   7.919  15.256   2.128 -0.1297 -0.1983  0.1565
24446W        W40630   4.055  11.532  11.062 -0.1839 -0.1751 -0.0616
24447W        W40631   0.747  15.104   4.973 -0.0039  0.0384  0.1549
24448W        W40632   8.248  18.114   3.937  0.0979 -0.0463  0.0238
24449W        W40633  11.676   6.573  15.826 -0.1307 -0.2848  0.0284
24450W        W40634   3.844   6.622  13.931 -0.1858  0.0328  0.0081
24451W        W40635  16.709  11.316   4.168  0.3616  0.2302  0.0735
24452W        W40636  11.333  10.849   3.284  0.1467 -0.1563  0.1031
24453W        W40637   9.814   8.601  11.531  0.2227  0.1211 -0.0695
24454W        W40638  18.108  11.574   5.177  0.0176 -0.0758 -0.1085
24455W        W40639  13.941   3.799   3.761 -0.2684 -0.1140  0.1827
24456W        W40640   8.713  14.150  15.468  0.3362 -0.2565 -0.1070
24457W        W40641  16.012   3.046  14.418 -0.2541 -0.0065  0.1291
24458W        W40642  15.725   4.892  13.803 -0.1546  0.1041 -0.2889
24459W        W40643   3.511   0.052  14.958 -0.0916 -0.0909 -0.1727
24460W        W40644   3.180   1.900   5.494 -0.3113 -0.1076  0.0265
24461W        W40645   1.936  14.922   0.700 -0.0528  0.2106  0.2047
24462W        W40646  12.133   3.005  15.773 -0.0889  0.0818  0.1658
24463W        W40647  10.121  14.534   2.281 -0.0452  0.0966 -0.1419
24464W        W40648   2.273   5.092  13.973  0.1235  0.2277 -0.4087
24465W        W40649  13.617   0.075   3.435 -0.1779 -0.1556 -0.3083
24466W        W40650   4.807   0.641  13.706 -0.0881 -0.2883  0.2022
24467W        W40651  17.943  15.341   3.972 -0.1469  0.0245 -0.2564
24468W        W40652   9.945  11.871   5.213 -0.1230 -0.1014 -0.0540
24469W        W40653  15.438  17.274   2.434  0.2142 -0.0991 -0.0702
24470W        W40654  16.239  12.284  11.253  0.1563 -0.1343  0.0466
24471W        W40655   5.319   8.718  11.904 -0.1557  0.3998 -0.1288
24472W        W40656  16.740   6.685  11.462 -0.0306 -0.1586  0.1733
24473W        W40657  15.430   8.872   3.619  0.0839  0.0583 -0.2605
24474W        W40658   7.549   7.665   5.367  0.0158 -0.0478  0.0448
24475W        W40659   4.621  16.914  12.770 -0.3042 -0.0082  0.0817
24476W        W40660  12.954   2.200  15.501 -0.1060 -0.0004  0.0959
24477W        W40661  15.252  16.155   1.970 -0.0637 -0.1394  0.1141
24478W        W40662  14.841   3.016  12.852  0.2586 -0.2120  0.1433
24479W        W40663  10.589  17.058   3.386 -0.1067 -0.1382 -0.1229
24480W        W40664   1.864   0.820  11.295 -0.1104 -0.3808  0.2824
24481W        W40665  11.639  13.677   0.826 -0.0809  0.0492  0.0182
24482W        W40666   0.528  11.412  13.406 -0.2018 -0.1278  0.3729
24483W        W40667  15.151   0.272  12.760 -0.0556 -0.0795 -0.0298
24484W        W40668  14.570  14.375   0.876  0.1214  0.2500  0.1032
24485W        W40669   6.919   9.974   2.577 -0.3072  0.1132 -0.1876
24486W        W40670   1.025  18.338  14.822  0.2342  0.0698  0.0281
24487W        W40671  14.562  14.968  15.828 -0.2009 -0.1278 -0.2480
24488W        W40672   1.913   0.337   1.305 -0.1048  0.4371  0.0556
24489W        W40673  16.127   6.699   0.296 -0.2679  0.0202 -0.2284
24490W        W40674   6.241  12.438  12.520 -0.0628  0.0218  0.0338
24491W        W40675  16.917  10.887   3.426  0.2149 -0.2906 -0.1098
24492W        W40676   4.799  17.041   2.561 -0.0432  0.0543 -0.0534
24493W        W40677  18.468   5.830   3.213  0.0350  0.0304  0.0090
24494W        W40678  17.704  11.033   0.406 -0.3140  0.2520 -0.0261
24495W        W40679  13.026  14.341  14.104  0.3288  0.0671  0.1043
24496W        W40680   3.183   1.053   1.885  0.1571  0.2138  0.2066
24497W        W40681   8.364  12.900   4.173  0.1547 -0.0369 -0.2266
24498W        W40682  10.743   1.905   0.039  0.0050 -0.1784 -0.1369
24499W        W40683   7.193  13.526  15.597  0.0510  0.0344  0.0858
24500W        W40684  14.888   5.716   1.100 -0.0821  0.0206  0.1098
24501W        W40685   6.129  14.752   2.011  0.3623  0.0210 -0.1543
24502W        W40686   6.252  14.846  15.702  0.0595  0.1963 -0.1858
24503W        W40687   5.359  11.675   1.896 -0.0260  0.1017 -0.2047
24504W        W40688  13.569   3.614   2.522 -0.0510  0.1974  0.0076
24505W        W40689  16.177  15.702   3.865  0.2236  0.1363  0.2620
24506W        W40690  12.915   7.023  12.262  0.0202 -0.0331 -0.1292
24507W        W40691   1.561  16.256   4.236  0.1644  0.1782  0.2333
24508W        W40692  15.755  10.479  12.657 -0.1747  0.2509  0.1271
24509W        W40693  12.372  11.568  11.269 -0.2361 -0.0491  0.0957
24510W        W40694   3.315   2.966   1.798  0.2104  0.1322  0.1533
24511W        W40695  18.079  13.906  11.701  0.3373 -0.0328 -0.1503
24512W        W40696   6.416   7.236  13.030 -0.0744  0.0791  0.0596
24513W        W40697  12.238   2.347  11.071  0.5537  0.1156  0.3445
24514W        W40698   3.584  15.986   1.430 -0.0860  0.0521  0.2002
24515W        W40699   1.638  18.119   2.901  0.0398 -0.0647  0.1804
24516W        W40700   6.866  18.496   1.367  0.1949  0.2620 -0.0063
24517W        W40701  17.059  12.744   5.681 -0.0667 -0.2065 -0.2362
24518W        W40702   8.882   8.652   1.414 -0.1570  0.0454 -0.0152
24519W        W40703   0.983   6.149   6.010  0.0128  0.0139 -0.0040
24520W        W40704  12.941   0.346  12.074  0.1046  0.0022  0.0073
24521W        W40705  17.714  16.403  13.010 -0.2839 -0.0676  0.0132
24522W        W40706  14.592  10.080  16.043 -0.2078  0.0788 -0.2426
24523W        W40707  14.045  11.826   0.473  0.0128 -0.3118  0.1678
24524W        W40708  10.001  15.697   4.033  0.1714  0.3360  0.1262
24525W        W40709  15.573  10.090   2.136 -0.0946  0.1783 -0.0160
24526W        W40710   5.295  15.074  13.760  0.2540  0.3091 -0.0790
24527W        W40711   2.768  11.636  13.304 -0.1803  0.2735  0.1939
24528W        W40712   3.048   9.539   6.239  0.1509 -0.2382  0.3729
24529W        W40713   1.780   7.403   5.866  0.3319 -0.1779  0.0723
24530W        W40714  17.549   9.981   2.805  0.2306 -0.0238  0.1077
24531W        W40715   5.512  16.266  13.638 -0.0211 -0.3707  0.1853
24532W        W40716   6.224  12.026   3.953  0.2492  0.1144 -0.2636
24533W        W40717   8.240   8.625   3.452 -0.5494  0.1111 -0.0066
24534W        W40718   9.780  18.129   0.920  0.1386  0.1817 -0.1425
24535W        W40719   4.369  15.997  11.550  0.0094  0.2129 -0.0758
24536W        W40720   3.457   5.991   3.322 -0.0627 -0.1382  0.0837
24537W        W40721   2.159   1.349  14.518  0.2805  0.1117 -0.1639
24538W        W40722   7.997  13.844   0.990 -0.1006 -0.0954 -0.0865
24539W        W40723   9.655  18.164  12.835 -0.1539 -0.0693  0.3311
24540W        W40724   0.635   5.624  11.367 -0.2839  0.1291  0.0132
24541W        W40725   9.958  12.987   4.393  0.1672 -0.0938  0.0250
24542W        W40726  13.819   1.195   2.350  0.1043  0.1947  0.1140
24543W        W40727   0.776   0.127  11.676  0.2124 -0.2453 -0.2768
24544W        W40728  11.165   7.972   0.563  0.0117  0.1377  0.0765
24545W        W40729  13.725   7.471   4.981 -0.3378 -0.1259 -0.0300
24546W        W40730   7.911   8.397  14.192 -0.0173 -0.3442  0.2801
24547W        W40731  14.917  17.712   2.859 -0.1347  0.2194 -0.1730
24548W        W40732   0.867   1.936  12.258 -0.1116 -0.1358 -0.0996
24549W        W40733   8.737   0.426  11.611  0.1795 -0.0124  0.0526
24550W        W40734  17.699  10.499   2.905  0.0838 -0.0224 -0.0990
24551W        W40735  14.391  14.781  12.555  0.0682 -0.1566  0.0426
24552W        W40736   4.222  11.751  14.195 -0.0672 -0.2595  0.2385
24553W        W40737  10.914   6.368   4.992 -0.0224  0.0328  0.2257
24554W        W40738   4.772   0.354  14.873  0.1697  0.2509  0.2228
24555W        W40739   8.265   4.342  13.594 -0.0116  0.1794  0.1783
24556W        W40740  17.824  17.107   3.124  0.0873 -0.4342 -0.1490
24557W        W40741  11.816   9.677   1.316 -0.1370  0.0729  0.1488
24558W        W40742  15.234   6.146   4.514  0.1741  0.3120 -0.2956
24559W        W40743   0.017   8.349   1.298 -0.2865 -0.1075 -0.0064
24560W        W40744  14.700   6.090  14.888  0.0360 -0.0094  0.2090
24561W        W40745  16.330  14.005  13.317 -0.1643 -0.3154  0.1911
24562W        W40746   3.340   7.021   5.240  0.0126 -0.2557 -0.2910
24563W        W40747   5.478   0.670   4.546 -0.0997  0.0653  0.0194
24564W        W40748   5.436   7.013   4.998 -0.2383  0.1678 -0.1427
24565W        W40749   2.154  13.069   3.720 -0.4442  0.2078  0.0835
24566W        W40750  17.210   4.964   3.072  0.1079  0.0822  0.1712
24567W        W40751   3.504  14.511   4.450  0.1166 -0.1324  0.5473
24568W        W40752   3.460   5.948  13.234  0.1505 -0.0766 -0.1502
24569W        W40753   7.525   1.927  14.799 -0.0561  0.0547  0.2306
24570W        W40754  18.403   4.463   1.138 -0.0652 -0.1503  0.0734
24571W        W40755   8.586  13.032   4.629  0.3311  0.2408  0.2783
24572W        W40756  14.499   1.186  11.693  0.0910 -0.1219  0.0217
24573W        W40757   0.756   5.163   2.232  0.3873 -0.2035 -0.3657
24574W        W40758   6.338   4.527  13.862  0.1483 -0.0777  0.0319
24575W        W40759  11.821   2.887  13.685  0.0778 -0.0159  0.0337
24576W        W40760   1.680   8.680   4.218  0.0161 -0.5091  0.3089
24577W        W40761  12.001  15.599   4.751 -0.2555  0.2717 -0.0898
24578W        W40762  17.560  13.610  14.545 -0.0297  0.3005 -0.2082
24579W        W40763   5.156   1.886  13.707 -0.0611 -0.0812  0.0634
24580W        W40764   7.071   4.456  12.803  0.1152  0.0515 -0.2276
24581W        W40765   3.544  14.052   1.180  0.2977 -0.2856 -0.0475
24582W        W40766   8.615   7.792   0.135  0.0312  0.0637 -0.0432
24583W        W40767   8.100   6.190  14.811 -0.2311  0.0459 -0.1248
24584W        W40768  10.914   9.236   1.510  0.1262 -0.0242  0.0104
24585W        W40769  12.679  16.198  15.688  0.0681  0.1131 -0.0460
24586W        W40770  17.714   9.134   2.977 -0.3273 -0.0740 -0.0826
24587W        W40771  15.836   4.333  13.363 -0.0019  0.1656 -0.0980
24588W        W40772   1.720  15.754   0.503  0.0565  0.0900 -0.0567
24589W        W40773   8.906   9.744  11.700 -0.0985 -0.3563  0.2707
24590W        W40774  12.264  10.175  13.320 -0.0259  0.1619 -0.2198
24591W        W40775  16.448   2.899   0.483  0.2187 -0.0275  0.2711
24592W        W40776  14.475  12.510  11.239  0.0833 -0.0572  0.1717
24593W        W40777  10.099   2.865  14.038  0.0525 -0.1159 -0.0591
24594W        W40778  17.120  15.379   0.178  0.0693 -0.0368  0.2296
24595W        W40779   2.138   5.677  11.419 -0.1732 -0.4403  0.4560
24596W        W40780   4.225   5.790  15.886  0.1021 -0.0276  0.0757
24597W        W40781  15.202   9.740   5.784  0.2470  0.0987  0.2202
24598W        W40782  13.978  13.804  12.129 -0.0191  0.0332  0.2985
24599W        W40783   7.468  11.705   1.931  0.0222  0.1765 -0.0291
24600W        W40784   4.965  13.304  14.617  0.0387  0.0731  0.0364
24601W        W40785   2.293   4.244   2.204 -0.0594 -0.0764 -0.0351
24602W        W40786   8.310  10.627   3.318  0.1975 -0.1634 -0.0763
24603W        W40787  10.112   0.915  12.109  0.2181  0.0289 -0.2821
24604W        W40788   1.056   4.370  13.759  0.0079  0.2589 -0.0198
24605W        W40789   8.223   8.454  12.786 -0.1308 -0.1988 -0.5147
24606W        W40790  17.385   3.021  13.651  0.0761  0.1870  0.0464
24607W        W40791   0.742   0.773  12.967  0.3019 -0.0858 -0.0377
24608W        W40792  10.562   2.588   5.573 -0.0422 -0.1479 -0.1401
24609W        W40793   6.460  16.643   5.507  0.0957 -0.0419  0.0988
24610W        W40794  14.154  10.869   3.020  0.0744  0.2010 -0.0884
24611W        W40795  10.801   8.893   3.975 -0.4466 -0.3136 -0.0786
24612W        W40796  13.453   9.653   5.094  0.0236  0.5008 -0.0369
24613W        W40797  15.176   8.088  16.069 -0.3030  0.4362 -0.1658
24614W        W40798  14.437   6.736   3.462  0.3183  0.1946  0.1099
24615W        W40799  16.507   3.081   4.787 -0.1681 -0.0883 -0.1675
24616W        W40800  14.525   1.292  15.310 -0.0718 -0.1050 -0.2189
24617W        W40801  10.345  11.281   5.998  0.2597 -0.0566  0.0801
24618W        W40802   4.808  10.243   1.571 -0.3342 -0.1094  0.0695
24619W        W40803   5.716  12.891   2.795 -0.0592  0.0209 -0.0652
24620W        W40804   6.407   9.898   3.372 -0.2370 -0.1138 -0.0574
24621W        W40805  14.134   0.562  14.837 -0.1122  0.0846  0.1509
24622W        W40806   6.696  15.861   1.707  0.3539 -0.0270  0.2773
24623W        W40807  13.113  17.312  12.067  0.0323  0.1396  0.0948
24624W        W40808   1.873   2.548  12.000 -0.2067 -0.0287 -0.3627
24625W        W40809   0.851  17.662   3.645 -0.1213  0.2050 -0.0326
24626W        W40810   7.991  13.442  11.245 -0.2479 -0.0400  0.1542
24627W        W40811   1.022   8.863  12.015 -0.1797 -0.0214 -0.0523
24628W        W40812  11.687  15.804  12.474 -0.0350 -0.4229  0.0274
24629W        W40813  16.552   1.212   4.484  0.2256 -0.1595 -0.0977
24630W        W40814   5.387   1.269   2.961  0.0663  0.1740 -0.0326
24631W        W40815  10.221   7.187  15.341 -0.0549 -0.0179  0.3154
24632W        W40816   9.454  17.167  11.577 -0.1035 -0.1571  0.5315
24633W        W40817  12.292   7.386  12.348  0.2405  0.2588  0.2204
24634W        W40818  10.768  12.619  15.843 -0.0330 -0.0981 -0.1279
24635W        W40819  16.191   1.750  11.449  0.3569  0.0753  0.0998
24636W        W40820  11.018  10.716  13.055 -0.0731 -0.0826  0.0209
24637W        W40821   1.906   0.766   1.473  0.2775 -0.1193  0.0146
24638W        W40822   2.771  16.986  14.727 -0.1328  0.0607 -0.3389
24639W        W40823   4.024   7.861   1.235 -0.0411 -0.1797  0.1258
24640W        W40824   3.047   0.658  15.617 -0.0724  0.0834 -0.0371
24641W        W40825   2.701  13.545   4.467 -0.0078 -0.1072  0.1455
24642W        W40826   3.165   3.972  11.177 -0.2190  0.0416 -0.0628
24643W        W40827   5.189  13.768  12.029  0.0480  0.1717  0.0537
24644W        W40828   8.473  16.706   3.299 -0.1192 -0.3325 -0.2416
24645W        W40829   0.981   3.315  13.573  0.2813  0.0145  0.2361
24646W        W40830  18.436   0.473   3.810 -0.0245  0.1347  0.2115
24647W        W40831   5.514   1.037  11.570 -0.1739 -0.0298  0.2288
24648W        W40832   2.099   6.930   6.399  0.2443 -0.2347  0.1930
24649W        W40833  13.583   1.625  14.508  0.1251 -0.0414  0.0221
24650W        W40834  18.262   8.444   4.778 -0.0887  0.2148 -0.1580
24651W        W40835  11.004  11.381  16.034 -0.2252  0.0349  0.0397
24652W        W40836   4.264   1.202  13.455  0.2534  0.0504 -0.0436
24653W        W40837   5.637   5.478  15.259  0.1968  0.1222 -0.1450
24654W        W40838   1.576   3.395   4.809  0.3907  0.0237 -0.0727
24655W        W40839   7.821  18.495  12.835  0.1654 -0.2172  0.1643
24656W        W40840   0.779   8.516  13.976  0.2577  0.2314 -0.0428
24657W        W40841   5.170   6.394  15.312  0.0174  0.0686 -0.0214
24658W        W40842   0.146  13.801   5.628  0.1118  0.0452 -0.1687
24659W        W40843  14.962  14.266   6.195  0.3291  0.1979  0.0466
24660W        W40844  16.068  18.168   4.646 -0.0841 -0.2187 -0.0526
24661W        W40845  11.943   6.824   3.343 -0.0297 -0.1360 -0.0376
24662W        W40846   0.269  12.882  15.239  0.2833 -0.1200 -0.0537
24663W        W40847  11.982  15.929   5.167  0.0578  0.0062  0.0907
24664W        W40848  11.246  11.907  13.003 -0.0021  0.0591  0.3421
24665W        W40849  12.698   5.378   3.221  0.0116  0.0321 -0.0052
24666W        W40850   1.025  14.608   4.823 -0.1007  0.2663  0.3072
24667W        W40851   1.902   3.251   5.168 -0.0296 -0.2669 -0.1885
24668W        W40852   2.725   0.566  14.341  0.3455  0.2036  0.1750
24669W        W40853  10.250  12.952  14.331 -0.5792 -0.1133 -0.0059
24670W        W40854   4.585  17.521  11.653 -0.0700  0.0806  0.0939
24671W        W40855  16.778  11.376   3.202  0.1276  0.0346 -0.0552
24672W        W40856   0.136  10.711  11.924  0.0928  0.1131  0.1854
24673W        W40857  13.620  13.231   5.009 -0.0964 -0.0833 -0.2166
24674W        W40858  17.961   4.705   4.625  0.2374 -0.1279 -0.0887
24675W        W40859  13.052  17.937   3.170 -0.1364 -0.0686 -0.2801
24676W        W40860   1.562  17.954  13.668 -0.1566  0.2092  0.2151
24677W        W40861  12.857   0.078  14.647  0.1925 -0.2812  0.0125
24678W        W40862   5.569   0.034   4.419 -0.3139  0.3330 -0.1030
24679W        W40863  11.661  14.339  14.868  0.1199  0.3508  0.3584
24680W        W40864   0.595   2.325  15.297 -0.2254  0.0218 -0.2169
24681W        W40865   9.966  11.549   1.265  0.0597 -0.1350 -0.0773
24682W        W40866  17.639   3.514   0.370  0.1054 -0.4449  0.0365
24683W        W40867  11.475   1.745  13.883  0.1008  0.0309  0.0040
24684W        W40868   1.765  11.406   1.900 -0.1326  0.1084  0.2658
24685W        W40869  10.341  12.329   5.013  0.2631  0.3542  0.0740
24686W        W40870  10.831  11.348   3.795 -0.1542  0.2420 -0.1487
24687W        W40871  14.608  15.799  15.440 -0.1711 -0.1416  0.1234
24688W        W40872  15.576   3.307  11.647 -0.2310  0.1902  0.1544
24689W        W40873   0.557  14.174  14.691 -0.0936  0.2033 -0.3128
24690W        W40874  12.825   5.031   2.127 -0.1449  0.2206 -0.1047
24691W        W40875  16.916   8.258  14.587 -0.0103  0.1003  0.1322
24692W        W40876  16.384   0.136   2.595  0.1662 -0.3075 -0.3098
24693W        W40877   6.192   0.280   2.989 -0.0369  0.0683 -0.1108
24694W        W40878  14.426   6.032  14.119  0.1033 -0.1896  0.3540
24695W        W40879   6.434   5.830  15.083  0.1129 -0.2291 -0.2349
24696W        W40880  16.004  16.304   0.486 -0.0246  0.2898 -0.1137
24697W        W40881  17.229   1.978   0.551  0.1237 -0.0703  0.1885
24698W        W40882  16.790   9.364   4.194 -0.0336  0.4043 -0.1865
24699W        W40883  17.288  11.195  12.049  0.1081 -0.3146  0.1871
24700W        W40884  17.098  17.316   5.209 -0.0808 -0.0917 -0.1182
24701W        W40885   3.333   4.740  11.574 -0.0104  0.2990  0.0953
24702W        W40886  11.270  10.592   0.345  0.1082  0.1600  0.0053
24703W        W40887  11.820  10.147  14.493 -0.3445 -0.3085  0.1339
24704W        W40888  11.098  10.430   3.631 -0.1120 -0.3598  0.2195
24705W        W40889  14.422   8.650  12.281 -0.1694  0.4823  0.0192
24706W        W40890  16.601   8.308   2.801  0.0613 -0.1632  0.0107
24707W        W40891  16.186   8.614  14.747  0.1087  0.3963 -0.2567
24708W        W40892   6.449  16.425   3.611 -0.0756  0.2028 -0.3626
24709W        W40893   6.781  10.214   2.114 -0.0330 -0.0654  0.0494
24710W        W40894   8.721   2.066  13.454  0.0955 -0.1803  0.3172
24711W        W40895   8.773   2.011  12.353  0.2562 -0.1140  0.3222
24712W        W40896   7.322   1.468  12.874 -0.2189  0.0716 -0.1435
24713W        W40897  11.991   7.859  13.149 -0.3413 -0.4401  0.2408
24714W        W40898  10.335  14.652  12.438  0.2596  0.0131  0.4135
24715W        W40899   9.557  13.766  15.050 -0.1255  0.1071  0.1607
24716W        W40900   1.084   3.834  13.721  0.0959  0.0022  0.0178
24717W        W40901  12.095  11.894   1.200  0.0663 -0.0643 -0.1046
24718W        W40902  14.249  13.363   2.352  0.1359 -0.2385  0.1857
24719W        W40903   1.475   6.539  15.748 -0.2081 -0.1355 -0.0752
24720W        W40904   9.953  13.181  15.727 -0.1943 -0.0451 -0.0015
24721W        W40905  17.594   7.427   2.241 -0.2536 -0.1429  0.1459
24722W        W40906  11.656   6.335   1.937  0.0447 -0.1289 -0.0734
24723W        W40907  11.966  15.926   2.721  0.0082  0.0137  0.3771
24724W        W40908   6.329  11.885  11.314 -0.3095 -0.1241  0.2144
24725W        W40909   3.245  10.851  12.022  0.1842 -0.2996  0.0788
24726W        W40910   6.545   1.824   1.367 -0.0145 -0.0809 -0.0894
24727W        W40911   8.349   1.250  16.056  0.1269  0.0797  0.1979
24728W        W40912  13.206  10.797   3.295 -0.2185  0.0725 -0.1488
24729W        W40913  16.955   5.190   5.221 -0.2484  0.2080 -0.2901
24730W        W40914  16.441  18.130  15.937 -0.3706  0.4325  0.2412
24731W        W40915   1.108   3.885  11.869  0.0155 -0.0571 -0.0995
24732W        W40916   7.363   2.172  11.728  0.0751  0.1391  0.1561
24733W        W40917  16.663  16.242   1.496 -0.0959 -0.0753  0.1359
24734W        W40918  17.508  13.767   5.019 -0.1498 -0.0271  0.2071
24735W        W40919  13.086  10.403   3.644  0.0969 -0.2178  0.3744
24736W        W40920  11.930   0.147  10.987 -0.0250  0.1179 -0.1029
24737W        W40921  11.052  14.997   3.807  0.1860 -0.0074 -0.3499
24738W        W40922   1.852   4.259  13.555  0.1546  0.0753 -0.1524
24739W        W40923  10.160  18.336   4.874  0.2673  0.4378 -0.2034
24740W        W40924   1.572  12.964  15.506  0.1330  0.3345  0.1225
24741W        W40925   0.014  15.061   0.695  0.0871 -0.1962  0.1755
24742W        W40926   5.647   7.566  15.366  0.1303  0.0240  0.0692
24743W        W40927   2.524  18.111  14.085  0.0954 -0.4278 -0.1793
24744W        W40928   2.128   2.793   2.991 -0.2131 -0.1065 -0.1249
24745W        W40929  13.731  12.370   1.583  0.3292 -0.0656 -0.0076
24746W        W40930  13.569  16.836   0.484 -0.1195  0.0658 -0.0499
24747W        W40931  12.827   2.288  11.695 -0.0497  0.0107  0.2145
24748W        W40932  17.022   9.184  13.394 -0.1584 -0.2058  0.0008
24749W        W40933  10.003  14.183   3.483  0.2807  0.0985 -0.2495
24750W        W40934   3.922   6.782   2.192 -0.0202  0.3348  0.2270
24751W        W40935  10.060  10.735   0.726  0.1410 -0.0519 -0.2364
24752W        W40936   7.146   4.116   2.752  0.1998  0.0723 -0.3467
24753W        W40937  13.592   7.579   1.664 -0.4805 -0.0530  0.0709
24754W        W40938   2.358   1.872   1.052 -0.0155  0.0046  0.0579
24755W        W40939   3.003  13.217  15.851  0.0923  0.2599 -0.0545
24756W        W40940   2.774   4.922  10.349 -0.1062  0.0405  0.0668
24757W        W40941   3.883   2.928   4.419 -0.1566  0.1629  0.2511
24758W        W40942   4.325  16.838   5.202  0.1718 -0.3124  0.3511
24759W        W40943   3.996   1.833  12.172  0.2153  0.2021 -0.0010
24760W        W40944   8.451  15.077   4.924 -0.1055  0.1206  0.0409
24761W        W40945   1.362   1.659  13.536  0.1379 -0.0882  0.1118
24762W        W40946  15.888   7.196   3.961  0.0320 -0.0829  0.2086
24763W        W40947   3.913  17.529  15.788  0.0691 -0.0070  0.1159
24764W        W40948   9.559   7.417   5.042 -0.2204  0.1947  0.0736
24765W        W40949   2.694   4.296  14.953  0.1796  0.1461  0.0390
24766W        W40950  17.605   0.084   3.885  0.1474 -0.0753  0.1456
24767W        W40951  14.688  13.093   2.490 -0.0110 -0.0349 -0.0867
24768W        W40952   7.177  10.541   1.824  0.0963  0.1193 -0.4015
24769W        W40953   8.254   8.850   5.217 -0.2105  0.1481 -0.0249
24770W        W40954   7.125   7.509   0.566 -0.0532  0.1306  0.1262
24771W        W40955  12.318   3.211  10.526 -0.0604  0.1288 -0.0696
24772W        W40956  16.576  10.059  11.884  0.0773 -0.1220 -0.1359
24773W        W40957   0.389   9.521  14.784 -0.0612  0.0157  0.1071
24774W        W40958   3.121   9.473   0.585 -0.0700 -0.0225 -0.0640
24775W        W40959  12.897  17.288  13.678 -0.0327  0.0302 -0.2457
24776W        W40960   3.929   2.071  11.669 -0.2861  0.0017 -0.0843
24777W        W40961  11.950  12.051   0.224 -0.1848  0.0372 -0.0936
24778W        W40962   3.900   8.607   0.004 -0.0300 -0.1108  0.0162
24779W        W40963   1.907   3.680   1.405  0.2689 -0.0837  0.0523
24780W        W40964  15.853   4.392  15.271 -0.1441 -0.0482  0.2532
24781W        W40965   8.919  16.251   3.369  0.1767  0.0238  0.0568
24782W        W40966  14.392  17.803  13.310 -0.4783  0.1887  0.1567
24783W        W40967  17.833  11.074  14.028 -0.1960  0.2751 -0.1512
24784W        W40968   1.644  16.755   5.052  0.0110 -0.0716 -0.2080
24785W        W40969   1.555  16.276   1.987  0.0133  0.2023 -0.0062
24786W        W40970  14.760  12.223   6.313 -0.3551  0.1597  0.0742
24787W        W40971   8.805   8.231  11.965  0.1658  0.0046 -0.1560
24788W        W40972  15.596   0.487  15.187 -0.0696  0.2816 -0.0794
24789W        W40973   0.163  11.339   4.729 -0.1407 -0.0807  0.2325
24790W        W40974  10.581  14.748   3.527 -0.2596 -0.2369 -0.4267
24791W        W40975   8.056  16.351   1.513  0.0436 -0.0471 -0.3403
24792W        W40976   7.992  15.308  14.340  0.0263 -0.2739 -0.1916
24793W        W40977  17.485   5.694   5.471 -0.1798 -0.2802 -0.2901
24794W        W40978   5.584  10.412   3.390  0.3071  0.0551 -0.1020
24795W        W40979   0.653  15.749  14.900 -0.1118 -0.0861  0.0581
24796W        W40980   0.960  18.349  11.066 -0.0633  0.0753 -0.2520
24797W        W40981   3.558  14.300   3.763  0.0382 -0.0136  0.0183
24798W        W40982  11.283  14.369   3.720  0.4628 -0.1429 -0.0548
24799W        W40983   4.868   5.669  15.901 -0.0938 -0.2104  0.0599
24800W        W40984  15.233   9.071   2.269  0.1649 -0.0985  0.1481
24801W        W40985  14.604  12.882   2.039 -0.1092  0.1804  0.1605
24802W        W40986  17.276   1.960  11.508  0.1800 -0.0087 -0.1766
24803W        W40987   5.245   3.670   3.854  0.0975  0.0150  0.0032
24804W        W40988  10.833   4.219   3.157 -0.0046 -0.0072  0.2288
24805W        W40989   0.517  11.361  13.925  0.1257 -0.0366 -0.1866
24806W        W40990  12.394   0.861   0.715 -0.3303 -0.0326 -0.2247
24807W        W40991  13.846  17.714  14.454 -0.0018 -0.0475  0.0297
24808W        W40992  15.053  12.712   1.252 -0.0938 -0.5002 -0.3360
24809W        W40993   2.175   3.812   0.960  0.1313  0.3365 -0.1793
24810W        W40994   2.067   7.708  11.238  0.0366  0.3052 -0.1786
24811W        W40995  10.243  15.862   5.283 -0.1862 -0.0819 -0.0162
24812W        W40996   2.178   3.320  11.087  0.0555 -0.0697 -0.1322
24813W        W40997  16.325  12.123   5.943 -0.3530  0.1932 -0.1081
24814W        W40998   0.612   5.950   0.527 -0.1672  0.1218  0.1644
24815W        W40999  13.895  11.229  16.031 -0.0346 -0.3402 -0.1009
24816W        W41000  14.922   8.294  15.234  0.1545 -0.3059  0.1382
24817W        W41001  12.940  18.493   3.888 -0.2063 -0.1228  0.0216
24818W        W41002   0.402   1.520   4.805 -0.1331  0.0335  0.1536
24819W        W41003  16.783  10.258   2.154  0.1114  0.2159  0.1389
24820W        W41004   2.519  10.835   0.727 -0.1143  0.2246 -0.0150
24821W        W41005  17.301  12.804  16.072  0.5330 -0.1201  0.0815
24822W        W41006  17.871   7.428  11.366  0.1237 -0.1184 -0.0748
24823W        W41007   3.972   1.409  12.701 -0.2257 -0.1204  0.0547
24824W        W41008  12.948  15.311  13.248  0.1530  0.0784 -0.0755
24825W        W41009  15.397  18.286   2.399 -0.1979 -0.3084 -0.3312
24826W        W41010  13.616   2.510   4.989 -0.1229  0.0427 -0.1455
24827W        W41011   8.022   2.986   3.071  0.0772 -0.2082 -0.2172
24828W        W41012  10.302   5.975   0.398  0.2138  0.0049 -0.0345
24829W        W41013  18.389   1.385   3.371 -0.0163  0.1188  0.0083
24830W        W41014   9.598  16.538  11.812  0.2731 -0.0595  0.6232
24831W        W41015   3.679   3.814   0.863  0.1837  0.2305 -0.1777
24832W        W41016  10.043  14.685   3.695  0.1072  0.0206 -0.0547
24833W        W41017   9.429  13.229   4.626 -0.0315 -0.0456  0.1170
24834W        W41018   7.009   2.069  14.803 -0.0251  0.1217  0.2733
24835W        W41019  17.508   2.290   3.248 -0.3159 -0.0051  0.0221
24836W        W41020   8.060  17.361  13.360 -0.4288 -0.0304  0.0520
24837W        W41021   5.142   2.873  13.559  0.0458 -0.0670 -0.1898
24838W        W41022   2.872  14.251  12.056 -0.0512 -0.1813 -0.2477
24839W        W41023   7.318  15.447   4.214 -0.1243  0.2360  0.1747
24840W        W41024   7.583   6.187   2.458  0.1099  0.0219  0.0922
24841W        W41025   9.051  16.911   6.207 -0.1783 -0.0051 -0.1262
24842W        W41026   2.004   5.204  11.322 -0.1709  0.0166  0.2963
24843W        W41027   2.055  10.935  14.343  0.0153  0.1705  0.0129
24844W        W41028   0.725  18.047  13.927  0.0795  0.2949 -0.2313
24845W        W41029   2.087   5.554   1.638 -0.0174  0.0566 -0.2115
24846W        W41030  12.993   2.287  14.871 -0.1447 -0.1635  0.2237
24847W        W41031  10.218  17.635   2.280 -0.0034  0.0099 -0.1902
24848W        W41032   9.109   6.391   3.003 -0.2588  0.1550 -0.2313
24849W        W41033   1.434   9.611   3.888  0.0200 -0.0890  0.0637
24850W        W41034   9.762   8.723   0.646 -0.0370 -0.1122  0.0045
24851W        W41035   2.003  16.959  12.796  0.0381  0.1314 -0.1925
24852W        W41036   1.449   4.082   2.759 -0.1445 -0.0571  0.0413
24853W        W41037   9.079  14.832  11.808 -0.2167  0.0196 -0.1698
24854W        W41038  16.757   6.051   2.904  0.0375 -0.1728 -0.1756
24855W        W41039   9.498  10.782   0.187  0.2287 -0.2043 -0.1391
24856W        W41040   3.909  11.078  10.990 -0.1299  0.0105  0.2198
24857W        W41041  17.438  16.622   2.029  0.0371  0.0376  0.2119
24858W        W41042   5.627   1.119  14.722  0.1551 -0.1057 -0.1234
24859W        W41043   6.381  10.872   2.366 -0.1637  0.0349 -0.0116
24860W        W41044   4.199   9.188   2.174  0.1848  0.0929  0.3107
24861W        W41045  11.922   6.120   0.701 -0.1807  0.0026  0.0772
24862W        W41046  12.464  12.182   1.137  0.1064 -0.2645 -0.1205
24863W        W41047  11.222   8.514  14.007  0.0000 -0.2298  0.0790
24864W        W41048   0.889   3.955   3.304  0.1514  0.2245  0.1327
24865W        W41049   4.440   5.439   3.839  0.0072 -0.0853 -0.1313
24866W        W41050   0.422   7.244   5.667  0.0567  0.3609 -0.2381
24867W        W41051   7.634   9.634  13.851 -0.0105  0.1411  0.0865
24868W        W41052  13.719   5.458   1.861 -0.1759 -0.0032  0.0702
24869W        W41053   8.058   2.706  15.991 -0.0107 -0.0435 -0.0040
24870W        W41054   4.395   0.021   2.678 -0.0704 -0.2315  0.3456
24871W        W41055   0.202  15.504   3.498 -0.1513 -0.0585  0.1067
24872W        W41056   4.447  16.370  12.587 -0.0827  0.1165 -0.1596
24873W        W41057  11.654   4.162   4.359 -0.0063 -0.0081 -0.6214
24874W        W41058   1.393   6.467  13.482 -0.0562 -0.0295 -0.0273
24875W        W41059  12.278   0.641   4.545 -0.2648 -0.0755  0.1114
24876W        W41060  12.339   3.066   2.017 -0.0975  0.3432  0.0017
24877W        W41061   1.189  11.963  13.127  0.2154  0.2762 -0.1910
24878W        W41062  16.532   7.673   1.992  0.2466  0.0695  0.0317
24879W        W41063  15.474   3.282  16.093  0.1253 -0.0255  0.0686
24880W        W41064  16.006  10.108   0.929  0.0899  0.2397 -0.0965
24881W        W41065   1.407  13.528   3.806 -0.2182  0.1099 -0.2616
24882W        W41066   3.102  17.928   4.965  0.0603  0.2614 -0.2107
24883W        W41067  10.238  11.480  10.547  0.2582 -0.1043 -0.0402
24884W        W41068   8.974  14.237   5.013  0.2721 -0.3837 -0.0090
24885W        W41069   2.917   5.473   0.792 -0.2488  0.1958 -0.1333
24886W        W41070   9.172  11.067  12.527 -0.1014  0.2564  0.0730
24887W        W41071   3.335   3.629   4.644 -0.1105  0.0329 -0.2546
24888W        W41072   1.755   8.660  11.303 -0.1092 -0.2295 -0.2867
24889W        W41073   1.585   9.507   2.643 -0.2258  0.2412  0.0924
24890W        W41074  11.929  17.687   2.967  0.4578 -0.2267 -0.1051
24891W        W41075  14.562   8.997   4.020 -0.0109  0.0875 -0.2933
24892W        W41076   2.504  10.914  14.587  0.2135  0.0693  0.0375
24893W        W41077  15.391   6.791  13.854 -0.0174  0.2147  0.1132
24894W        W41078  10.779  16.777   1.520 -0.1686  0.1835 -0.1727
24895W        W41079   0.109  10.512   1.574 -0.2718 -0.0521 -0.1375
24896W        W41080   4.492  18.083   2.763  0.1363  0.1126 -0.1455
24897W        W41081  12.399   5.606  15.419 -0.1521 -0.0030  0.1944
24898W        W41082  12.281   2.926   4.827 -0.0680  0.1037 -0.0840
24899W        W41083   3.680  13.304   1.004 -0.0180 -0.0465  0.3432
24900W        W41084  15.267   8.518  14.914  0.0115  0.1688 -0.1304
24901W        W41085   9.901  17.892   1.378  0.0805 -0.0448  0.3537
24902W        W41086  13.891  10.184  14.900 -0.0321 -0.0659  0.1415
24903W        W41087   7.510  16.902   4.572 -0.0792  0.0173  0.2077
24904W        W41088  12.448   1.537  11.213  0.2682 -0.0164 -0.1807
24905W        W41089   8.351   5.903   3.125 -0.0944  0.1828 -0.0429
24906W        W41090  17.745   3.163  12.308  0.2264 -0.3138  0.0797
24907W        W41091   3.102   7.124  11.569 -0.1856 -0.3813 -0.0988
24908W        W41092   6.389   3.851  14.591  0.3166  0.2640  0.0090
24909W        W41093  16.892   1.523   5.724  0.4157  0.0128 -0.0224
24910W        W41094   6.393   8.549   5.234  0.0939  0.0173 -0.3541
24911W        W41095  11.554  10.465  16.067  0.2494  0.3247 -0.2866
24912W        W41096  17.918  14.698   5.249 -0.2536 -0.0433  0.0024
24913W        W41097  16.637  17.169  11.054 -0.3814  0.0276 -0.0484
24914W        W41098  10.549  17.987   2.047 -0.2521  0.3755 -0.0941
24915W        W41099  10.939  18.076  14.540 -0.2864  0.2165  0.1772
24916W        W41100  16.532  11.408   5.128 -0.1179 -0.0017  0.3152
24917W        W41101   0.948   1.091   5.546 -0.0814 -0.1835 -0.0448
24918W        W41102   4.106   5.545   2.273  0.2692 -0.1169 -0.4296
24919W        W41103   6.864   4.294  15.762 -0.2389 -0.0805 -0.2637
24920W        W41104  16.090  14.844  15.091  0.0516 -0.0471  0.1709
24921W        W41105   8.231   4.372  12.016 -0.2318  0.1356  0.0103
24922W        W41106   2.019   5.854  15.018  0.0036 -0.2380  0.1193
24923W        W41107   9.377  11.879  12.575  0.2611 -0.0264 -0.0713
24924W        W41108  18.206   1.537  16.014 -0.1603  0.0552 -0.2568
24925W        W41109  13.145  17.617   4.761 -0.0260  0.1610 -0.1469
24926W        W41110  17.941  17.196  13.956 -0.0617  0.0064  0.2845
24927W        W41111  18.082  14.284  14.918  0.0181  0.0132  0.0461
24928W        W41112  16.386   8.063   1.211 -0.1377 -0.0152 -0.3142
24929W        W41113   3.273  17.523  13.409 -0.0662 -0.1578 -0.0045
24930W        W41114  14.892   8.155   4.629  0.1580  0.1462 -0.1156
24931W        W41115   3.860  15.138  11.270  0.1611  0.1639  0.3068
24932W        W41116  15.219   3.348  11.327 -0.3038  0.2314 -0.1921
24933W        W41117  12.838  14.533   2.194 -0.1561  0.0118 -0.1854
24934W        W41118   4.548   8.120  13.312  0.2974  0.0551 -0.0217
24935W        W41119   3.904  10.090  12.053 -0.0282 -0.1000 -0.0085
24936W        W41120  14.188  10.535  15.216  0.1934  0.0587  0.1499
24937W        W41121  13.428   0.759   1.590 -0.1187 -0.0120  0.0748
24938W        W41122   1.835   1.701   2.599  0.2177 -0.0372 -0.1673
24939W        W41123   2.185   7.329  13.412  0.3142  0.0910  0.4315
24940W        W41124   6.425  17.362   3.400  0.0934  0.4769  0.4161
24941W        W41125   1.687  11.973  13.339  0.0087 -0.0325  0.1991
24942W        W41126   7.663   2.558   2.853 -0.1521  0.0378  0.0079
24943W        W41127   4.983   8.361  12.290 -0.1451 -0.1368 -0.0763
24944W        W41128  10.341   2.487   1.873  0.2635  0.1111 -0.0870
24945W        W41129   7.428   9.602  15.507  0.0529 -0.0177 -0.0984
24946W        W41130   0.988   2.500  16.088  0.0336  0.3300  0.3984
24947W        W41131  17.470  12.826   2.286  0.2204 -0.3144 -0.0341
24948W        W41132  11.539   7.606  14.252  0.2497 -0.2503 -0.5200
24949W        W41133  13.669   7.896   3.082  0.0084  0.1218 -0.2529
24950W        W41134  13.505   7.948   4.843  0.1518  0.2936 -0.2225
24951W        W41135   1.639  12.766  14.548  0.4004  0.1268 -0.3584
24952W        W41136  17.770   1.020   3.822 -0.1394 -0.0574  0.1106
24953W        W41137  16.771   0.812   0.497 -0.0990 -0.2655 -0.0176
24954W        W41138  18.248   3.986   4.168  0.1090 -0.0388  0.2864
24955W        W41139   1.492   7.828  14.202  0.2828  0.1674 -0.3443
24956W        W41140   8.987   5.604   4.197  0.3600  0.0688  0.3368
24957W        W41141  18.149   0.127   4.173 -0.3876  0.1555 -0.0441
24958W        W41142   3.797   7.875   0.707  0.1212  0.1099 -0.0112
24959W        W41143  10.283  11.601   2.628  0.3672  0.1027 -0.1672
24960W        W41144   3.441  10.555   0.768 -0.0276 -0.2417 -0.2207
24961W        W41145  15.060   4.649  11.555 -0.3636 -0.0417 -0.2282
24962W        W41146  15.259  18.449   3.973 -0.4567 -0.1916  0.1349
24963W        W41147   7.525   8.192   3.221  0.1348  0.3069 -0.2976
24964W        W41148  10.858  13.230  13.444  0.0902 -0.0755  0.0105
24965W        W41149  17.324  14.950  16.078  0.1783  0.1011 -0.4324
24966W        W41150  12.565   5.254   3.852  0.2074  0.0270  0.0019
24967W        W41151   9.783   0.513  15.592  0.1058  0.1019  0.0377
24968W        W41152   8.228  13.643  14.662 -0.2777 -0.1089  0.4695
24969W        W41153  14.676  14.249   5.752 -0.0610 -0.0012  0.3473
24970W        W41154   3.686  14.069  15.699  0.0504  0.0869  0.0458
24971W        W41155   1.004  14.905   3.928 -0.1896 -0.4716 -0.2628
24972W        W41156   5.595  14.652   3.322  0.0341  0.1752 -0.2469
24973W        W41157   6.381   9.835   6.058 -0.0936  0.1305  0.0642
24974W        W41158  13.941   3.390   4.736 -0.2784 -0.1836  0.0224
24975W        W41159   5.596  14.257   2.882  0.0410  0.4571 -0.1149
24976W        W41160  11.806  16.807   1.986  0.0720 -0.0161  0.3333
24977W        W41161   1.095  10.609   3.869 -0.1360 -0.2383  0.1166
24978W        W41162   3.092   9.152   3.976  0.2518  0.2443 -0.0729
24979W        W41163  16.375   6.209   2.531 -0.2834  0.0458  0.2101
24980W        W41164   2.138   4.033   0.404 -0.3081  0.1854 -0.3103
24981W        W41165   9.482  14.405  14.568 -0.2453  0.0273  0.1334
24982W        W41166   3.489  18.073   0.888  0.1604 -0.0105 -0.1940
24983W        W41167  10.095  14.453   0.774 -0.2149 -0.0819  0.1344
24984W        W41168   3.701   1.827  12.956  0.0465 -0.0779 -0.1055
24985W        W41169   5.756  15.788   3.330 -0.0456 -0.0460  0.3492
24986W        W41170   1.752  10.300  15.919  0.0908  0.1048  0.1232
24987W        W41171  11.224   1.346   4.634 -0.0082 -0.2348 -0.2472
24988W        W41172   7.258   2.609  13.674  0.3328 -0.0745  0.0502
24989W        W41173  16.080  10.056  10.101 -0.1512 -0.0653 -0.3317
24990W        W41174   3.306  15.554  10.837 -0.0126 -0.1321  0.1025
24991W        W41175   3.955  14.582  12.556 -0.1784  0.1393 -0.2152
24992W        W41176   5.409   3.673   1.094 -0.0344 -0.1626  0.1733
24993W        W41177   5.971  11.035  14.659  0.2967 -0.4284  0.1105
24994W        W41178   6.775  12.308  13.982 -0.1523 -0.0513 -0.2894
24995W        W41179   4.343  10.759   0.786 -0.3054  0.0116 -0.0884
24996W        W41180   3.918   0.174   2.650 -0.3244 -0.0387  0.2084
24997W        W41181  10.448   3.196   1.161  0.0661  0.3633  0.1389
24998W        W41182   4.630  12.824  12.738  0.2856  0.1956  0.0815
24999W        W41183  11.059   1.253  15.647  0.1698  0.2822  0.0745
25000W        W41184   1.597   5.938  12.120 -0.0162 -0.0143 -0.2123
25001W        W41185  15.676  13.422   1.774 -0.0268  0.1491  0.0021
25002W        W41186  14.442   7.216  15.461  0.3318  0.0289  0.0970
25003W        W41187  16.457  11.774   0.124 -0.1153  0.1057 -0.0578
25004W        W41188   3.020   4.342  10.898  0.0782 -0.1598  0.4845
25005W        W41189  13.883  10.560   2.751 -0.3058 -0.0781  0.0237
25006W        W41190  13.191   1.236  10.903  0.2618  0.0117  0.4585
25007W        W41191  16.550   5.210  13.253  0.4991  0.1328  0.3156
25008W        W41192  18.349  15.619   5.445  0.0581  0.3049  0.1921
25009W        W41193  14.674  10.106   4.723 -0.0916  0.0018 -0.2967
25010W        W41194   0.811   6.384   1.363 -0.0682 -0.0542  0.2174
25011W        W41195  13.830   2.715   4.042  0.0049  0.3073 -0.2080
25012W        W41196  10.526   3.309   3.357 -0.1936 -0.1368 -0.4189
25013W        W41197  14.149   5.686  15.527  0.0663  0.0909 -0.2103
25014W        W41198   7.973  11.563  14.446  0.1656  0.0649  0.0674
25015W        W41199   4.846   0.835   1.939  0.1193  0.1618  0.0280
25016W        W41200  13.097  15.725  13.027  0.0287 -0.2563  0.1881
25017W        W41201   4.206   0.518   4.142  0.4984 -0.0556 -0.1414
25018W        W41202   2.696   7.312   1.346 -0.0334 -0.1646 -0.0900
25019W        W41203   3.604   1.708   1.546 -0.0937 -0.0519  0.2121
25020W        W41204   6.149   3.590  11.812 -0.1043  0.0404 -0.1445
25021W        W41205  11.238   2.609   2.294 -0.1777 -0.1504 -0.0128
25022W        W41206  13.594   4.079   2.353  0.3166 -0.2072 -0.1965
25023W        W41207  18.282  18.486   3.052 -0.1739  0.0631  0.0558
25024W        W41208  18.071  14.688   3.390  0.1315 -0.1023 -0.0101
25025W        W41209  10.624  10.219   3.724 -0.3516 -0.2361  0.0107
25026W        W41210   8.621   6.191   2.832  0.1949  0.3657 -0.0920
25027W        W41211  10.270   4.304   1.682 -0.1540 -0.2380  0.0171
25028W        W41212   7.098  13.715  11.102  0.0045  0.5366  0.3495
25029W        W41213  15.130   5.455  13.790  0.0858 -0.1973  0.2787
25030W        W41214   7.828   0.743  13.207 -0.0703  0.4792  0.1765
25031W        W41215  11.990   1.952  12.341  0.1063 -0.0231  0.2412
25032W        W41216   4.833  15.664   1.955  0.2362  0.2534 -0.0288
25033W        W41217   3.234   2.985   3.019  0.0837 -0.1700 -0.1354
25034W        W41218   7.950   9.441   3.232 -0.1037 -0.1764 -0.1555
25035W        W41219   3.096   7.064   2.218  0.0187 -0.0522 -0.3466
25036W        W41220  11.340  11.226  11.996 -0.2791 -0.2699 -0.1902
25037W        W41221   6.123  16.485  15.952  0.0060  0.1543  0.0747
25038W        W41222   4.378  17.454  11.185  0.2945 -0.0515 -0.3736
25039W        W41223  13.359   1.084   2.600  0.0303 -0.1201 -0.0120
25040W        W41224   9.057  16.372   4.658 -0.2777  0.1346 -0.0242
25041W        W41225   7.032   4.437  12.302  0.0676 -0.1831 -0.1037
25042W        W41226  10.548   0.782   2.937  0.3594 -0.1917 -0.1677
25043W        W41227  12.640   6.857   0.585  0.2128 -0.0542 -0.1395
25044W        W41228   1.171   1.235   2.909 -0.2557 -0.3741 -0.1128
25045W        W41229  17.327  16.765   0.266 -0.0441 -0.3128  0.0432
25046W        W41230   9.558  13.741   2.703  0.0285 -0.1956  0.0656
25047W        W41231  17.832  16.874  13.482 -0.2319  0.3673 -0.0629
25048W        W41232   7.235  11.293  15.646  0.1561  0.1937  0.3084
25049W        W41233  14.640   5.352   0.817 -0.0606  0.1267  0.3645
25050W        W41234   1.340  17.282   2.719 -0.1474  0.2368  0.0149
25051W        W41235   7.134   8.963  10.614 -0.1436 -0.0513  0.1964
25052W        W41236   8.341   5.446   4.534 -0.1803 -0.1891  0.0512
25053W        W41237  13.258   0.422  12.502 -0.1248  0.3733 -0.2368
25054W        W41238  16.670   7.442  15.586  0.3132  0.1612 -0.2889
25055W        W41239  16.867   6.005   5.662  0.0798  0.2092 -0.0997
25056W        W41240   7.707   6.527   5.146 -0.0859  0.1821  0.0968
25057W        W41241   8.679   6.202   1.654  0.0178 -0.1772 -0.4144
25058W        W41242   4.038   8.284  11.349 -0.1209  0.2143  0.0456
25059W        W41243   5.277  10.687   3.669 -0.2051 -0.1033  0.0461
25060W        W41244  18.229  10.499   4.337 -0.0731  0.0064  0.2413
25061W        W41245  10.572   0.743  13.902 -0.1729  0.0695 -0.0530
25062W        W41246  16.376  17.880  11.858 -0.2378 -0.0628  0.0198
25063W        W41247   1.861  18.348  11.314 -0.1992 -0.1675 -0.0691
25064W        W41248  13.298   5.104   1.041  0.1978 -0.0849 -0.1598
25065W        W41249  11.375  15.876   0.587 -0.2165  0.2701  0.4142
25066W        W41250  17.922   1.727  10.932  0.2827 -0.1383 -0.3952
25067W        W41251   6.650  12.306   0.395  0.0619 -0.0597  0.1767
25068W        W41252   3.041   3.913  12.104 -0.0465  0.0168  0.2160
25069W        W41253   2.096  13.794   2.393 -0.1208 -0.0271 -0.1428
25070W        W41254  13.290  13.824   4.419 -0.1223  0.0493  0.0345
25071W        W41255   3.508   0.930   5.084  0.3157 -0.1630 -0.0236
25072W        W41256  10.107  13.701   1.850  0.0394  0.0447 -0.2518
25073W        W41257   2.231   3.754   3.283  0.1572 -0.2287 -0.3341
25074W        W41258  14.460   5.029  13.073  0.1289 -0.1560  0.3883
25075W        W41259  11.588  10.232  11.597 -0.1703 -0.0132  0.2237
25076W        W41260   9.965  13.888   0.183 -0.0706 -0.0232 -0.0536
25077W        W41261  13.186   0.829  11.292 -0.2192 -0.1995 -0.1470
25078W        W41262   2.135   4.592   3.039 -0.2261  0.0051  0.1048
25079W        W41263   3.188  10.407  15.589 -0.3095  0.3993  0.3224
25080W        W41264   9.757   2.138  12.155 -0.1268 -0.1264  0.3016
25081W        W41265   6.466  10.893   1.857 -0.2678 -0.1051 -0.0727
25082W        W41266   2.804  13.106  14.793  0.3190 -0.0707  0.2161
25083W        W41267   4.085   8.333  13.272  0.2982 -0.0322  0.2349
25084W        W41268   1.055   8.278  15.003  0.0244 -0.0733 -0.3291
25085W        W41269  13.154  16.100  12.048  0.2442 -0.1625  0.0104
25086W        W41270   8.840  16.246   1.656  0.2490  0.1467 -0.1559
25087W        W41271  11.319   5.584   0.259  0.0519 -0.3832 -0.2570
25088W        W41272  14.982   8.703   4.949 -0.0082  0.0539  0.0809
25089W        W41273   3.137   2.545   1.152 -0.0322  0.1755 -0.2926
25090W        W41274   4.762   9.294  15.536 -0.0687  0.0203 -0.0345
25091W        W41275  13.435   9.640   2.549  0.2129 -0.2011 -0.0344
25092W        W41276  14.391   0.654   2.468  0.0288 -0.2951 -0.0224
25093W        W41277   3.317  13.657   1.040 -0.2138  0.0049  0.0701
25094W        W41278   5.629  11.024   3.799 -0.2836  0.0944 -0.0121
25095W        W41279   6.089   9.739  12.557  0.1101  0.1424 -0.2523
25096W        W41280   6.147   1.001   0.326 -0.3199  0.4446  0.0033
25097W        W41281  18.028   8.984   3.873 -0.1887 -0.0952  0.2639
25098W        W41282   9.729  13.950   5.416 -0.3449  0.2400 -0.0613
25099W        W41283   4.181   0.668  13.346 -0.1505 -0.1020 -0.2905
25100W        W41284   7.741  14.407   2.646 -0.2272 -0.1286  0.1791
25101W        W41285   3.163  14.778   3.611  0.0015  0.0257 -0.2071
25102W        W41286  12.996   7.233  13.915 -0.3675  0.0130  0.3593
25103W        W41287   7.061   9.835   0.147  0.0895  0.0153 -0.0720
25104W        W41288   6.921  10.540   0.705 -0.0106 -0.0141 -0.2077
25105W        W41289  15.489   3.173   1.331  0.1705  0.2885 -0.1720
25106W        W41290   3.015   9.119   2.951  0.0169 -0.0933 -0.1556
25107W        W41291  15.526   1.173   4.648  0.2767 -0.2765  0.0637
25108W        W41292  11.900  13.333  16.110  0.0155 -0.5559 -0.3308
25109W        W41293   2.843  18.130   9.938 -0.0546 -0.3148 -0.0373
25110W        W41294  10.989  14.597  12.673  0.1540  0.0962  0.0921
25111W        W41295  17.677   2.400   4.047 -0.0835  0.0377  0.2591
25112W        W41296  12.160   1.108  11.197 -0.1636 -0.2255 -0.1806
25113W        W41297  16.299   4.653   4.876 -0.0944 -0.0570  0.4109
25114W        W41298  16.162   8.149  15.593 -0.0137  0.1361 -0.1435
25115W        W41299   4.425   4.094   1.247 -0.1054  0.3179 -0.2601
25116W        W41300   9.295   3.031   0.313 -0.2331 -0.0074 -0.0227
25117W        W41301   0.433   2.063   2.941  0.1829  0.0671  0.1093
25118W        W41302  17.017   4.773  11.267 -0.1108  0.1981  0.2154
25119W        W41303  17.237  16.018  12.555  0.2015  0.2070 -0.5005
25120W        W41304  18.251   5.952   6.073  0.1186 -0.1191  0.1006
25121W        W41305   1.951   7.397   0.182 -0.1080 -0.2539  0.3512
25122W        W41306   1.338   6.814  15.279  0.3348 -0.1082 -0.0916
25123W        W41307   7.472   9.771  11.072  0.4614  0.0146  0.0226
25124W        W41308  17.493  12.370  12.038  0.2456 -0.0815 -0.0147
25125W        W41309  14.665   7.866   1.873 -0.0540 -0.1772 -0.2278
25126W        W41310   6.378   2.476  15.373  0.3465  0.1658  0.1231
25127W        W41311   9.622   4.606   5.674  0.0619 -0.1206 -0.1004
25128W        W41312  11.389   1.463  11.060 -0.1397  0.3181  0.1028
25129W        W41313   0.485   7.298   0.899 -0.2095  0.1008  0.2792
25130W        W41314   4.008  12.368   4.964  0.0838  0.0900 -0.0957
25131W        W41315   8.260  12.555  12.985  0.1132 -0.2040 -0.0009
25132W        W41316  12.538  14.067   2.872  0.1135  0.0418  0.0305
25133W        W41317   8.903  12.307   0.781 -0.0357  0.0960  0.1419
25134W        W41318  10.231   9.094  13.000  0.3216 -0.1269  0.1864
25135W        W41319  12.047   5.701   0.965  0.1681  0.3101 -0.0235
25136W        W41320   3.097   4.840   3.954  0.1547  0.2083  0.2346
25137W        W41321   6.369  13.270   1.920  0.0802 -0.1858 -0.0834
25138W        W41322   8.169   2.636   3.617 -0.2893 -0.0374 -0.1707
25139W        W41323  16.892  18.393  11.420  0.0178  0.0185 -0.0842
25140W        W41324  13.677   0.872  13.989  0.0129  0.0764  0.4974
25141W        W41325   2.842  11.938   5.399 -0.1285  0.3863 -0.2258
25142W        W41326   4.931  13.604  13.795 -0.1757  0.1104  0.1125
25143W        W41327  17.113  10.149   4.809  0.1628  0.3425  0.0765
25144W        W41328   6.209   4.482   0.070  0.0718 -0.1459  0.1431
25145W        W41329   0.288  15.426  12.695  0.2332 -0.1350 -0.1770
25146W        W41330   1.860   1.247  15.907  0.0217  0.0658 -0.0409
25147W        W41331   8.226  16.651   0.692 -0.3451  0.1358 -0.2293
25148W        W41332   1.494  11.161   3.460 -0.2830  0.0573 -0.1877
25149W        W41333   4.433  13.033   2.572 -0.0580 -0.0241  0.3644
25150W        W41334   8.778   7.250   6.054  0.4296 -0.1383  0.2416
25151W        W41335   9.538   2.262   5.925  0.0570 -0.2920 -0.1402
25152W        W41336   6.749  13.637  13.064 -0.0624  0.0771 -0.2156
25153W        W41337  11.838  17.748  14.431  0.1059 -0.1370 -0.3532
25154W        W41338   4.283  16.454   1.473 -0.4695  0.2579  0.0410
25155W        W41339   6.557   8.412   3.103 -0.2147  0.3341 -0.2165
25156W        W41340   6.866   0.471   5.155  0.0297  0.0731  0.2937
25157W        W41341  11.106  14.745   2.848  0.1931  0.0874  0.0873
25158W        W41342   9.096  16.248  12.204  0.1550 -0.1271 -0.1540
25159W        W41343   7.600  12.947  11.251 -0.0835  0.0099 -0.2154
25160W        W41344   9.026   9.162  14.878  0.0150  0.0876 -0.2861
25161W        W41345  16.909  11.815   3.511 -0.0798  0.2520  0.1566
25162W        W41346  13.166  12.758  10.935  0.0092  0.0976 -0.1355
25163W        W41347  11.129   1.538   5.846 -0.1115 -0.1371  0.0274
25164W        W41348  16.843   6.223   5.080  0.1156  0.0069  0.1525
25165W        W41349   8.518   3.676  14.313  0.2137 -0.3884  0.0326
25166W        W41350   4.420  18.004   3.354  0.2255 -0.0733  0.1209
25167W        W41351   3.439  13.010  12.723 -0.0680  0.1280  0.3942
25168W        W41352   2.692  16.952   0.391 -0.2228  0.3425  0.0805
25169W        W41353   0.663  10.709  16.031  0.2603  0.0878  0.1441
25170W        W41354  17.436   7.461  15.512 -0.0847  0.1015 -0.0618
25171W        W41355  11.471   3.425  11.153  0.1938 -0.0304  0.0918
25172W        W41356  13.502   8.375  12.093 -0.0051 -0.0656  0.1089
25173W        W41357   3.886  14.186   2.067  0.0675 -0.0099  0.1509
25174W        W41358   1.994  18.313  11.785 -0.0051 -0.3556 -0.1235
25175W        W41359   1.126   8.693   1.797 -0.1817 -0.1548  0.1465
25176W        W41360  11.426   2.095  15.478 -0.1312  0.1234  0.0944
25177W        W41361   9.715   9.448   3.148 -0.1387 -0.2755  0.0901
25178W        W41362  13.063  17.522   2.482  0.1588 -0.2236  0.0113
25179W        W41363   7.325  16.860  11.411  0.1881 -0.1216  0.1826
25180W        W41364   7.877   5.954   0.045  0.0922  0.1646  0.1194
25181W        W41365   2.720   9.083   4.926  0.1969  0.0448 -0.4165
25182W        W41366  15.727  12.973  13.854  0.0053  0.3598 -0.2681
25183W        W41367  13.731   5.585  13.589 -0.1480 -0.0666 -0.4728
25184W        W41368  12.901  16.362  12.377  0.3121  0.0509  0.2429
25185W        W41369  10.535   0.591  12.354  0.0775  0.0315  0.1647
25186W        W41370   7.760  11.108   5.095 -0.2481  0.1946  0.1084
25187W        W41371   7.445  16.168   0.963  0.0046 -0.2705 -0.0708
25188W        W41372   7.562   6.113   5.370 -0.1165  0.0514  0.0189
25189W        W41373   2.305   4.605   4.995 -0.0837  0.0519  0.0879
25190W        W41374   5.202  13.626   4.144 -0.0999  0.2513  0.1153
25191W        W41375   8.842   2.588  15.774  0.3830 -0.0757 -0.1128
25192W        W41376  14.549  13.984   3.131 -0.0714 -0.0878  0.0735
25193W        W41377  11.038  16.423  12.019 -0.0191  0.3184 -0.0565
25194W        W41378  18.040   8.214  15.708 -0.0722  0.2044 -0.4335
25195W        W41379   2.532   1.866  10.826 -0.0919  0.1987 -0.0791
25196W        W41380   2.252  16.900   2.984  0.1997 -0.2543  0.2308
25197W        W41381   2.919  16.892  12.007  0.4244 -0.0322 -0.0223
25198W        W41382   7.959  10.362  14.074 -0.0789  0.0699  0.6931
25199W        W41383   0.219  16.041   3.538  0.3475  0.0643 -0.0991
25200W        W41384   4.885  17.513  13.927 -0.2071 -0.1427 -0.0350
25201W        W41385  11.731  15.917  13.076  0.1380  0.0255 -0.0173
25202W        W41386   2.074  14.163  10.962  0.0062 -0.0116 -0.0118
25203W        W41387  12.133   7.911   3.372  0.2366 -0.0488 -0.1967
25204W        W41388   2.200   7.656   3.018  0.0100  0.0378  0.2073
25205W        W41389   1.903  13.562   5.145 -0.1122  0.0171  0.0140
25206W        W41390   4.345   5.120  13.760 -0.2600 -0.1192  0.1707
25207W        W41391   4.486   7.877  15.587 -0.4881  0.2440  0.2172
25208W        W41392  15.497   6.867   3.970 -0.2477 -0.0381  0.2645
25209W        W41393   2.699   5.026   1.215 -0.0113 -0.1565  0.0489
25210W        W41394  13.363  11.899  14.420  0.1971 -0.1437 -0.1281
25211W        W41395  16.674  16.621   1.771  0.1242 -0.1615 -0.0710
25212W        W41396   9.129   9.543  15.335  0.0917 -0.1025  0.0090
25213W        W41397   3.532   2.352   1.630 -0.3467  0.0950  0.2495
25214W        W41398   7.175   1.892  10.984 -0.1367  0.0075  0.1097
25215W        W41399   9.633   6.295   2.038  0.2930  0.0725  0.0075
25216W        W41400  17.613   4.112  14.142  0.0795  0.1765  0.1364
25217W        W41401  16.336  17.873  14.398  0.3324 -0.1698 -0.2642
25218W        W41402  12.859   7.943   0.392  0.0143 -0.0645  0.0839
25219W        W41403   6.858   3.880   0.308  0.1213  0.2340  0.3978
25220W        W41404  16.773   8.799   4.270  0.0291  0.0332 -0.3321
25221W        W41405   5.842  16.461  13.313 -0.1510  0.3220 -0.0745
25222W        W41406  15.433  18.278  14.060  0.1672  0.0391  0.0690
25223W        W41407   2.779  15.302  12.977  0.2710  0.0052  0.2529
25224W        W41408   7.202  11.323   2.357  0.1536  0.2159 -0.2625
25225W        W41409  18.427   9.736   1.987  0.1943  0.1358  0.1588
25226W        W41410   0.633   8.582   4.329 -0.0051  0.1020  0.0350
25227W        W41411   2.003   7.856  14.245 -0.0044 -0.2813 -0.2143
25228W        W41412   7.326  15.583  11.295  0.1622  0.1212  0.2506
25229W        W41413   5.404  13.539   0.233  0.0814  0.2379  0.0173
25230W        W41414   6.447   9.970   2.440 -0.0535 -0.0068  0.1214
25231W        W41415  17.287   7.885  12.455  0.1262  0.0114 -0.1186
25232W        W41416   3.606  15.796   4.167  0.0298  0.1055 -0.0227
25233W        W41417  11.254  13.850   2.814 -0.0219  0.1372  0.0319
25234W        W41418   7.186   0.030   1.005  0.3000  0.0316  0.1493
25235W        W41419   8.403   7.884   0.849 -0.0367  0.0886  0.1766
25236W        W41420   0.068   8.943  15.571  0.2135 -0.0956 -0.3625
25237W        W41421  15.968   7.314   5.100 -0.1176  0.1848  0.4336
25238W        W41422   3.431   1.886  15.558  0.5317  0.2031 -0.3755
25239W        W41423   0.383  17.346  11.851  0.2268 -0.1273 -0.0935
25240W        W41424  17.675  13.054   2.734 -0.0555  0.0805  0.0868
25241W        W41425   8.780   9.331   1.609 -0.0178 -0.0268 -0.1629
25242W        W41426   3.810  10.849   0.014 -0.0857 -0.1879  0.1779
25243W        W41427   6.755  11.224   1.130 -0.2375  0.0277  0.2307
25244W        W41428   1.740   4.468  14.593 -0.2613 -0.0377  0.1635
25245W        W41429  17.078  10.658   3.947  0.1527  0.2459 -0.0095
25246W        W41430  14.554  12.813  12.300  0.1930 -0.0809 -0.0620
25247W        W41431   0.317   1.186  13.069  0.0071 -0.1462 -0.0151
25248W        W41432   6.056   9.927  13.804 -0.0678 -0.0471  0.0663
25249W        W41433   7.010  18.272   4.561  0.1461 -0.0563  0.0572
25250W        W41434  12.706   5.654  12.314 -0.1475 -0.1040  0.3147
25251W        W41435   8.737  18.197   3.716  0.0381 -0.0114  0.0352
25252W        W41436   2.693   0.301  11.131  0.1451 -0.1201  0.4066
25253W        W41437  13.030  15.756  14.175 -0.0823  0.0068  0.2905
25254W        W41438  16.623  14.949   5.147 -0.2238  0.1738  0.0459
25255W        W41439  11.058  16.109   3.190 -0.2074  0.1021 -0.0038
25256W        W41440  15.205  17.895   1.287  0.1118 -0.0161 -0.0837
25257W        W41441   8.721  17.994   2.429  0.1692 -0.1137  0.0720
25258W        W41442   1.377  13.136  12.197 -0.0460  0.0687 -0.0511
25259W        W41443  14.313   7.027  12.916  0.1921 -0.0301  0.1990
25260W        W41444   5.313   1.748   3.117 -0.1643  0.2029 -0.1016
25261W        W41445   3.479  17.448   5.057  0.1098  0.1757  0.1095
25262W        W41446  12.854   4.722   5.519 -0.0892  0.0615 -0.2919
25263W        W41447   9.561   7.750   2.251  0.0357  0.0229 -0.3150
25264W        W41448  13.657   0.560   3.319 -0.0668 -0.2645 -0.1811
25265W        W41449   0.871   7.044   4.229  0.2358 -0.1140  0.1376
25266W        W41450  15.743   5.340  13.616 -0.1164  0.0191 -0.0186
25267W        W41451   7.186  11.488  15.175 -0.2624 -0.2415  0.3171
25268W        W41452   5.917  13.501   0.150 -0.1772 -0.2624 -0.3761
25269W        W41453  15.001   1.616   3.154  0.0344  0.0599  0.0487
25270W        W41454   5.408  12.461   2.798  0.0939  0.0722 -0.0010
25271W        W41455   0.866   6.338   4.526 -0.2453 -0.2015 -0.1160
25272W        W41456  12.725  18.147   3.532  0.0254 -0.0110  0.2748
25273W        W41457   7.292   8.001   1.260  0.0772  0.0675 -0.1552
25274W        W41458   2.999   5.875   5.956 -0.0264  0.0317  0.3392
25275W        W41459  10.003  15.724  13.002 -0.1974 -0.1229  0.1309
25276W        W41460   1.326   6.258   3.928  0.1149  0.0394  0.1414
25277W        W41461   6.245   0.579  14.177 -0.0490  0.0998 -0.1035
25278W        W41462  16.009  15.884  15.321 -0.0033  0.1062  0.2495
25279W        W41463  10.860   6.607  13.523 -0.2577  0.1738  0.2223
25280W        W41464  14.493  12.036   0.637 -0.0072 -0.1432 -0.0983
25281W        W41465   9.125  12.759   3.176 -0.0730 -0.1448 -0.0839
25282W        W41466   8.205  12.813   0.534 -0.3635 -0.0888  0.0996
25283W        W41467   2.658   1.671  11.950 -0.0274  0.0554 -0.1084
25284W        W41468  16.741  15.541   4.332  0.1409 -0.0630 -0.1990
25285W        W41469   8.551   4.952  14.692 -0.0142 -0.0491  0.1417
25286W        W41470   6.733   5.026   4.251  0.2106 -0.0271  0.1765
25287W        W41471  13.086   9.431  12.841  0.2452 -0.2626 -0.0252
25288W        W41472  11.013   9.348  12.866 -0.1743 -0.2884 -0.0224
25289W        W41473   7.795   9.992  13.578 -0.0149 -0.0681  0.0804
25290W        W41474  17.077   3.364   4.004  0.0450  0.0547 -0.0400
25291W        W41475   5.071   8.116   0.446  0.1676  0.0038  0.0487
25292W        W41476   8.214  18.184  12.911  0.1091  0.0024 -0.2240
25293W        W41477   9.900   4.020   2.242  0.2132  0.0451  0.0401
25294W        W41478   8.051   0.800  12.767 -0.1105  0.1393  0.0594
25295W        W41479   1.500  10.940   1.891  0.0312 -0.1839 -0.0070
25296W        W41480   8.146   6.861  16.093 -0.0024 -0.1802 -0.0743
25297W        W41481   6.698  13.100  14.599 -0.0809  0.1626  0.4673
25298W        W41482   6.289   1.359   5.438  0.0734  0.3438 -0.3658
25299W        W41483  17.425   7.256   4.460 -0.0304  0.0782 -0.0542
25300W        W41484  10.652   0.486  15.476  0.2638  0.1323  0.0497
25301W        W41485  16.696   4.760   0.659  0.4284  0.0314 -0.1089
25302W        W41486  16.002   1.304   4.528 -0.0631  0.1480  0.2252
25303W        W41487   9.050  13.963   2.830 -0.1269 -0.1407 -0.0987
25304W        W41488   0.002   0.551   2.840 -0.0900 -0.1274  0.0633
25305W        W41489   2.219  15.387   5.141 -0.0102 -0.1576 -0.0111
25306W        W41490   0.998  17.836   4.896  0.5424 -0.2812 -0.1563
25307W        W41491   9.298  16.819  15.526 -0.1029  0.2899 -0.0145
25308W        W41492   2.192   0.474   4.325  0.4013  0.1101  0.0517
25309W        W41493   5.455  12.851  12.855 -0.1423 -0.0385  0.0894
25310W        W41494  13.246  17.495   3.403  0.0828 -0.1410 -0.0062
25311W        W41495  18.514  17.830   3.230  0.0974  0.0009  0.2365
25312W        W41496  15.858   1.801   2.030 -0.1247 -0.0086 -0.1077
25313W        W41497   8.898  12.803   2.716  0.0344  0.0935  0.2619
25314W        W41498  10.839   0.759   2.399  0.0257  0.0389 -0.1076
25315W        W41499  15.654   3.899  11.169 -0.3464  0.0950  0.1178
25316W        W41500   8.137  14.838   4.098  0.1792 -0.2943 -0.0461
25317W        W41501  11.496   4.894   3.857 -0.4029 -0.0147  0.3870
25318W        W41502   3.023  11.820  13.812  0.2900  0.0547  0.0783
25319W        W41503  12.262   0.183   2.165 -0.2065  0.1339 -0.0319
25320W        W41504  10.747  17.231   5.361  0.1825 -0.1382 -0.0835
25321W        W41505  14.834   4.579  13.489  0.1089 -0.3001  0.4122
25322W        W41506   5.331  16.202   0.471  0.4035 -0.1620 -0.0259
25323W        W41507  14.581   1.375   0.516 -0.1153  0.1063 -0.0371
25324W        W41508   0.804  11.164  13.040  0.1245  0.1385  0.0242
25325W        W41509   2.616  11.478   1.913  0.1243  0.0173 -0.1326
25326W        W41510  18.287   2.297  11.696  0.1861  0.0776 -0.4640
25327W        W41511   4.270   1.226   0.410 -0.1295 -0.0809 -0.0200
25328W        W41512  17.921  17.189   2.340  0.0052  0.2358 -0.1950
25329W        W41513  15.493   7.536   3.764 -0.2875 -0.1675  0.0255
25330W        W41514  16.518   0.371   0.370  0.1235 -0.1683 -0.0356
25331W        W41515   8.207   7.828  14.293  0.0255  0.1986  0.2176
25332W        W41516   3.581   3.183  12.434 -0.0653  0.1272  0.0924
25333W        W41517   2.115   5.055  15.549  0.1055 -0.3359  0.1477
25334W        W41518  10.092  15.999   5.957 -0.1935 -0.0152 -0.1849
25335W        W41519  12.736  14.544  11.586 -0.1297  0.1304  0.4296
25336W        W41520  14.059  17.884   3.700 -0.2032 -0.0363  0.2100
25337W        W41521   1.843  14.649  13.878  0.0026 -0.2299 -0.3382
25338W        W41522   3.322   9.299   2.555  0.2302 -0.3159  0.2435
25339W        W41523  13.871   8.606   0.343  0.0048  0.1620 -0.2585
25340W        W41524  11.286   8.715  15.813 -0.1506  0.1519  0.0933
25341W        W41525   6.392  14.624   4.832 -0.1414 -0.1005  0.0667
25342W        W41526  15.894   5.674   3.206 -0.1299  0.0050 -0.1607
25343W        W41527   3.429  16.242  13.510 -0.0215 -0.1222 -0.0576
25344W        W41528   6.907   4.783  11.808 -0.0978 -0.3044  0.1893
25345W        W41529   0.366   1.505   4.214  0.1213 -0.2732 -0.1434
25346W        W41530   9.114  17.068   0.799  0.2425  0.2343 -0.0763
25347W        W41531  11.525   2.161   3.957 -0.1633 -0.2441  0.1094
25348W        W41532   9.656   6.951   0.154  0.1363 -0.3513 -0.2496
25349W        W41533   9.638  11.202   2.908  0.0030 -0.2079  0.0156
25350W        W41534   8.327   8.638   1.414  0.3758  0.1568  0.1755
25351W        W41535  12.220  10.105  12.764 -0.2792  0.0652  0.0291
25352W        W41536  17.529   5.323  14.009 -0.1679 -0.1629 -0.1165
25353W        W41537   8.347  12.103   4.703 -0.3169 -0.1885 -0.2650
25354W        W41538  12.446   4.354  15.820 -0.1889 -0.0217 -0.0637
25355W        W41539   9.517   6.984   3.637  0.1207 -0.0309 -0.2154
25356W        W41540  17.150   6.390   2.644  0.0383  0.1989  0.3785
25357W        W41541   3.032  11.175  12.429 -0.2572  0.0036  0.0057
25358W        W41542   8.037  16.355   3.474  0.0950  0.1643  0.4112
25359W        W41543   5.759  18.291  13.860  0.3580  0.0222 -0.1025
25360W        W41544   5.395  11.156   0.575 -0.0504  0.1428  0.3211
25361W        W41545   0.907   7.578  10.885 -0.3035  0.0918 -0.1702
25362W        W41546   9.789   9.030  11.187  0.1746  0.3530 -0.2404
25363W        W41547   5.836   0.316  10.864 -0.3041 -0.1216 -0.3929
25364W        W41548  16.611  16.742   5.940 -0.0562  0.1246 -0.0931
25365W        W41549  10.218   8.298  11.783  0.1652  0.0033 -0.2021
25366W        W41550  12.496   9.351  14.629 -0.2010  0.0642  0.1347
25367W        W41551   2.222   1.711   0.618  0.0363  0.0269 -0.0116
25368W        W41552  14.418   2.253  11.168  0.0988 -0.3844 -0.1826
25369W        W41553  17.300  17.009   1.571 -0.1420  0.0668  0.2900
25370W        W41554  14.127  12.313  11.678  0.2170 -0.2540  0.0316
25371W        W41555  12.006  10.849   1.144 -0.1765 -0.0165 -0.1484
25372W        W41556   8.122  17.911  12.417 -0.3108  0.4796  0.1366
25373W        W41557   5.101  13.764   2.649  0.2468  0.0666 -0.2521
25374W        W41558  10.800   4.242   1.917 -0.3385 -0.0104 -0.0213
25375W        W41559  14.618   3.421  14.790 -0.3568  0.1064  0.1834
25376W        W41560   9.350   4.595   2.660  0.0287  0.4374 -0.3021
25377W        W41561   4.375   5.059   5.060 -0.2162 -0.3576 -0.1553
25378W        W41562   3.480   9.328  14.168 -0.0035 -0.2555  0.1181
25379W        W41563   8.490   2.058  10.990 -0.1012 -0.6424  0.2834
25380W        W41564   9.133  17.933  13.465  0.1464  0.1406 -0.0774
25381W        W41565  15.667   1.382  11.188  0.1567  0.2386 -0.0248
25382W        W41566   1.720   8.419  12.929 -0.0538  0.4291  0.0282
25383W        W41567  11.101  14.481  14.722 -0.0026  0.1213  0.0411
25384W        W41568  17.882   7.990  13.731 -0.0513  0.3527  0.1111
25385W        W41569   4.783   9.406   0.509  0.1759 -0.1050  0.2034
25386W        W41570   5.769  10.342  15.896  0.2580  0.1862  0.3285
25387W        W41571   3.071  13.234  11.323 -0.0346  0.1372 -0.0044
25388W        W41572   0.298  17.237   4.969 -0.0078  0.1616 -0.2861
25389W        W41573   6.414  14.359  13.337 -0.0215  0.1878 -0.0357
25390W        W41574  10.393  11.991   0.344 -0.0830 -0.2252  0.1913
25391W        W41575   6.962   1.546  12.153 -0.1030 -0.0068 -0.1635
25392W        W41576   9.783   2.685  13.604 -0.0878 -0.2843 -0.0540
25393W        W41577  10.926   1.412  11.292 -0.1790  0.1716 -0.1202
25394W        W41578   3.848  14.802  13.830  0.3521 -0.0395 -0.2686
25395W        W41579   9.773   5.257  13.409 -0.0861  0.1132 -0.2185
25396W        W41580  17.078  13.988  11.300  0.0079 -0.0863  0.1115
25397W        W41581  11.645   7.099  14.361  0.0938  0.0055 -0.0309
25398W        W41582   5.015  15.408   4.910  0.3592 -0.1050 -0.3204
25399W        W41583   9.592   2.942  12.614 -0.1252  0.0508 -0.0180
25400W        W41584  12.053  13.594  14.932 -0.0230  0.1798 -0.2481
25401W        W41585  13.104  14.016  11.225 -0.2430  0.0989 -0.1858
25402W        W41586   1.688  15.484   2.972 -0.3103 -0.1830  0.2621
25403W        W41587  11.046   5.394   1.231  0.1653  0.2768 -0.0895
25404W        W41588  11.790  12.108   2.363  0.1139  0.1051  0.1721
25405W        W41589  12.718   4.173  15.384 -0.4662 -0.2803  0.5637
25406W        W41590   2.120  18.392   1.633 -0.1045 -0.2477  0.1312
25407W        W41591  12.445  13.218   1.800 -0.0910  0.1319 -0.0716
25408W        W41592  12.551   5.642  14.103  0.1836  0.1589  0.2167
25409W        W41593   2.294   6.901  15.477 -0.0110  0.2393 -0.2300
25410W        W41594  13.787   5.609   2.666  0.0691 -0.2687  0.0933
25411W        W41595   2.189  13.665   4.130 -0.3260  0.0193 -0.1193
25412W        W41596   7.915  16.179   2.545  0.0443 -0.0897  0.4102
25413W        W41597   7.615  16.427  11.376  0.1804 -0.1058 -0.3547
25414W        W41598  11.181   5.419   4.430 -0.0063 -0.0105 -0.1922
25415W        W41599   3.950   3.058  10.855  0.0148 -0.0852  0.1562
25416W        W41600  12.622  10.857  11.304  0.1073 -0.1330 -0.0745
25417W        W41601   2.381   1.343   0.899 -0.0462  0.1134 -0.0049
25418W        W41602  11.889   8.520  12.683 -0.0325  0.0056 -0.6011
25419W        W41603  18.471   2.411   2.039 -0.2022 -0.2719 -0.0679
25420W        W41604   8.891  12.863   0.060  0.1290 -0.1863  0.1497
25421W        W41605   7.141  13.775  15.134  0.1900 -0.0112 -0.3679
25422W        W41606  11.149   8.767  12.119  0.0468  0.0745  0.0436
25423W        W41607  15.962   2.910   0.743  0.1705 -0.0603  0.1378
25424W        W41608  18.441   0.679  14.579 -0.1474  0.4384  0.0065
25425W        W41609  15.395   7.457  12.433  0.0682 -0.0026 -0.0411
25426W        W41610  10.116   1.791  14.488 -0.1283  0.1888 -0.1514
25427W        W41611   2.266  13.991  15.598 -0.3497 -0.0457 -0.1974
25428W        W41612   5.983   5.007   0.348 -0.2053  0.1401 -0.1801
25429W        W41613   6.495   6.330   1.359 -0.0940  0.2943 -0.3400
25430W        W41614  13.027  12.606   2.324  0.3021 -0.1138 -0.1588
25431W        W41615   0.493  15.935   1.320  0.1630 -0.2232  0.2283
25432W        W41616   9.947  11.873  13.377 -0.0262 -0.2556 -0.0333
25433W        W41617  16.076   3.232   4.945  0.1391  0.3159  0.2370
25434W        W41618   2.520   7.636  14.972 -0.0806 -0.1089 -0.1343
25435W        W41619   9.300  13.153  10.988 -0.2661  0.1090  0.2062
25436W        W41620   6.014   8.436  16.099 -0.0779 -0.1757 -0.0360
25437W        W41621   2.689   5.102  15.365  0.2231  0.1520 -0.0654
25438W        W41622   8.766  11.937   4.362 -0.2317 -0.0998 -0.1654
25439W        W41623   4.842  12.581   2.984  0.1843  0.1651 -0.1504
25440W        W41624  11.361  16.859   4.649  0.2546  0.2774  0.0487
25441W        W41625  15.643  14.903  12.805 -0.3674  0.1009  0.1133
25442W        W41626  14.878   2.411  11.143  0.2071 -0.0817  0.3645
25443W        W41627   6.166  18.223  14.192  0.0805  0.0213  0.0802
25444W        W41628  11.079   9.921   3.776  0.0643 -0.2006 -0.0698
25445W        W41629  15.857  16.855  10.656 -0.4267  0.2169  0.0183
25446W        W41630   0.454   6.167   4.838  0.0922 -0.2005  0.0970
25447W        W41631   9.044   0.337   5.862 -0.0202 -0.1069 -0.0303
25448W        W41632   9.968   5.567  11.641 -0.2432  0.1964 -0.0750
25449W        W41633   2.090  17.356   0.774  0.0167 -0.1164 -0.0420
25450W        W41634   4.862   1.198   0.966  0.1604  0.0935 -0.0693
25451W        W41635   7.874   9.726  15.154  0.0095  0.0140  0.0568
25452W        W41636  16.299   1.923   5.043  0.1474  0.2193 -0.2016
25453W        W41637  16.114  17.413   2.025  0.0970 -0.4060 -0.0528
25454W        W41638   7.471  11.055   2.716  0.0595 -0.1179  0.2221
25455W        W41639  11.360  13.941  11.420  0.0418 -0.0917  0.1826
25456W        W41640   0.754  17.807  12.884 -0.0793  0.1494 -0.0931
25457W        W41641   9.485  10.619   5.143 -0.1431 -0.1070  0.0144
25458W        W41642   8.669  13.808   6.253  0.3378 -0.0692 -0.1696
25459W        W41643   9.925  13.419  11.536 -0.0140 -0.3174  0.0579
25460W        W41644   5.743  16.825   4.058  0.2365  0.4268  0.0851
25461W        W41645  17.772  11.976  14.667 -0.2235 -0.2889  0.0751
25462W        W41646  11.821   5.341  14.431  0.0336 -0.0922 -0.0416
25463W        W41647  16.540   2.647  14.987  0.3755  0.0354 -0.0272
25464W        W41648  15.849  12.390   2.933 -0.0520  0.2376  0.2837
25465W        W41649   8.267  16.870   5.303  0.2089  0.0429  0.1068
25466W        W41650   1.818  18.506   2.670 -0.0199 -0.5981 -0.2614
25467W        W41651   2.975   0.215   3.274  0.0483 -0.2436  0.1855
25468W        W41652   2.898  12.129   3.457  0.1896 -0.0123  0.0255
25469W        W41653  17.786   4.209  12.268 -0.1936  0.0878  0.0275
25470W        W41654   3.555  17.072  13.835 -0.0520 -0.3420  0.1325
25471W        W41655  16.938   1.288   0.443  0.0933  0.0015 -0.0189
25472W        W41656   1.469   2.039   5.774  0.2401 -0.4355  0.2243
25473W        W41657  10.335  10.253  12.980  0.0548 -0.2788 -0.1727
25474W        W41658   2.401   7.827  13.251  0.1991  0.0684 -0.1140
25475W        W41659  15.878  16.722  11.141 -0.2154  0.2226 -0.0841
25476W        W41660   3.514  15.984  12.605  0.1912 -0.0757 -0.1417
25477W        W41661  11.752   3.664  14.348  0.0018 -0.0390 -0.2255
25478W        W41662   6.890   4.876  12.575  0.0041 -0.0222 -0.2976
25479W        W41663   7.424  16.344   3.974  0.0244 -0.1307  0.1908
25480W        W41664   6.542   5.263   4.799  0.0941  0.1373  0.3306
25481W        W41665   4.806   9.287   2.301 -0.1944 -0.1918 -0.1181
25482W        W41666   2.477   3.047  13.681  0.0158  0.2304  0.0241
25483W        W41667   9.537   2.313   3.332 -0.0974 -0.0536 -0.2692
25484W        W41668  18.297  16.981   3.192 -0.1007 -0.2193 -0.2077
25485W        W41669   7.531   6.326   4.162 -0.0143 -0.2583 -0.0423
25486W        W41670   9.172  13.123   1.212 -0.0951 -0.0502 -0.0219
25487W        W41671   1.916  10.515  12.986  0.0618 -0.0301 -0.2662
25488W        W41672   5.541  10.369  13.831 -0.1993 -0.1477 -0.1510
25489W        W41673   9.688  13.988  11.482 -0.0466 -0.2373  0.2546
25490W        W41674   9.385  16.487  13.642  0.1238 -0.2346 -0.0329
25491W        W41675   3.593   7.078  15.807  0.1292  0.2005 -0.2071
25492W        W41676   8.257  11.239   1.715  0.0074  0.2189  0.1067
25493W        W41677   9.242  14.546   4.451  0.2309 -0.2732  0.3678
25494W        W41678  18.432  17.405   2.148  0.1819  0.1806  0.0667
25495W        W41679   4.997   2.445  11.524 -0.0406 -0.0034  0.2807
25496W        W41680  17.520   8.342  15.631 -0.0141  0.3871  0.0518
25497W        W41681   7.443   8.611   2.855  0.1387 -0.0420 -0.1509
25498W        W41682  14.110  10.777   4.422 -0.1007 -0.3411  0.1109
25499W        W41683  16.344  14.023   2.295 -0.1547 -0.0098 -0.1284
25500W        W41684   2.028   8.572   1.119 -0.0993  0.0741 -0.0281
25501W        W41685   5.907   6.711   4.586 -0.0430  0.3763 -0.0319
25502W        W41686  15.729   2.592   6.038  0.0014  0.0339  0.2029
25503W        W41687  15.068   2.232  13.658 -0.2594  0.1016  0.0119
25504W        W41688   0.432   6.780  15.492  0.1508 -0.0545  0.1538
25505W        W41689  11.546  10.714   2.382 -0.2498 -0.0726  0.1246
25506W        W41690  13.030  10.062  15.976 -0.0719 -0.1300 -0.2195
25507W        W41691   2.954  17.509   5.230 -0.0932  0.0396 -0.0341
25508W        W41692   8.367  16.001  14.431 -0.3233  0.0257  0.2005
25509W        W41693  13.824  11.920  12.722 -0.1344  0.1720 -0.1811
25510W        W41694   4.426  11.440   2.006 -0.1839  0.3822  0.4475
25511W        W41695  15.081  17.277  10.788  0.0791 -0.0852  0.2423
25512W        W41696  16.110  11.428  12.864 -0.0559  0.2300  0.2001
25513W        W41697   0.876  10.904  12.504  0.1405 -0.0477  0.1115
25514W        W41698  13.509   0.056   3.920 -0.3314  0.0712 -0.0476
25515W        W41699  12.441  17.346  15.052  0.1653  0.0939  0.0321
25516W        W41700   6.654   0.828  12.317  0.1312 -0.2895  0.1050
25517W        W41701   2.052   3.332  13.480  0.0372  0.1347  0.2565
25518W        W41702  13.096  13.543  12.994 -0.1996  0.2014  0.1430
25519W        W41703   5.545  16.714  11.496  0.0698 -0.0290  0.0314
25520W        W41704   8.917   6.731  12.867 -0.3471  0.0183 -0.0183
25521W        W41705   5.778  10.351   0.693 -0.3331 -0.0582 -0.0551
25522W        W41706   7.718   2.381  15.750 -0.0054  0.2122 -0.6298
25523W        W41707   1.373  10.616  11.553  0.0501 -0.0353  0.2040
25524W        W41708   5.700   9.782  15.851  0.1252  0.0551 -0.4036
25525W        W41709  12.020  12.734  13.528 -0.0242  0.0676 -0.0542
25526W        W41710   3.835  12.626  15.971  0.1584 -0.0583 -0.2305
25527W        W41711  16.957   5.400   4.209 -0.3244 -0.2717 -0.0621
25528W        W41712   7.690  17.816   1.392  0.0518 -0.0874 -0.0380
25529W        W41713  13.195   7.759  12.362 -0.0862 -0.0996 -0.0995
25530W        W41714   1.841   0.824   2.158 -0.0918  0.1061 -0.1239
25531W        W41715  12.171  11.872  15.247  0.0137 -0.1375 -0.3204
25532W        W41716  11.673   8.009  14.492  0.1548 -0.1970 -0.2811
25533W        W41717   8.064   4.705  15.038 -0.2674  0.1538  0.0789
25534W        W41718  17.057   3.470  15.276 -0.0990  0.0246  0.0245
25535W        W41719  11.721  18.222  11.809 -0.0315 -0.0930  0.1793
25536W        W41720  13.279  11.738   2.157  0.0159  0.0387 -0.1034
25537W        W41721   2.102   3.004  14.743  0.2187  0.0404  0.0034
25538W        W41722   6.567   3.999   5.515 -0.1130 -0.0039 -0.0976
25539W        W41723   9.298   4.379  14.941 -0.0562  0.1129 -0.0758
25540W        W41724  11.959  17.408  14.839 -0.1064  0.2295  0.3433
25541W        W41725  14.350   2.116  15.281  0.1869 -0.1802 -0.1018
25542W        W41726  14.855   9.384   2.114  0.0839 -0.2402  0.0833
25543W        W41727  16.035   3.823  14.884 -0.0308  0.2912 -0.3030
25544W        W41728   2.130  10.844  13.287 -0.0305  0.0899  0.0835
25545W        W41729  12.938  15.340   1.095 -0.0092 -0.0346 -0.1385
25546W        W41730  12.313   7.830   2.622 -0.1552  0.3363 -0.0174
25547W        W41731  17.921   0.185   0.357  0.0974  0.2224  0.3134
25548W        W41732  14.421  11.318   5.253  0.1841 -0.2277  0.1767
25549W        W41733   3.894   4.945  12.992  0.0563  0.0455 -0.1711
25550W        W41734   1.556   8.671  11.936 -0.2589  0.2487  0.1839
25551W        W41735  17.919   0.677  14.680 -0.0876 -0.2010 -0.0841
25552W        W41736  13.517  16.963   4.025  0.2847  0.4290 -0.0513
25553W        W41737  17.490  18.235   2.009 -0.0673  0.0889  0.1169
25554W        W41738  17.448   4.702  10.251 -0.0189  0.2982  0.1489
25555W        W41739  10.899  12.387  14.230  0.0918 -0.1013  0.1746
25556W        W41740  14.587  11.125  12.743  0.0688  0.2636  0.1374
25557W        W41741   4.293   9.963   1.777 -0.2505  0.0147 -0.0391
25558W        W41742  11.926   9.864  11.438 -0.1492 -0.0303  0.0777
25559W        W41743  16.302  12.904  16.089 -0.2440 -0.1294  0.0067
25560W        W41744   6.905  11.135   0.111 -0.0933  0.0395 -0.1168
25561W        W41745  16.658   2.136   4.432 -0.2700 -0.3069  0.1911
25562W        W41746   0.704   8.326   5.241 -0.0408  0.1378 -0.0149
25563W        W41747   6.698  13.570   2.238  0.2259  0.1071  0.0095
25564W        W41748  17.551   6.386   2.989  0.2492  0.0315  0.0174
25565W        W41749  13.952   0.753   4.185 -0.3979 -0.1108 -0.0899
25566W        W41750   1.747   3.853   2.040  0.0017 -0.0491 -0.1161
25567W        W41751  17.525   9.030  16.056  0.0022 -0.1448  0.3270
25568W        W41752   6.385   1.021  12.825 -0.3479  0.1205  0.1235
25569W        W41753   4.076  13.867  13.676  0.2266  0.1586  0.0029
25570W        W41754   7.195   0.420  12.829 -0.0417  0.0449  0.2125
25571W        W41755  16.692   6.776  14.914  0.1085  0.3232 -0.3233
25572W        W41756  16.825   2.902   5.187 -0.2912  0.4758  0.0811
25573W        W41757   8.961   0.970   3.465 -0.5587 -0.3651  0.2084
25574W        W41758   6.699   9.963  15.915 -0.0971  0.2077  0.0358
25575W        W41759   0.315  11.056   5.357 -0.0831  0.2145  0.0620
25576W        W41760   1.500   4.633  13.033  0.1441 -0.0311 -0.0760
25577W        W41761   0.546   5.215   2.746  0.1635 -0.2722 -0.0093
25578W        W41762  12.794  11.289  11.528  0.2304 -0.1951 -0.1073
25579W        W41763   9.200  10.101  13.146 -0.0948 -0.3435 -0.2607
25580W        W41764  12.650  12.652   4.238  0.2651  0.0097  0.0535
25581W        W41765  10.322  16.926   5.275 -0.2835  0.0292  0.1550
25582W        W41766  10.019   5.368   0.383  0.0506 -0.1176  0.2196
25583W        W41767  16.596   0.679  12.317  0.3502 -0.2235  0.1551
25584W        W41768   5.248   6.136  15.920  0.2158  0.1252 -0.0270
25585W        W41769  17.119  11.710  11.936  0.1605 -0.0175  0.0459
25586W        W41770  13.070   7.125   0.443 -0.0521 -0.0571 -0.3051
25587W        W41771   2.258   9.754   4.823  0.2268  0.1798 -0.0873
25588W        W41772   1.368   1.300   0.722 -0.3251  0.3669 -0.3848
25589W        W41773   3.437   3.446   1.726  0.1220  0.2811  0.0869
25590W        W41774  12.316   8.614   4.891  0.1892  0.1585  0.3975
25591W        W41775  10.450  14.603  11.597  0.5579  0.2293 -0.3725
25592W        W41776   1.624   0.565   5.191  0.0798 -0.1854  0.0039
25593W        W41777   8.540   0.985  12.954 -0.0147 -0.2425 -0.0330
25594W        W41778  12.077  17.937  14.835  0.0992 -0.4663 -0.0529
25595W        W41779   5.421  13.342  12.000  0.0293  0.2130  0.1407
25596W        W41780  15.126   4.635   0.319 -0.1503  0.1735  0.4527
25597W        W41781   5.803  14.749   4.918  0.4263  0.0290  0.0468
25598W        W41782   3.734  10.477  15.208 -0.0439 -0.5170  0.0509
25599W        W41783  14.655   2.629  13.712  0.2390  0.0860 -0.1727
25600W        W41784   1.198  13.026   2.661 -0.0317 -0.2948  0.0696
25601W        W41785  12.239   5.710  15.971  0.0145 -0.2089  0.0396
25602W        W41786  17.702   5.348  10.863  0.1233  0.3512 -0.0185
25603W        W41787   4.950  15.179  15.116  0.1515 -0.1647 -0.3807
25604W        W41788  17.961  10.047  11.694 -0.0260  0.0624 -0.1836
25605W        W41789   4.507  10.179  15.251 -0.0378  0.1843 -0.3082
25606W        W41790  17.824  16.788  10.488 -0.3756  0.1980  0.1771
25607W        W41791   8.856  17.207  12.347  0.0386 -0.1781  0.3401
25608W        W41792  12.069  13.019   3.808  0.2805 -0.0539 -0.1096
25609W        W41793  11.082   0.987   3.283  0.3084 -0.0208 -0.1438
25610W        W41794   6.661   6.087   5.169  0.2305 -0.2518  0.2876
25611W        W41795   5.639  11.488   1.479  0.2239  0.0555  0.4555
25612W        W41796   9.558  16.193  13.204 -0.4827  0.1396  0.1479
25613W        W41797   5.889  12.818  11.431  0.1121 -0.2026  0.1049
25614W        W41798   5.564  13.986   0.864  0.1723  0.1973  0.3064
25615W        W41799   4.331   9.348  13.063  0.0935 -0.0034 -0.0683
25616W        W41800  13.312   4.962  12.611  0.1809  0.0147 -0.1186
25617W        W41801   3.257   9.055   6.021  0.3257 -0.1395  0.3265
25618W        W41802  16.282  12.263   1.173  0.0291  0.0071  0.3202
25619W        W41803  17.203   1.191  15.227  0.0426  0.0265  0.0177
25620W        W41804   2.310   9.017   2.339 -0.1808 -0.0128  0.6583
25621W        W41805  17.461   0.892   3.469 -0.1517  0.0894  0.1522
25622W        W41806  10.279  14.876   2.687 -0.1783  0.0596 -0.1068
25623W        W41807   2.081  16.722   0.740  0.0833 -0.1057  0.2616
25624W        W41808   8.476  13.009  15.306  0.1167 -0.1077 -0.1631
25625W        W41809   1.547  14.758   0.399  0.3343  0.1068  0.2070
25626W        W41810   2.448   2.466   2.546 -0.2524 -0.3022 -0.1371
25627W        W41811   5.933   4.041  12.624  0.2078 -0.3574  0.5574
25628W        W41812  14.835  12.514   2.307 -0.1006 -0.0866  0.1894
25629W        W41813   7.932  16.436  15.931 -0.1943 -0.0018  0.3055
25630W        W41814   7.409   4.262  13.600  0.0486  0.0797  0.1559
25631W        W41815   8.418  16.269   5.184 -0.0171  0.0625  0.1633
25632W        W41816   2.383  10.563   0.303 -0.0688 -0.0925  0.2356
25633W        W41817  11.499  11.187   6.091  0.3714 -0.2574 -0.2787
25634W        W41818  17.367  15.952  13.573  0.0796 -0.3755  0.1939
25635W        W41819   3.883   3.383   2.452  0.0622 -0.2348 -0.1278
25636W        W41820  14.575  17.271   3.652  0.1500  0.2741  0.1341
25637W        W41821  18.469  16.543  13.048  0.3019  0.2310 -0.0191
25638W        W41822   8.907  12.929   5.254  0.2183 -0.0785  0.3376
25639W        W41823   8.406   0.159   5.609 -0.1118  0.1861  0.4000
25640W        W41824  13.354   5.308   1.521 -0.0211  0.0267 -0.0833
25641W        W41825   5.705  10.823   6.194 -0.1588  0.0396  0.2826
25642W        W41826   9.428   7.053   3.131  0.0878 -0.0827 -0.0402
25643W        W41827  10.445  14.128  11.750 -0.0716 -0.1020  0.2565
25644W        W41828   7.815  12.014  11.948 -0.0492 -0.1329  0.0294
25645W        W41829  17.769   2.914   3.798 -0.2104  0.0137  0.0352
25646W        W41830   5.189  15.425   1.602  0.1275  0.4989  0.0619
25647W        W41831   5.903   1.219  12.704  0.0146 -0.3127  0.0593
25648W        W41832  14.800  15.453  10.973  0.0225 -0.0409  0.0358
25649W        W41833   5.103   9.810   5.161  0.1751  0.0461 -0.2477
25650W        W41834   0.079  17.774   4.444 -0.1795 -0.0443 -0.4907
25651W        W41835   7.972   7.959   5.405  0.0442  0.1534 -0.0199
25652W        W41836   3.797   3.767  10.573 -0.1058  0.3429 -0.2346
25653W        W41837  10.285  17.640  15.063  0.0009 -0.1244  0.0877
25654W        W41838   5.692   6.675  14.396  0.1944 -0.1101 -0.2637
25655W        W41839   9.811   6.028   2.536 -0.0834  0.0759  0.1420
25656W        W41840   4.953  10.255  14.932  0.0983  0.0860 -0.2429
25657W        W41841   5.777  14.761  13.631  0.0886  0.1158  0.0832
25658W        W41842  15.779  14.978  11.731  0.2765  0.0226 -0.1110
25659W        W41843   4.531  18.000  13.199 -0.1917 -0.2020 -0.1133
25660W        W41844   2.161  11.662   1.701  0.0585 -0.0917  0.2796
25661W        W41845   7.090   5.750   3.727 -0.3135 -0.1045  0.1025
25662W        W41846  15.839   0.916   2.616  0.2059 -0.0514  0.0021
25663W        W41847  16.346   3.182  15.678 -0.2737  0.1855 -0.4757
25664W        W41848  14.659  12.811  15.257 -0.1513 -0.1812 -0.5082
25665W        W41849  14.036  11.629  15.198 -0.1283  0.1072  0.3775
25666W        W41850  11.939  15.442  15.206  0.3751  0.2289 -0.2268
25667W        W41851   1.906   2.588   0.839  0.2401  0.2887 -0.1067
25668W        W41852   4.102  10.451  16.021 -0.0521 -0.3675  0.1292
25669W        W41853  18.502   1.338   2.312 -0.0318 -0.0461  0.0673
25670W        W41854  10.658  15.760   4.121 -0.4646 -0.2392 -0.2714
25671W        W41855  16.116   0.374  12.985  0.4215 -0.2554 -0.1013
25672W        W41856   2.288   5.928   2.226 -0.0484 -0.1184  0.0952
25673W        W41857  16.439   7.325   2.457  0.1346  0.1258 -0.0773
25674W        W41858   0.381   3.563   2.349 -0.0624 -0.0385 -0.2956
25675W        W41859  11.135   6.407   2.041  0.4234  0.0484 -0.3802
25676W        W41860  12.767   7.309   2.182 -0.0108  0.2283  0.1601
25677W        W41861  13.360  13.138   0.330  0.2108  0.1060  0.0811
25678W        W41862   0.303  15.196   9.750  0.0466  0.0817  0.2169
25679W        W41863   1.077   1.626   0.269  0.1788 -0.0356  0.0837
25680W        W41864   8.851  10.119   0.441  0.0870  0.0784 -0.0426
25681W        W41865   3.149   6.007  12.270  0.1024  0.2119  0.2216
25682W        W41866   4.270   5.075  15.295  0.2797 -0.1108  0.0126
25683W        W41867   8.455  12.928  13.940  0.3049  0.1615  0.4104
25684W        W41868  16.911   0.096   3.121 -0.0699  0.2023  0.0833
25685W        W41869  11.141   1.630  12.973  0.0299  0.0554 -0.1464
25686W        W41870   1.230   0.739  16.093 -0.0003  0.0115  0.1516
25687W        W41871  17.691   6.731   1.736  0.2813 -0.1511 -0.0964
25688W        W41872   4.933  15.012   5.145 -0.1018 -0.2651  0.0450
25689W        W41873   6.580  17.171  15.153 -0.2836 -0.0245  0.0367
25690W        W41874   8.173   2.985  13.928 -0.0520  0.1730 -0.2265
25691W        W41875  14.825  14.486   1.913  0.1716  0.0691  0.0358
25692W        W41876   8.041   1.419   3.466  0.1531 -0.0837 -0.3292
25693W        W41877   3.867   8.476   0.994  0.0160  0.0072 -0.1045
25694W        W41878  14.107   1.672  16.006  0.3475 -0.2897 -0.1738
25695W        W41879  17.225   0.855  11.169  0.2830 -0.3486  0.2921
25696W        W41880   2.368  12.673  15.404  0.0055  0.2722  0.2685
25697W        W41881  16.212  15.603  15.695 -0.3112 -0.1415 -0.0549
25698W        W41882   3.513   5.118   0.906 -0.2660 -0.1531 -0.0136
25699W        W41883   8.736   2.348   1.406  0.1027  0.2000 -0.1777
25700W        W41884   6.797   5.191   1.659 -0.0947  0.3388  0.1551
25701W        W41885  15.660  12.319   3.541 -0.0934 -0.1041  0.1864
25702W        W41886  15.915   3.360  14.773 -0.0356  0.0295 -0.0828
25703W        W41887   3.791   9.932  15.924 -0.2105  0.2548 -0.0061
25704W        W41888  14.022   5.569   4.572 -0.0333 -0.0904  0.1172
25705W        W41889   4.312   6.608  14.055 -0.0332 -0.0121 -0.0980
25706W        W41890   6.899   1.152  15.137 -0.2116 -0.1388  0.0075
25707W        W41891   6.508  15.152   4.944 -0.1456  0.3893  0.2765
25708W        W41892   5.188   9.286   0.867 -0.0548 -0.1969  0.0388
25709W        W41893   5.043   2.487  15.735 -0.3107  0.1036 -0.1254
25710W        W41894  15.462   1.477  14.153  0.1774 -0.1090 -0.2448
25711W        W41895   3.307  14.898  14.670  0.2372  0.3086  0.3210
25712W        W41896  13.390   8.224   0.329 -0.0233  0.0788 -0.1349
25713W        W41897  13.486   7.959  13.026 -0.0676 -0.2128 -0.1184
25714W        W41898  13.737  13.171   1.121  0.2345 -0.1711 -0.1441
25715W        W41899  14.323   3.399  16.105 -0.1158 -0.2525  0.3454
25716W        W41900  13.067   3.158   4.509  0.3638  0.1142  0.0755
25717W        W41901  14.985   5.498  14.868 -0.1427 -0.2424  0.0829
25718W        W41902  16.970   8.106   4.373  0.0242 -0.1384  0.0713
25719W        W41903   7.494   7.126  14.615  0.2431 -0.3382  0.0400
25720W        W41904  11.370   3.536   2.193  0.2628 -0.2163  0.1115
25721W        W41905   4.925  11.004  15.281 -0.0711 -0.1180  0.1631
25722W        W41906   3.153   5.026   4.424  0.2713 -0.1031  0.1767
25723W        W41907   7.029  12.287  13.544 -0.0781 -0.0527  0.1944
25724W        W41908  17.689  12.895  12.722 -0.1197  0.2403 -0.0689
25725W        W41909   1.902  16.402  12.770  0.2096 -0.0759  0.2674
25726W        W41910   9.024   1.531   3.489 -0.1204 -0.2391  0.1317
25727W        W41911  15.633  11.650  11.879 -0.0293 -0.2103 -0.0850
25728W        W41912   6.293   2.286   5.052 -0.0241  0.1970 -0.0061
25729W        W41913   4.135  15.477   1.585 -0.1070 -0.0807  0.4297
25730W        W41914   4.267   4.090   5.160 -0.2548  0.2991 -0.1261
25731W        W41915   4.414   6.996   3.389  0.3425 -0.0614 -0.0667
25732W        W41916   2.861   1.143   4.472 -0.0233 -0.1874  0.1626
25733W        W41917   8.889  11.278   1.010 -0.0245 -0.0866 -0.1783
25734W        W41918   0.259  17.564  14.507  0.0954  0.2138 -0.1086
25735W        W41919   7.137   6.326   5.247 -0.2026  0.2224 -0.0892
25736W        W41920   0.909   8.125   4.318  0.1353 -0.0097 -0.3328
25737W        W41921  15.142  15.648   3.571 -0.0230  0.3830  0.0670
25738W        W41922   4.539  12.550   0.522  0.2068  0.1925 -0.1443
25739W        W41923  13.823   4.101   4.259 -0.2240  0.1098 -0.0165
25740W        W41924   7.927  10.390   6.465  0.2914  0.4124 -0.2325
25741W        W41925   4.442  10.364  12.030  0.3124 -0.1527  0.2592
25742W        W41926  12.625  14.311   0.991  0.1380 -0.0065  0.1548
25743W        W41927  16.187   0.788  12.564  0.3068  0.0545 -0.1001
25744W        W41928   4.552   7.365  15.723 -0.2727  0.0426 -0.3299
25745W        W41929   2.993   1.034   3.529  0.0260 -0.1166 -0.0831
25746W        W41930   0.374   9.064   1.719  0.1507 -0.3776 -0.1327
25747W        W41931  18.491   3.422  11.799  0.0184  0.1264 -0.0544
25748W        W41932   3.108   6.491  11.283  0.1417  0.1378  0.2028
25749W        W41933   5.971   2.700  14.052  0.1793  0.2506 -0.0946
25750W        W41934   6.011   9.981   4.275  0.1354  0.1951  0.1366
25751W        W41935   1.756   1.205  14.263  0.0359  0.1975 -0.1739
25752W        W41936   3.710  10.883   3.781 -0.3119 -0.1639 -0.1947
25753W        W41937   0.932   3.127   2.911  0.0287  0.1626  0.1188
25754W        W41938   6.303   7.448   3.638 -0.0128 -0.0412 -0.1409
25755W        W41939   0.652   4.394  11.047  0.0595 -0.0465  0.1026
25756W        W41940   3.993  10.218  13.007  0.0554  0.0087  0.0585
25757W        W41941  15.237   8.858   5.845  0.1224 -0.0616  0.0135
25758W        W41942  18.232  12.959  13.756 -0.2171 -0.1156 -0.2713
25759W        W41943  11.310  14.292  11.787  0.0387  0.3347  0.0593
25760W        W41944   7.116   0.489   0.100  0.1211  0.0820  0.1308
25761W        W41945  13.273   4.489  11.406  0.1454  0.2047 -0.1345
25762W        W41946  10.208   9.166   5.306 -0.2707  0.1149 -0.0557
25763W        W41947   5.856  15.422   5.329  0.0447  0.0010 -0.0389
25764W        W41948   2.274  16.583   4.407 -0.0649 -0.3152  0.4357
25765W        W41949  11.755  12.755  13.052 -0.2233 -0.0245  0.0730
25766W        W41950   7.924   8.764   3.829 -0.1809  0.2958 -0.0530
25767W        W41951   1.589  14.045   1.145 -0.1302 -0.0691 -0.0937
25768W        W41952   7.341  13.490  12.862 -0.1663  0.2551  0.0120
25769W        W41953  15.010   7.620   3.538 -0.0459  0.1627  0.2310
25770W        W41954  16.183  12.038   2.534  0.0920 -0.0171  0.0498
25771W        W41955  13.218   0.652  13.300 -0.1665 -0.0342  0.0445
25772W        W41956  12.978  11.837  13.638  0.1728 -0.3103  0.3471
25773W        W41957   3.279   3.802  11.672  0.2405  0.0692 -0.0574
25774W        W41958  12.234   5.656   4.018  0.1649  0.2531  0.0369
25775W        W41959  18.323   6.496   0.593 -0.2083  0.0592  0.1577
25776W        W41960   0.561  16.955  13.117 -0.0037  0.1003 -0.1897
25777W        W41961  12.822   0.747   4.996 -0.1337  0.0724  0.0957
25778W        W41962  14.975   6.994   1.362 -0.0238 -0.0200  0.0605
25779W        W41963   9.340  13.602   2.246 -0.2480 -0.1733  0.0609
25780W        W41964  14.991   3.343  14.269  0.2371  0.1436  0.1238
25781W        W41965   5.832   7.956   2.852  0.1496  0.4595 -0.0668
25782W        W41966   6.674   0.203  15.057  0.3370  0.0488 -0.2063
25783W        W41967  11.029   1.620   0.257  0.3246  0.1545 -0.1774
25784W        W41968   1.926  17.742  13.438  0.0561 -0.3441  0.1362
25785W        W41969   8.034  17.446   1.812  0.1114 -0.0160  0.2185
25786W        W41970   2.495  17.721  13.767  0.3245 -0.0009 -0.0264
25787W        W41971  17.463  17.555  12.963  0.2766  0.1879 -0.4143
25788W        W41972   8.338  14.120   4.457 -0.0927 -0.0964  0.0453
25789W        W41973  16.949  10.762   2.237  0.1618  0.1386 -0.2392
25790W        W41974   7.146   2.498  12.149  0.1026  0.1215  0.2241
25791W        W41975  14.763  10.575   1.351  0.0846 -0.2036 -0.1941
25792W        W41976   6.441   5.891  15.700  0.0527  0.3034 -0.2586
25793W        W41977   1.699   5.662  15.487  0.0034 -0.0155  0.4101
25794W        W41978  15.444   2.987  15.696  0.0928  0.0533  0.1632
25795W        W41979   1.461   1.688   3.984 -0.0562 -0.2950  0.0764
25796W        W41980  13.460  12.008  15.795 -0.3750 -0.0079  0.0700
25797W        W41981   2.181   2.728  11.086 -0.3912 -0.1273 -0.1216
25798W        W41982   0.361   5.717  13.563  0.1254  0.1662 -0.0343
25799W        W41983  18.046   3.921   9.894 -0.0094  0.1991  0.0920
25800W        W41984   0.791  15.529   2.742 -0.0525  0.0964  0.2773
25801W        W41985  17.731   8.547  16.122 -0.0580  0.0180  0.2055
25802W        W41986  17.282  16.468  15.810  0.0820  0.1321  0.0910
25803W        W41987   1.718  10.068  14.054  0.4230 -0.0417  0.3495
25804W        W41988  15.072   3.821  12.197 -0.0217 -0.3775  0.1538
25805W        W41989   5.642   2.023   2.876 -0.0044  0.1395 -0.2154
25806W        W41990  16.113  18.464  13.767 -0.1505 -0.0523  0.0070
25807W        W41991   0.632   5.828   5.768 -0.0963 -0.0547 -0.0891
25808W        W41992   6.920   6.199   3.405 -0.1024  0.2546  0.1140
25809W        W41993  12.077   9.225  12.505  0.1209 -0.1025  0.1859
25810W        W41994   7.158   6.843   2.111 -0.4576 -0.3028 -0.1976
25811W        W41995   9.053   6.046  15.466  0.0728 -0.3647  0.3028
25812W        W41996  13.643  10.662   0.917  0.2137 -0.0046 -0.0478
25813W        W41997   6.051   9.821   2.743 -0.0270 -0.1046  0.1336
25814W        W41998   2.447  17.458   0.448  0.2800 -0.0299 -0.0017
25815W        W41999  18.317  18.030  13.880  0.2940 -0.0795  0.2927
25816W        W42000  13.770  18.249   0.794  0.0338  0.1922 -0.0962
25817W        W42001  10.980  17.664  14.258  0.0560 -0.1177 -0.0509
25818W        W42002   3.412   3.465  15.898  0.1247  0.1513 -0.0766
25819W        W42003   7.900   8.917   2.339  0.0835  0.2237  0.0226
25820W        W42004   2.229   5.065   3.792 -0.0686  0.2241  0.2039
25821W        W42005  13.072  13.506  14.654  0.0611 -0.1465 -0.0293
25822W        W42006  16.427  10.664   5.890 -0.2480 -0.0186 -0.5004
25823W        W42007   3.561  13.454  15.941  0.0461 -0.1170  0.3233
25824W        W42008  15.886   7.643  13.867 -0.3136 -0.5349 -0.4601
25825W        W42009  10.504  12.530  13.054 -0.1394 -0.1239 -0.0023
25826W        W42010   7.012  11.961  12.669 -0.0915 -0.0719 -0.0874
25827W        W42011  10.105   2.241   3.422 -0.2963 -0.1113 -0.1138
25828W        W42012  11.773   5.339   0.701 -0.2847 -0.0197  0.2672
25829W        W42013   3.841  18.260   4.631 -0.1801  0.1210  0.0320
25830W        W42014   2.843   2.186   4.148 -0.1974  0.1880 -0.0252
25831W        W42015   7.693   8.386  12.763  0.0778 -0.0395  0.2394
25832W        W42016   1.796  10.768  12.528  0.0064 -0.0692  0.0025
25833W        W42017  12.206   7.729   4.783  0.2226  0.4528 -0.0226
25834W        W42018   8.923  10.074  12.500  0.0426  0.0576 -0.2648
25835W        W42019  16.292  13.354  12.404 -0.1021 -0.0340  0.2664
25836W        W42020  11.721   1.550   3.526  0.2546  0.0663 -0.1950
25837W        W42021  17.716  12.648  11.314  0.2132 -0.0054  0.1212
25838W        W42022   7.642   6.166  14.505  0.2929  0.1432 -0.0167
25839W        W42023   1.794   2.922   4.667  0.1759  0.1761  0.1226
25840W        W42024  16.537   1.977   2.588 -0.0836  0.0751  0.1791
25841W        W42025   4.288   8.934  11.958 -0.2919 -0.0870  0.0307
25842W        W42026  16.049  14.164  11.340 -0.1730  0.1780 -0.2852
25843W        W42027   2.197  13.386  11.281 -0.0919  0.3215 -0.1015
25844W        W42028   2.239  18.448  14.757  0.2068 -0.3732 -0.2336
25845W        W42029   1.447  13.938  12.892  0.0547  0.1403  0.0200
25846W        W42030   2.147  11.758   0.745  0.0981  0.0811 -0.3652
25847W        W42031   6.743   3.433   3.470  0.1356  0.2970  0.1944
25848W        W42032  14.854   9.961  14.594 -0.3437  0.0386 -0.2792
25849W        W42033  16.550  14.528   4.794 -0.0951  0.0107 -0.0646
25850W        W42034   7.306   5.985   0.251 -0.0802  0.0526 -0.2003
25851W        W42035  16.126   7.373  15.144  0.0370 -0.1657  0.2400
25852W        W42036   7.757  16.520   0.604  0.1136  0.1133 -0.1531
25853W        W42037   3.931  13.241   0.110 -0.3527 -0.0266 -0.0248
25854W        W42038  12.516  13.347   4.616 -0.1355 -0.0955  0.0295
25855W        W42039  12.704   0.418   2.968  0.2046  0.0453  0.0806
25856W        W42040  11.156  14.311  12.282  0.1333  0.1900 -0.3053
25857W        W42041   9.101  13.382   0.046 -0.0289  0.0737  0.0214
25858W        W42042  16.376  12.669   5.184 -0.1523  0.2103 -0.1378
25859W        W42043   1.862   4.107  14.982  0.0358  0.1057  0.2135
25860W        W42044   8.386  16.701   4.880 -0.2581  0.0487  0.4305
25861W        W42045   6.218  16.907   3.687  0.1004 -0.0193 -0.1375
25862W        W42046   7.073   0.439  14.410  0.0370 -0.0999  0.0010
25863W        W42047   9.323   4.219  12.700 -0.0931  0.0679 -0.0385
25864W        W42048  13.251   0.541   1.116 -0.0778 -0.2252  0.1879
25865W        W42049   1.780   5.608  12.789 -0.1117 -0.1774  0.3022
25866W        W42050  16.025  15.195  12.156  0.0150 -0.0244 -0.0952
25867W        W42051  11.280   5.491   3.545  0.0500 -0.3774 -0.1853
25868W        W42052   2.338   2.232  11.148 -0.0838  0.1025  0.1224
25869W        W42053   1.191   9.520   0.802  0.1318 -0.0350  0.0560
25870W        W42054  14.023   5.192  13.625  0.0590  0.3548 -0.2542
25871W        W42055   3.036  12.489   1.885  0.1487 -0.2106  0.1627
25872W        W42056   9.179  14.471  15.528 -0.0379  0.4706 -0.0375
25873W        W42057   1.897   4.908  14.779  0.2454 -0.0996 -0.0263
25874W        W42058  14.879  13.562  13.827  0.1847  0.1277 -0.1841
25875W        W42059   7.420   2.618  15.463  0.0363 -0.0478 -0.1725
25876W        W42060  17.369   8.054  14.039  0.0686  0.1136  0.2800
25877W        W42061   4.245   4.203  12.649 -0.0740  0.0098  0.0921
25878W        W42062   0.844  16.838   3.217 -0.0586  0.7276 -0.0421
25879W        W42063  16.439   9.681   1.826 -0.0889  0.0192  0.1964
25880W        W42064  11.120  14.817  12.175  0.2192  0.0486  0.1246
25881W        W42065  10.573   0.870  11.304 -0.2307 -0.0652  0.0786
25882W        W42066  14.169   9.389  15.280 -0.2864  0.1692 -0.0661
25883W        W42067   5.539   8.970   2.805 -0.1298 -0.2805  0.1954
25884W        W42068   6.947   6.112  15.636 -0.0673  0.0450  0.1507
25885W        W42069  11.773   7.151   1.551 -0.1579  0.1016  0.1217
25886W        W42070  14.938  14.060  12.095 -0.1419 -0.0967  0.0567
25887W        W42071  14.068   3.620   1.757 -0.0828  0.0557  0.0944
25888W        W42072   9.532  14.860   5.438 -0.1119 -0.1107  0.2057
25889W        W42073   6.405   1.424  11.994 -0.1857 -0.2176 -0.0097
25890W        W42074  16.949  12.380   4.474  0.2052 -0.0055  0.0430
25891W        W42075   9.560  12.641   4.430 -0.1813  0.2296 -0.2230
25892W        W42076   7.613   3.010   2.115 -0.0012  0.0843 -0.0313
25893W        W42077  12.113   2.764   3.418  0.1682  0.0947 -0.1251
25894W        W42078  11.977   0.375  11.459  0.0430 -0.2814  0.2112
25895W        W42079   0.434   4.002  13.065 -0.0878 -0.1204 -0.5362
25896W        W42080   2.837   0.153   1.665 -0.0124  0.1915 -0.2340
25897W        W42081   3.967   5.129   2.013  0.0724  0.1507  0.0137
25898W        W42082   6.573   9.714   2.842  0.0212  0.0152  0.5117
25899W        W42083   9.059   1.180   4.643 -0.0868  0.0398 -0.1290
25900W        W42084  14.413  15.252   4.888  0.3485  0.1593 -0.0619
25901W        W42085   0.351   5.884  10.676  0.2792 -0.0947  0.2301
25902W        W42086   4.142  11.856   3.170 -0.2710 -0.1835  0.0381
25903W        W42087  18.119  17.745  12.086  0.1520 -0.1055 -0.2529
25904W        W42088  14.872  15.841  16.090 -0.2013  0.1443  0.1096
25905W        W42089  12.433   9.551   4.536 -0.1176 -0.1483 -0.0315
25906W        W42090   9.062   8.175  13.315  0.3591  0.0023  0.0468
25907W        W42091  14.703  15.364  14.795  0.2411  0.0180  0.0483
25908W        W42092  12.125   9.844   5.315 -0.0757 -0.3564  0.0052
25909W        W42093  11.293   4.777   0.283 -0.1030 -0.0449  0.0886
25910W        W42094   4.563   0.861  15.355 -0.0050 -0.1473  0.1136
25911W        W42095  11.411   4.892  14.408  0.1050 -0.2302 -0.0216
25912W        W42096  14.724   1.187  13.700  0.0844  0.2009 -0.0207
25913W        W42097  14.608  17.248  12.160 -0.1127  0.1749 -0.0057
25914W        W42098  14.457   6.273   0.117 -0.0300 -0.2074  0.1483
25915W        W42099   2.457   8.361  13.157  0.0558  0.0976  0.0204
25916W        W42100   4.771   3.266  15.699 -0.2002 -0.1492 -0.0136
25917W        W42101   3.653   2.825   4.837 -0.1245 -0.0942 -0.1110
25918W        W42102   1.811   5.143   2.420 -0.1321  0.2370 -0.1841
25919W        W42103   5.773   9.280  12.897 -0.1852  0.0181 -0.0816
25920W        W42104  16.949  11.418   5.438  0.0133  0.1724 -0.1526
25921W        W42105  14.609   5.419   2.876 -0.1244  0.4204 -0.3009
25922W        W42106  15.893   0.964  11.337 -0.0376  0.3603  0.0828
25923W        W42107  13.827  10.440  11.750  0.0126  0.0695  0.0931
25924W        W42108  17.623  17.589   0.647 -0.2471  0.0137  0.1015
25925W        W42109  18.132   1.973   2.176 -0.3786  0.3865 -0.1870
25926W        W42110   2.761  10.372  14.554  0.0080 -0.0216 -0.0499
25927W        W42111   8.956  11.901  12.930 -0.1598 -0.0555 -0.1802
25928W        W42112  15.888  14.499  11.716 -0.1225 -0.0164 -0.0939
25929W        W42113   4.030   1.682   0.260 -0.2032 -0.0626  0.1415
25930W        W42114   7.265  18.160   5.051 -0.3035 -0.1388  0.3537
25931W        W42115  11.212  11.465  13.167  0.0329 -0.1731  0.0272
25932W        W42116  15.183  14.811   0.087 -0.1605 -0.1566  0.1071
25933W        W42117  16.834  10.753   1.721 -0.0819  0.1009 -0.0131
25934W        W42118   5.686   7.992  11.624 -0.0893  0.2438 -0.1328
25935W        W42119  11.010   8.175  11.529 -0.1066  0.0592  0.0247
25936W        W42120   2.920  12.038   1.669 -0.2426 -0.2121 -0.2099
25937W        W42121  11.330   9.108   5.946 -0.0132 -0.0431  0.0365
25938W        W42122  10.041   4.787   0.348 -0.0542  0.1052  0.0558
25939W        W42123  14.643   8.345  13.319 -0.1391  0.1067  0.1310
25940W        W42124  12.857   1.156   5.383  0.1038  0.0103  0.1944
25941W        W42125   3.998  17.934   3.579  0.0515 -0.1879  0.0713
25942W        W42126   3.977   8.728  15.691 -0.1627 -0.1676  0.1229
25943W        W42127   0.374   6.163  12.071  0.0809  0.0729 -0.2022
25944W        W42128  12.379  13.636   3.415  0.2100 -0.2096  0.0281
25945W        W42129   3.894   7.867   4.125 -0.1805 -0.0518  0.5482
25946W        W42130  10.730   4.400  13.926 -0.1638  0.0796 -0.0310
25947W        W42131  10.894   9.003   4.453 -0.1184  0.0200  0.1308
25948W        W42132  13.632  10.214   0.249 -0.0542  0.0527 -0.0258
25949W        W42133  14.777   7.055  13.139  0.0652  0.0335  0.0536
25950W        W42134   9.756  12.295   5.136 -0.2265  0.1357  0.0465
25951W        W42135  16.628  14.633  14.794  0.1847  0.2381 -0.0517
25952W        W42136  16.371   6.111   4.733 -0.0550 -0.0649 -0.2204
25953W        W42137  11.597   6.870   0.174 -0.4346  0.0188  0.0280
25954W        W42138  17.086  10.091   0.039 -0.3787  0.0213 -0.1006
25955W        W42139   1.371  11.906  15.798 -0.2632  0.1403  0.0024
25956W        W42140  18.111   3.202   3.573 -0.2778  0.0260 -0.2176
25957W        W42141   1.207  17.441  14.553 -0.1679 -0.1322  0.3277
25958W        W42142  14.766  18.104   2.637  0.2126  0.1108  0.2178
25959W        W42143   6.374   0.805   1.225  0.1941  0.0722  0.0852
25960W        W42144   3.758   2.087   3.549 -0.3495  0.0363 -0.1627
25961W        W42145   1.399  18.382   4.484 -0.0624 -0.0495  0.0496
25962W        W42146  17.664  14.000  14.924 -0.1878  0.2513 -0.3443
25963W        W42147   3.989   2.819   3.853 -0.0672 -0.2136  0.1192
25964W        W42148   9.578   4.548  14.181 -0.2963  0.1216  0.1348
25965W        W42149   8.820  17.146   2.655  0.0504 -0.0616 -0.0106
25966W        W42150  16.341   8.946  12.112 -0.0980  0.0333 -0.1108
25967W        W42151   6.466   5.066   2.687 -0.0713 -0.0714 -0.0238
25968W        W42152   2.251   9.365   3.407 -0.0028 -0.1369  0.1435
25969W        W42153   8.619   7.915   2.065  0.1971  0.2651  0.4268
25970W        W42154   2.293   4.535   0.406 -0.3213  0.2531  0.2893
25971W        W42155  16.367  18.147   0.883  0.1058  0.1992 -0.1441
25972W        W42156   8.752  12.526   6.006  0.2828  0.3092  0.1029
25973W        W42157  15.407   8.094  12.717  0.0269  0.2430 -0.1778
25974W        W42158   4.123  10.584  13.305  0.3653 -0.1388 -0.0152
25975W        W42159  18.053   8.952   1.750  0.2698 -0.0721  0.3835
25976W        W42160  13.558   0.687   0.626  0.0327 -0.0747 -0.2890
25977W        W42161  14.967  16.931  16.044  0.0488  0.2010  0.0427
25978W        W42162   2.663   4.022  11.071 -0.1002 -0.1095 -0.2367
25979W        W42163   9.791  12.223  12.516 -0.0136  0.1069 -0.0708
25980W        W42164  13.831  14.525  13.404  0.0234 -0.0000 -0.1862
25981W        W42165  15.386   1.958   2.484  0.0949  0.2075 -0.2982
25982W        W42166   4.747  13.907   4.140 -0.1520 -0.1509 -0.1832
25983W        W42167  10.132   8.488   4.351  0.0084 -0.1942 -0.0272
25984W        W42168  10.846   7.294   2.340 -0.2792 -0.2175 -0.1358
25985W        W42169   8.974  15.989   0.587  0.0774  0.1506 -0.1193
25986W        W42170   7.390  12.761  13.405  0.1304 -0.0116 -0.1230
25987W        W42171   3.611   4.485  14.527  0.2092 -0.0083  0.3263
25988W        W42172   4.232  10.827  11.891 -0.0319 -0.3169 -0.0950
25989W        W42173   0.145  10.327   4.091  0.2444 -0.1682  0.0511
25990W        W42174   6.839  14.206   0.490 -0.1537 -0.0638  0.1578
25991W        W42175   8.385   3.534   1.628  0.1222  0.2314  0.2886
25992W        W42176   1.016   1.302  15.997 -0.3784  0.1291  0.1168
25993W        W42177  11.838   9.029   0.703 -0.2664  0.0774 -0.1156
25994W        W42178   9.123  12.142   3.035  0.0667 -0.0546  0.2622
25995W        W42179  15.440  11.618   5.430 -0.0744 -0.1049 -0.1524
25996W        W42180   5.875  11.516  14.447  0.3053 -0.1095  0.0778
25997W        W42181  16.573   9.535   3.223 -0.3602  0.0583 -0.1208
25998W        W42182   2.568   5.931   3.451 -0.3558  0.0079  0.2873
25999W        W42183   0.810  11.565  14.871 -0.0604 -0.0239  0.2644
26000W        W42184  13.489   5.901   5.759 -0.3372  0.0568  0.1469
26001W        W42185   4.240  14.901  11.649  0.0837 -0.1425 -0.0752
26002W        W42186   5.799   0.307  15.349 -0.2498 -0.1922  0.0169
26003W        W42187  11.336  10.537   4.159 -0.0157 -0.0745 -0.2574
26004W        W42188   5.395  14.968  13.242  0.2587  0.2162  0.0106
26005W        W42189   5.498   9.207  15.778  0.0994 -0.0726  0.1069
26006W        W42190  15.607  13.278  15.437 -0.0222 -0.0204 -0.2665
26007W        W42191  13.620  15.393   3.161  0.2344  0.0388 -0.1660
26008W        W42192  12.450   8.412   5.618  0.3042  0.3631  0.0996
26009W        W42193  11.943   3.751  13.887  0.2686  0.2110  0.0424
26010W        W42194   8.847  15.301   5.106 -0.1495  0.0596  0.0975
26011W        W42195   5.554  15.319  11.174  0.2342  0.3181  0.1633
26012W        W42196   4.415   5.408  11.120 -0.1370  0.1270  0.1014
26013W        W42197  14.928  14.439  15.360 -0.1322 -0.1356  0.0840
26014W        W42198   7.165  17.387  13.093 -0.0261  0.2622  0.1524
26015W        W42199   6.382   0.894   3.263  0.1519  0.2171  0.1294
26016W        W42200   6.217   2.446  13.470  0.0326  0.1518 -0.0919
26017W        W42201   9.091  18.492   0.151  0.0959  0.1589  0.0365
26018W        W42202   1.297   9.044   2.670 -0.2708 -0.0702 -0.1212
26019W        W42203   0.036  18.512   3.899 -0.0971 -0.0201  0.2202
26020W        W42204  15.742  11.239   4.983  0.1830  0.3606 -0.0054
26021W        W42205   8.329  13.398  14.113  0.0075 -0.1564  0.0832
26022W        W42206  15.582  12.243  15.708  0.0751 -0.1170  0.1946
26023W        W42207   2.962   6.227  15.548 -0.0320 -0.0706  0.2851
26024W        W42208  17.390   8.342   5.890 -0.0099 -0.1276 -0.4238
26025W        W42209   2.216   6.223   5.041  0.0120  0.0136  0.1635
26026W        W42210   9.668  15.092  15.203 -0.0795 -0.1648 -0.0499
26027W        W42211  14.153   8.954   5.942 -0.1332  0.0893  0.5275
26028W        W42212   1.029   7.868   2.153  0.1556  0.0478  0.0485
26029W        W42213  10.119   3.790  15.580  0.0234 -0.0948 -0.0979
26030W        W42214   2.344  10.370   1.468  0.1152  0.0204  0.0760
26031W        W42215   1.460  13.958  14.295 -0.2660 -0.1517 -0.1507
26032W        W42216   3.309  17.771   0.513 -0.2661 -0.0403 -0.1862
26033W        W42217  12.364  17.844  12.513  0.0470 -0.2586 -0.0138
26034W        W42218  14.254   7.467  13.527 -0.0083  0.0180  0.3256
26035W        W42219   7.264   4.332  14.759  0.0252  0.1020 -0.0383
26036W        W42220  12.278  13.565  15.741 -0.3695 -0.2083  0.3367
26037W        W42221  11.443   0.209   0.507 -0.0862 -0.1715  0.3178
26038W        W42222   5.239   9.867   4.219 -0.3493  0.0426  0.0224
26039W        W42223  17.970  12.518   2.992  0.2222  0.1410 -0.1504
26040W        W42224   7.790  12.569   1.301  0.0934 -0.1183  0.3693
26041W        W42225  17.328  11.840   4.574  0.1055 -0.1615 -0.0494
26042W        W42226  15.872  17.173  13.020  0.0036  0.1270  0.0284
26043W        W42227   8.697   6.464   1.116 -0.2335  0.1912 -0.1219
26044W        W42228  16.399   9.864   3.487  0.2741 -0.0752  0.3657
26045W        W42229  16.088  11.570  14.375  0.0181  0.1632 -0.0746
26046W        W42230  12.692   6.426  11.164 -0.4579  0.0037  0.1265
26047W        W42231   2.681  14.612   4.999  0.0660 -0.0423  0.0735
26048W        W42232   7.531   5.446   5.592 -0.2973  0.1390  0.0159
26049W        W42233  16.409   5.003   2.994  0.0779 -0.1039 -0.1056
26050W        W42234  12.313   5.365   0.645  0.0275  0.1476 -0.1999
26051W        W42235   6.271  15.887   2.945 -0.1157 -0.0171  0.1105
26052W        W42236   1.360   5.866   2.781 -0.4398  0.0953  0.1310
26053W        W42237   7.133   9.059  12.624 -0.0064 -0.2164  0.3157
26054W        W42238  17.746   0.114  13.730  0.4227  0.1211 -0.1311
26055W        W42239  16.867  14.470  11.360  0.2089  0.0361 -0.1815
26056W        W42240   5.649  16.610   2.969 -0.3197 -0.2573  0.0699
26057W        W42241   6.113  18.085  12.705 -0.2208  0.0355 -0.1753
26058W        W42242  17.110   9.473   3.507 -0.0440 -0.0672 -0.0778
26059W        W42243   3.440   2.403  11.903  0.1543 -0.0959  0.2209
26060W        W42244   6.068  12.049   5.344  0.0028  0.1605 -0.2331
26061W        W42245   7.075   8.018   4.129  0.0225 -0.0502  0.2206
26062W        W42246  12.535   8.375   1.478 -0.0351 -0.2457 -0.1093
26063W        W42247  14.086   7.345   1.363 -0.1344  0.1954  0.1871
26064W        W42248   8.318  10.158  11.133 -0.1288 -0.0458  0.1715
26065W        W42249   6.426   9.444   5.103 -0.0579 -0.0615  0.0429
26066W        W42250   8.427  17.757  15.677  0.3905  0.2572  0.1265
26067W        W42251   1.710  11.358   6.354  0.0046  0.1478  0.3585
26068W        W42252  13.492  10.253   3.944 -0.1241 -0.0196 -0.0805
26069W        W42253  11.281   9.355   0.291  0.0799 -0.0218 -0.0516
26070W        W42254  10.008  15.264   3.671  0.2344  0.1365 -0.0722
26071W        W42255  11.773   2.752   1.072  0.1127  0.2344  0.0709
26072W        W42256  11.152   1.860   1.767  0.1772  0.0890  0.0145
26073W        W42257   6.548   8.137   2.471  0.2116 -0.1543  0.2374
26074W        W42258  18.364  13.036   2.936  0.1283  0.0092 -0.1264
26075W        W42259   9.065   1.318   2.064  0.2756  0.0695  0.2800
26076W        W42260  12.087  12.385   1.351 -0.0404  0.1402 -0.1094
26077W        W42261   7.844   0.109   4.269  0.1230  0.0025  0.3368
26078W        W42262   6.103   5.069  15.190  0.0090  0.0574  0.0253
26079W        W42263   5.762   6.456   3.511 -0.0492 -0.0280  0.1760
26080W        W42264   8.084   0.684   1.499 -0.1028  0.2759 -0.1421
26081W        W42265  12.324  10.074  11.796  0.0068 -0.1724 -0.0584
26082W        W42266  12.279  10.323   2.693 -0.0365  0.2243  0.1705
26083W        W42267   2.215   6.806   2.477 -0.0388 -0.0815 -0.0509
26084W        W42268   1.644  10.044  13.255 -0.0512  0.1708 -0.1051
26085W        W42269  12.695   0.698   5.495  0.0527  0.2422 -0.3942
26086W        W42270  17.258   7.278   2.571  0.0535 -0.3051 -0.1727
26087W        W42271   3.284   2.400  14.758  0.0338 -0.1392 -0.1661
26088W        W42272  12.782   0.090  13.063  0.1701 -0.0149 -0.1217
26089W        W42273   0.537  14.430  13.123 -0.2051 -0.0426  0.4246
26090W        W42274   7.035   8.532  14.825  0.1398  0.0299  0.0866
26091W        W42275  16.205  15.797   0.319 -0.2280  0.1586 -0.1343
26092W        W42276   6.973   8.243  15.723 -0.1504 -0.1055  0.1316
26093W        W42277   7.809   3.402   1.874 -0.2508 -0.0441 -0.1102
26094W        W42278  16.814   4.222  13.654 -0.1434  0.4321  0.0780
26095W        W42279   3.017   9.406  14.878 -0.1219 -0.2332 -0.4694
26096W        W42280  11.804   7.313   0.467 -0.3196 -0.2955  0.0843
26097W        W42281  14.536   4.888  11.624  0.0825  0.1691  0.0309
26098W        W42282  17.940  13.458  14.982 -0.2329 -0.1970  0.0641
26099W        W42283   4.170  10.006   2.228 -0.0859 -0.2634  0.0081
26100W        W42284  10.386   6.730  11.569 -0.3284  0.1260 -0.0523
26101W        W42285   0.930  17.513   4.114 -0.2042 -0.2927  0.1573
26102W        W42286   6.674   6.882  13.324  0.0838  0.0752 -0.1582
26103W        W42287   3.729   4.348   3.885  0.0188 -0.0285 -0.0838
26104W        W42288   4.310   0.889  13.881  0.3241 -0.2603 -0.4556
26105W        W42289  14.245  11.660   0.027  0.1030  0.0460  0.1055
26106W        W42290  17.793   8.215   0.390  0.1383 -0.3086  0.2352
26107W        W42291   2.336  11.843   5.247 -0.1253 -0.0875 -0.1820
26108W        W42292  16.969  17.058  13.414 -0.2925  0.3723  0.2430
26109W        W42293   8.609  17.612   0.944 -0.1358  0.2663  0.1449
26110W        W42294  13.820   7.176  15.528  0.3535  0.0144  0.1242
26111W        W42295   9.583  17.471  13.330  0.0856  0.1433  0.1442
26112W        W42296   6.285  18.141   2.846 -0.0716 -0.4236  0.1134
26113W        W42297   7.053   0.908   5.309  0.1544 -0.0987 -0.1783
26114W        W42298   7.818   9.103  13.840 -0.0887  0.1448  0.1158
26115W        W42299   1.552   4.020  13.857 -0.2507  0.3466  0.1276
26116W        W42300   3.149  15.269  13.764  0.1052 -0.0451  0.2505
26117W        W42301   1.946   8.091   2.625 -0.0221  0.0173 -0.2518
26118W        W42302  16.847   0.641  14.234  0.3333 -0.0401  0.0630
26119W        W42303  15.529  11.813   3.620  0.0740  0.0854  0.1303
26120W        W42304  17.536  17.757   2.758 -0.2280  0.1297 -0.1969
26121W        W42305   5.387  15.175   2.603 -0.0875  0.0478 -0.1003
26122W        W42306   4.932   4.550  15.131  0.1415 -0.1433 -0.0051
26123W        W42307  16.469   2.832  10.642  0.0184  0.0078 -0.0376
26124W        W42308   9.747   3.133   3.848 -0.0756  0.2360  0.1156
26125W        W42309  14.494  18.073   3.913 -0.3568 -0.0051  0.2110
26126W        W42310  12.515   1.083  14.868 -0.0798  0.0092  0.0260
26127W        W42311  11.016  14.259   0.660 -0.0972 -0.1017 -0.2411
26128W        W42312  13.712   9.378   4.223  0.1047 -0.1707  0.0252
26129W        W42313  16.843   1.592   2.652  0.1646 -0.3391  0.1262
26130W        W42314  15.965   2.761   2.335  0.0319  0.0048 -0.4341
26131W        W42315  17.987  15.883  14.193 -0.5159 -0.0169  0.1344
26132W        W42316   5.827   7.497   2.679  0.1853  0.0109 -0.0637
26133W        W42317  15.026  14.411   0.401  0.0960 -0.0100  0.0931
26134W        W42318  15.999  11.758  11.542 -0.0056 -0.0121  0.2988
26135W        W42319  11.858   6.264  11.048  0.1165 -0.2616  0.2009
26136W        W42320   2.958  17.484   0.283  0.3164  0.2884 -0.0926
26137W        W42321   3.407  16.035   2.365 -0.2483  0.1162  0.0204
26138W        W42322  10.153  14.692  14.579  0.1628 -0.0915 -0.2180
26139W        W42323   7.018  12.878   3.486  0.2007 -0.1222  0.1876
26140W        W42324   9.194  11.396   0.613  0.0132 -0.1584  0.2173
26141W        W42325   7.564  15.920   4.763  0.0401  0.2308  0.0475
26142W        W42326   3.364   0.891   3.172  0.4553 -0.3228  0.1060
26143W        W42327  15.654  17.243   1.930  0.0153  0.0229  0.0460
26144W        W42328   6.207  10.754   2.949 -0.0887  0.1670 -0.0222
26145W        W42329  17.759  13.526  11.525 -0.0678  0.0159 -0.1229
26146W        W42330  17.613  17.707  15.650  0.0997 -0.0606 -0.1766
26147W        W42331  12.814  12.088  15.781  0.1723 -0.1187  0.0620
26148W        W42332   9.379   4.711   2.075  0.0418  0.0049 -0.1030
26149W        W42333   7.967   5.922   5.095 -0.2326  0.1439  0.0157
26150W        W42334   6.124  15.262   1.949  0.0808  0.2107  0.0071
26151W        W42335  12.905   3.336   4.925 -0.2393 -0.1367  0.1473
26152W        W42336  14.202  14.211   2.342  0.0081 -0.1212  0.2891
26153W        W42337  10.977  15.033  14.887  0.1352 -0.0390  0.1786
26154W        W42338   3.286   0.007   1.013 -0.1361  0.1448  0.0658
26155W        W42339  13.124  16.158   4.200  0.0408 -0.1121 -0.1384
26156W        W42340  11.064  10.643   6.383 -0.2229  0.0049  0.1188
26157W        W42341  12.985   8.901  11.574  0.3113  0.3131  0.0727
26158W        W42342  15.656  17.827   1.338  0.1139 -0.1319 -0.0044
26159W        W42343   2.570  18.227  15.717 -0.0370 -0.4716  0.3627
26160W        W42344  10.305  14.718   5.216  0.0089 -0.1621 -0.0920
26161W        W42345   9.634   0.856   1.810  0.1272 -0.1710 -0.2001
26162W        W42346  13.771   4.647  14.809  0.2151  0.2859 -0.0764
26163W        W42347   9.084  10.706  14.819 -0.4912 -0.0796 -0.1720
26164W        W42348   3.005   1.222   2.955  0.0900  0.0560 -0.1851
26165W        W42349   8.590   6.573  14.009 -0.0215 -0.3733  0.1757
26166W        W42350   9.038   8.317  12.801  0.1432 -0.2141  0.0228
26167W        W42351   7.797   3.481   4.804  0.1979 -0.0201 -0.2046
26168W        W42352  12.245  17.093  13.155 -0.0818  0.1778 -0.0225
26169W        W42353   9.254  14.320  13.182 -0.1085  0.1049  0.1731
26170W        W42354   6.761  13.669   6.139  0.2260 -0.2051  0.0630
26171W        W42355   0.818  12.400  12.453 -0.1699 -0.1162  0.2365
26172W        W42356  11.757   9.197   1.182 -0.0137  0.2957  0.0583
26173W        W42357  12.913  12.311   5.269  0.1182 -0.1232  0.1566
26174W        W42358  13.045  11.339  15.330 -0.0484 -0.0583 -0.0369
26175W        W42359  18.105  10.167  15.952  0.1822  0.0318 -0.1270
26176W        W42360  12.870   1.959   4.159 -0.1257 -0.0821 -0.0031
26177W        W42361   6.823   8.737   3.445  0.3153  0.0136 -0.1825
26178W        W42362  11.442   3.481   3.414  0.3587 -0.0824  0.1193
26179W        W42363   2.506  14.628   5.891  0.2535 -0.1234  0.0573
26180W        W42364   6.778  10.134  11.488 -0.3438 -0.0655 -0.1535
26181W        W42365   3.544  18.137  12.970  0.1049 -0.0656  0.0928
26182W        W42366  15.129  15.331  16.136  0.0035 -0.0852 -0.0101
26183W        W42367  10.896   8.129  13.867 -0.0920 -0.1261 -0.1807
26184W        W42368  10.759   3.616   1.179  0.1475 -0.0644  0.1467
26185W        W42369  13.065   6.343  15.164 -0.0226  0.1098 -0.2166
26186W        W42370   7.957   3.846   2.535 -0.2279  0.0389 -0.3803
26187W        W42371   8.378   7.390  12.899 -0.1241  0.0966  0.0367
26188W        W42372   4.187  17.774  14.426  0.0572  0.0586 -0.2988
26189W        W42373  11.104   1.476   3.224  0.1386 -0.0642 -0.1543
26190W        W42374  18.162  13.261   4.430 -0.0548 -0.0898 -0.0612
26191W        W42375  10.818  16.617   3.405 -0.0616 -0.0732 -0.0334
26192W        W42376   8.648   2.612  15.238 -0.2479  0.3898 -0.0172
26193W        W42377   3.191  14.203  15.607 -0.2019 -0.0792 -0.2526
26194W        W42378   6.265  16.040  11.171  0.1377  0.3892 -0.0975
26195W        W42379   5.442   4.872   5.025  0.4654 -0.1503  0.2813
26196W        W42380  15.568  17.292  14.089  0.0587 -0.3041  0.0690
26197W        W42381   6.158  18.512  10.988 -0.0961  0.0135 -0.3927
26198W        W42382  16.050   9.869  13.672  0.0267  0.1211  0.1303
26199W        W42383   9.741   5.512  16.086  0.0154  0.2078 -0.0605
26200W        W42384   0.623  14.622   3.014  0.1203  0.0805  0.0302
26201W        W42385   9.647  14.186  12.744 -0.0960 -0.3064  0.0306
26202W        W42386   0.123  11.257  11.956  0.0427  0.3237 -0.2789
26203W        W42387  12.538   0.372   1.393  0.0293  0.0379 -0.1327
26204W        W42388   2.365  12.662   3.269  0.3089  0.1565 -0.0714
26205W        W42389  15.220  17.261   4.183  0.5059  0.2791  0.1016
26206W        W42390   1.181  13.010  14.707  0.0721  0.0346  0.0196
26207W        W42391  17.546   6.707   1.201  0.0826  0.2299  0.0388
26208W        W42392  16.096   6.658  15.360 -0.1337 -0.0765 -0.1235
26209W        W42393  18.494  18.238   1.098  0.0932  0.0274 -0.0511
26210W        W42394   2.647   5.599  11.534  0.1665  0.1874  0.0760
26211W        W42395   4.331   5.003  12.604 -0.0304 -0.1637  0.3763
26212W        W42396   6.894  10.935   1.578  0.1503 -0.0676 -0.3865
26213W        W42397   3.294   3.779   0.468 -0.0551 -0.1537 -0.0171
26214W        W42398   6.768  17.942   4.872  0.0199 -0.1213  0.0634
26215W        W42399  10.406   0.718   1.255 -0.0692 -0.0088 -0.0168
26216W        W42400   9.905  13.835   4.802  0.3661  0.0375 -0.0959
26217W        W42401  15.826   3.751  13.192 -0.0098 -0.1510  0.0471
26218W        W42402   9.458   2.596   4.663  0.0139 -0.1197  0.2562
26219W        W42403   6.309   0.734  15.302 -0.0916  0.2329  0.2794
26220W        W42404  14.505   9.563  12.042  0.1481 -0.2385 -0.3845
26221W        W42405  17.085  16.245  14.691 -0.0012  0.1011  0.0417
26222W        W42406   0.677   4.740  13.867 -0.0206  0.4524 -0.0823
26223W        W42407  10.109   7.859   1.129 -0.0213 -0.3495  0.0524
26224W        W42408   5.242   9.159   3.198 -0.2263 -0.0256  0.2487
26225W        W42409   3.991  14.314   0.529  0.4699 -0.1009  0.0389
26226W        W42410   1.941  10.506  11.462  0.0418  0.2131 -0.2012
26227W        W42411  16.749   6.435  12.686  0.1268  0.2917 -0.0915
26228W        W42412  18.215   0.729   1.442  0.2736 -0.2119  0.1901
26229W        W42413   9.935  17.357   4.064 -0.2280  0.1305  0.0487
26230W        W42414   1.887   7.443   1.789  0.0403  0.0432  0.0974
26231W        W42415   5.806   5.690  15.708 -0.0253 -0.0800 -0.0812
26232W        W42416   4.531  14.135   0.699  0.0485 -0.0686 -0.2734
26233W        W42417  10.789  15.831   4.570 -0.0927  0.1835 -0.2549
26234W        W42418   5.310  10.008   0.012  0.1115 -0.0752 -0.0761
26235W        W42419  13.237  10.019   0.478  0.2080 -0.0986  0.0818
26236W        W42420  13.878  15.796   3.428  0.2838  0.1674 -0.0374
26237W        W42421   8.194   4.869  11.873  0.0203 -0.0161 -0.0638
26238W        W42422   4.955   2.387  14.640 -0.0574 -0.2064 -0.0734
26239W        W42423   2.353  15.836  13.430  0.0136 -0.2409 -0.1213
26240W        W42424   3.952  10.471   4.981 -0.0682 -0.1099  0.1061
26241W        W42425   6.125  15.012   5.243 -0.0878  0.3367 -0.2907
26242W        W42426  11.780  18.052  15.285  0.2711 -0.0198  0.3248
26243W        W42427  12.730  17.010   0.452  0.3921 -0.1558  0.0996
26244W        W42428  14.038   2.665  11.177  0.2521  0.2080  0.4173
26245W        W42429   5.783   9.307   2.524 -0.0308  0.0062  0.1378
26246W        W42430  17.758  14.515   1.791 -0.0758  0.0081 -0.1797
26247W        W42431  15.991   4.511  14.471  0.1719  0.2675  0.0831
26248W        W42432   2.566   3.843   2.188  0.1141 -0.2033  0.0706
26249W        W42433   5.103   1.463   3.947  0.3452 -0.0660 -0.1933
26250W        W42434   7.844  15.250  13.355 -0.0377 -0.0410  0.0302
26251W        W42435   5.034   9.397  14.903 -0.0588  0.0720  0.0088
26252W        W42436  17.884   3.960   0.249 -0.2566  0.1350 -0.0847
26253W        W42437  14.074   9.011   1.244 -0.4393 -0.0307  0.0256
26254W        W42438  10.240  12.703  15.768  0.2581 -0.2018  0.3509
26255W        W42439   8.647   2.042   0.932  0.0174  0.1364 -0.3218
26256W        W42440   4.571  15.393  15.428  0.4095 -0.2597 -0.1551
26257W        W42441  10.621  10.630  12.799  0.2398 -0.0437  0.1708
26258W        W42442   2.045  17.678  11.077  0.2347  0.0743 -0.3938
26259W        W42443  14.657   7.134   2.053  0.0061  0.1690 -0.0474
26260W        W42444   0.704  16.444  12.033 -0.1651 -0.0671 -0.2532
26261W        W42445   8.046   8.422   1.849 -0.0265 -0.1454 -0.1771
26262W        W42446  11.096   9.280  15.954 -0.1441 -0.0530  0.0341
26263W        W42447  13.781   7.841   5.322  0.0621 -0.2020 -0.0878
26264W        W42448   7.412  14.613   4.733  0.0993  0.1911 -0.0707
26265W        W42449  12.821  12.407  13.264  0.2129  0.3592 -0.1299
26266W        W42450   8.961   2.476   0.971  0.0089  0.1707  0.1670
26267W        W42451   7.294  17.574   1.205  0.2280 -0.1004  0.2364
26268W        W42452   2.874   7.317   3.358 -0.1930  0.1860  0.1699
26269W        W42453   2.275   1.726  12.297 -0.2369  0.1254  0.1943
26270W        W42454  17.124  17.280   1.965 -0.1673 -0.3215  0.0276
26271W        W42455   2.246  11.238   5.751  0.0142  0.0716 -0.0565
26272W        W42456  15.049   8.531  15.776 -0.0603  0.0239 -0.1076
26273W        W42457  11.922   7.620  11.866  0.0835  0.0145  0.2188
26274W        W42458   3.125  11.516   0.808 -0.3863  0.2603 -0.1749
26275W        W42459  14.802  10.078  15.604 -0.1351 -0.1861  0.0144
26276W        W42460   4.636   8.961   1.978  0.1818 -0.0987  0.3334
26277W        W42461   3.395  11.078   0.718 -0.0677 -0.0045  0.1614
26278W        W42462   4.169   1.886   2.655 -0.0150  0.0589  0.1274
26279W        W42463   0.880   8.605   0.946 -0.0153  0.0128 -0.2727
26280W        W42464  10.204  18.038  14.617  0.2973 -0.0988  0.0082
26281W        W42465   5.009   6.147   4.895 -0.0214 -0.0956 -0.1973
26282W        W42466   7.498  18.477  14.395  0.0966 -0.1921 -0.0006
26283W        W42467  15.524  17.783  11.881  0.3667 -0.2751  0.1590
26284W        W42468   7.959   1.460  15.794  0.2889  0.0623  0.2901
26285W        W42469  12.630  13.634  14.067 -0.0022 -0.1601  0.2034
26286W        W42470   7.170   7.966  14.315  0.0313  0.0229  0.1248
26287W        W42471   0.971  16.856   5.480  0.0685 -0.1101  0.2673
26288W        W42472   5.825   5.564  10.985  0.2376 -0.0925  0.1103
26289W        W42473  13.635  16.059  15.530 -0.1850 -0.3234 -0.1954
26290W        W42474   9.620   8.458   3.467 -0.0257  0.0243 -0.3440
26291W        W42475  15.395   3.072  12.654 -0.1801 -0.1926  0.1360
26292W        W42476  13.073  10.821  11.460 -0.0701 -0.2699 -0.1689
26293W        W42477  13.566   1.723  13.020  0.4123  0.1607 -0.3581
26294W        W42478   7.153  17.074   6.021  0.0541  0.4484  0.3863
26295W        W42479   3.893  14.137   2.631  0.3857 -0.0027  0.0440
26296W        W42480   9.859   6.348   0.387  0.3675  0.0756 -0.3222
26297W        W42481   0.870  12.572   5.437  0.1328 -0.2828  0.0441
26298W        W42482   5.865   6.245  12.099 -0.1071 -0.0394  0.0642
26299W        W42483  14.852   4.267  12.232 -0.1981  0.0163  0.0400
26300W        W42484  12.795   9.416   4.158 -0.1388  0.1941 -0.1631
26301W        W42485   9.267  11.177  13.330 -0.0373  0.0500  0.0039
26302W        W42486  16.261   7.688  14.280 -0.1632  0.2366 -0.1236
26303W        W42487   4.816  16.099  15.917 -0.0025 -0.3092 -0.1148
26304W        W42488   3.379  10.197  15.041  0.1069 -0.2428  0.2138
26305W        W42489   3.975   2.313   3.984  0.2610  0.0511 -0.0441
26306W        W42490  14.515  15.915   1.695 -0.0162 -0.2130 -0.0485
26307W        W42491  13.694  12.231  14.222 -0.2894  0.2146 -0.1983
26308W        W42492   8.516   3.250   3.028  0.0360 -0.3127 -0.2926
26309W        W42493   4.545   1.794   4.716  0.3848 -0.0483  0.2963
26310W        W42494   4.660   3.744  11.790  0.2462 -0.0703 -0.2017
26311W        W42495  10.454   3.053  12.994 -0.3051 -0.1914 -0.2607
26312W        W42496   9.027  10.258  14.352 -0.1990  0.2106 -0.3851
26313W        W42497  11.258   0.221   5.288  0.1620 -0.0151 -0.2016
26314W        W42498   7.151   9.062   3.222 -0.0866  0.1592 -0.0187
26315W        W42499   9.322  15.676  14.367 -0.1033 -0.4445  0.1789
26316W        W42500  18.229   8.831   3.025  0.0014  0.1362 -0.2600
26317W        W42501   7.046  11.881  14.082 -0.2142  0.1399  0.0661
26318W        W42502  15.766   8.607  15.027  0.1985 -0.1408 -0.2052
26319W        W42503   3.636  15.115   4.735 -0.1392 -0.2648 -0.1669
26320W        W42504   3.494  10.837   1.193 -0.1253 -0.0615  0.1752
26321W        W42505  14.158  16.283  14.714 -0.1113  0.0117 -0.0175
26322W        W42506   9.783   6.712   0.726 -0.1368  0.4070  0.1119
26323W        W42507   2.456   3.160   1.495  0.0103  0.1001  0.3009
26324W        W42508   3.295   0.007   1.664  0.1740  0.0079  0.1982
26325W        W42509  10.302   6.601  15.784 -0.1042 -0.1484 -0.0088
26326W        W42510   4.010  10.518   3.602 -0.2773 -0.0165 -0.1701
26327W        W42511  16.338  17.202  12.748 -0.2029 -0.1560 -0.1802
26328W        W42512  12.128   0.203   4.724  0.1960 -0.2648  0.1321
26329W        W42513   4.973   7.998  11.650 -0.1580  0.1326 -0.2673
26330W        W42514   8.929   0.772  12.680  0.0646  0.0034  0.0350
26331W        W42515  15.112  11.709  14.025  0.0006 -0.0262 -0.0915
26332W        W42516  12.273  10.043   0.919 -0.1257  0.1247  0.5155
26333W        W42517  16.668   1.639  12.536 -0.2564  0.1277 -0.4833
26334W        W42518  18.459   2.691   0.585 -0.1838 -0.1495  0.1446
26335W        W42519   9.868  15.367  12.655 -0.0613 -0.1208  0.1139
26336W        W42520  14.996  12.172   0.630 -0.2076 -0.0750 -0.2213
26337W        W42521  12.015   7.159  15.312  0.1032 -0.2658  0.1829
26338W        W42522   3.754   8.401   2.560 -0.1021  0.0435 -0.0079
26339W        W42523   9.989  14.408  11.480 -0.0437  0.0515  0.1959
26340W        W42524   9.795   5.515  13.847 -0.1100  0.1418  0.0911
26341W        W42525  17.347  13.767   0.636  0.1795 -0.2316  0.3438
26342W        W42526   1.299   5.238  10.765 -0.1182  0.3965 -0.1218
26343W        W42527   7.367   6.687   6.130 -0.1768 -0.1923  0.5121
26344W        W42528  10.383   4.273   0.286 -0.1791  0.2031  0.0237
26345W        W42529   4.314   1.321   1.432 -0.1451  0.1792  0.1137
26346W        W42530  13.071   5.061   5.997 -0.0637 -0.4272  0.2040
26347W        W42531  17.032   3.999  14.690 -0.0014 -0.0463  0.0380
26348W        W42532  16.459   1.249  11.478  0.4537  0.0458 -0.0837
26349W        W42533   1.597   1.278  12.618 -0.1140 -0.0147  0.1082
26350W        W42534   3.631   4.475   4.768 -0.2648  0.0677 -0.3010
26351W        W42535   0.100   3.487  14.794 -0.2488  0.0658 -0.0639
26352W        W42536  16.463  13.634  11.825 -0.2607 -0.2412 -0.1863
26353W        W42537  13.942  16.315  14.237  0.5698 -0.0576 -0.0359
26354W        W42538  17.546  18.388  14.526 -0.1506  0.0530 -0.0198
26355W        W42539   9.977  14.900   0.023  0.2860 -0.0095 -0.0499
26356W        W42540   3.972   5.819  15.374 -0.0241 -0.4371  0.0590
26357W        W42541   4.928   6.951   3.365 -0.0340  0.0676 -0.1796
26358W        W42542   1.143   0.261  10.716  0.0501  0.2029  0.3300
26359W        W42543   7.684  14.548  13.704 -0.0422  0.2769  0.0431
26360W        W42544   3.394  16.841  12.130 -0.0389 -0.0336  0.2575
26361W        W42545  14.943   7.064   0.520  0.2070  0.1614 -0.4615
26362W        W42546  12.708   0.642  13.122  0.2200  0.0096  0.0274
26363W        W42547   2.963   9.303   5.363  0.1385  0.3769 -0.1881
26364W        W42548   3.946  11.444  12.866 -0.0711  0.2374 -0.0225
26365W        W42549  16.561   6.575  13.243  0.0966  0.0282 -0.1087
26366W        W42550  13.197   7.642  15.648 -0.0912 -0.0697  0.0400
26367W        W42551   1.005   3.561  15.473 -0.0679  0.3536  0.1875
26368W        W42552   8.764   5.851   1.964 -0.2834  0.4604 -0.0218
26369W        W42553  14.216   3.056  15.594  0.3165 -0.1364 -0.1442
26370W        W42554  16.789   2.158  13.359 -0.1852  0.0594  0.3141
26371W        W42555  10.552  15.829   3.208  0.1584  0.0910  0.2687
26372W        W42556   7.699  10.055   4.540 -0.0023  0.0255  0.2671
26373W        W42557  10.655  11.956   1.056  0.1245  0.0333 -0.2483
26374W        W42558   1.309   1.152  12.128 -0.2193 -0.1260 -0.0591
26375W        W42559   5.078  18.345   5.707  0.1656  0.3997 -0.0966
26376W        W42560  14.558  11.929   3.553 -0.1728  0.1072 -0.2216
26377W        W42561   7.318  15.927  12.150  0.0872  0.1136  0.1858
26378W        W42562   2.685  10.459  15.566  0.1584  0.0721 -0.0502
26379W        W42563   4.951   1.003  15.780 -0.0698 -0.0658 -0.1197
26380W        W42564  10.350   2.721   3.383  0.3494 -0.0149 -0.2125
26381W        W42565   8.780   9.114  12.485  0.2379  0.1575 -0.0247
26382W        W42566   2.353  15.454  10.927 -0.2674  0.3030 -0.2496
26383W        W42567  10.205   2.800   5.939  0.2170  0.0332  0.2017
26384W        W42568  17.159   7.036   0.945  0.1655 -0.0339  0.1040
26385W        W42569  16.539  10.893   4.867 -0.2228 -0.0098 -0.0971
26386W        W42570  14.778  16.760  11.148  0.0315  0.0185 -0.0703
26387W        W42571   3.563   0.182   4.636  0.0953 -0.0343  0.4495
26388W        W42572   0.562   8.143   2.754  0.0924 -0.1050  0.0819
26389W        W42573  16.954   0.375  11.345 -0.2589 -0.1190  0.1239
26390W        W42574   7.251  16.462   2.124 -0.0035  0.4917  0.0967
26391W        W42575   6.224   2.255  11.596 -0.0102 -0.1080 -0.0071
26392W        W42576   6.979  13.259  12.327  0.0672 -0.0535 -0.0395
26393W        W42577   9.204  18.338  13.182  0.1191 -0.2834 -0.3534
26394W        W42578  15.981   5.367  14.031 -0.1143 -0.0151  0.0556
26395W        W42579   1.150   7.928   1.357 -0.1868  0.1119  0.3449
26396W        W42580   4.053  11.796   3.998 -0.0118 -0.0290 -0.2455
26397W        W42581   3.690   9.039   4.764 -0.1238  0.1728  0.1660
26398W        W42582  15.720   1.744   4.216 -0.3326 -0.0653 -0.1070
26399W        W42583   7.598   9.209   4.346  0.2909 -0.0934  0.1677
26400W        W42584   4.415  17.851   3.869  0.2174 -0.2553  0.1523
26401W        W42585   0.756   6.704   4.998  0.0390 -0.2485  0.1474
26402W        W42586   6.117  15.503   2.420  0.3230 -0.1040 -0.5520
26403W        W42587  11.232   1.146  12.831 -0.0769 -0.1065  0.1199
26404W        W42588   8.723   6.548   3.846 -0.3260 -0.0852 -0.0689
26405W        W42589  13.108   3.010   2.120  0.1557  0.1394 -0.1259
26406W        W42590   1.864  12.821   4.995 -0.2078 -0.0790 -0.4379
26407W        W42591  11.600   0.204  12.713  0.0734  0.1172  0.1485
26408W        W42592   7.058   6.961   3.384 -0.0856 -0.4281  0.0335
26409W        W42593   5.613   2.038  10.585 -0.4120  0.0614 -0.1149
26410W        W42594   8.442   9.594   0.430  0.1578 -0.0275 -0.0256
26411W        W42595   4.070  16.987   4.738 -0.0934  0.1809 -0.2762
26412W        W42596   5.966   5.555   1.401 -0.0195 -0.0275  0.0373
26413W        W42597  11.879  17.961   4.322  0.0161 -0.0037  0.0979
26414W        W42598   4.372   9.429  13.555 -0.2101  0.0518 -0.0302
26415W        W42599   7.669   3.377  16.026 -0.0852  0.0879 -0.0813
26416W        W42600  15.428  15.918  11.941  0.1235 -0.1525 -0.1225
26417W        W42601   8.537   5.021   4.885  0.0798  0.0630 -0.0334
26418W        W42602   1.500  16.438   5.439 -0.0497  0.1954  0.2953
26419W        W42603  15.164   7.762   2.088 -0.0217 -0.2081  0.0115
26420W        W42604   2.401   0.459   1.275  0.0125  0.2157  0.0557
26421W        W42605   1.467   2.916   5.064 -0.1300  0.1394 -0.1053
26422W        W42606   0.879  13.374   5.163  0.1306  0.0121  0.4892
26423W        W42607   2.007   6.944   0.504  0.3123 -0.0016 -0.0809
26424W        W42608  11.228  18.223  12.349  0.1007 -0.1159 -0.0776
26425W        W42609  13.389   4.353   4.159  0.0895  0.0346  0.1655
26426W        W42610  11.731  10.737   2.986  0.0502  0.1879  0.2731
26427W        W42611  15.263  15.086  11.191  0.2157  0.2061 -0.1957
26428W        W42612   6.771   0.660  15.954 -0.1626 -0.1002  0.2600
26429W        W42613   2.089   5.133  13.465 -0.1063 -0.0306  0.2264
26430W        W42614  10.190  16.598   2.735  0.2886 -0.1467 -0.2742
26431W        W42615  12.882   1.931   5.926  0.1614 -0.2225 -0.0854
26432W        W42616   1.273  17.924   3.937  0.0759  0.1530  0.3634
26433W        W42617  11.662  11.339  13.268 -0.0792 -0.3251 -0.1306
26434W        W42618   4.672   3.951   0.662  0.0301  0.0965  0.0453
26435W        W42619  16.755   2.560  10.985  0.0590 -0.2207 -0.2227
26436W        W42620  13.512   7.113  14.399  0.2487 -0.3310  0.0096
26437W        W42621   2.398   2.064  12.682  0.3001  0.3517  0.0403
26438W        W42622   8.148  10.705   4.135  0.2412 -0.0455  0.1997
26439W        W42623  15.733  10.000   4.597 -0.0848 -0.0718  0.2612
26440W        W42624   3.252   4.299   9.739 -0.0357  0.1161  0.0413
26441W        W42625   5.317   0.781   2.166 -0.2181 -0.1592 -0.1963
26442W        W42626   9.113   8.707   0.955 -0.1545  0.0421  0.0079
26443W        W42627   9.407   6.846  12.267 -0.0314 -0.2284  0.0670
26444W        W42628   7.419  15.610  15.254  0.1801  0.0285  0.2032
26445W        W42629   5.513   1.958   4.757  0.0325  0.1400  0.0004
26446W        W42630  16.385  14.486   1.393 -0.1071  0.0539 -0.1384
26447W        W42631   7.314  16.416   4.972 -0.1869  0.2189 -0.0275
26448W        W42632   5.854   2.386  13.086 -0.3690 -0.4893 -0.0155
26449W        W42633   5.168   6.907  14.293  0.0160  0.0615 -0.0329
26450W        W42634  13.402  15.349   1.808 -0.3803 -0.0707  0.0799
26451W        W42635   0.398   1.161  12.109  0.0871 -0.1577  0.0459
26452W        W42636   4.877  18.080  12.304  0.0950 -0.1942  0.3713
26453W        W42637  14.929  13.982  15.096  0.2091  0.0788 -0.1854
26454W        W42638  13.319   5.046  11.658  0.0335  0.1567  0.3185
26455W        W42639   5.532   6.356  13.023 -0.3252  0.0234 -0.1593
26456W        W42640   0.594   5.740   2.094  0.0585 -0.0732  0.2860
26457W        W42641   2.942   8.494  13.134 -0.0904 -0.1196 -0.1475
26458W        W42642  11.912   1.789   3.933 -0.1450 -0.1793  0.3174
26459W        W42643   5.073   3.693  12.599  0.0801  0.2336  0.0477
26460W        W42644  16.061   7.220   0.487  0.0163 -0.0353 -0.1494
26461W        W42645   1.505  11.324   0.382 -0.0407  0.1777 -0.1851
26462W        W42646   8.448   9.111   0.394 -0.0605  0.0268 -0.3110
26463W        W42647  11.216  17.787   0.422 -0.1691  0.1428  0.2892
26464W        W42648   8.231  15.767   2.801  0.0509  0.0261  0.0061
26465W        W42649   3.373  15.502   4.523 -0.0568 -0.2138  0.1660
26466W        W42650   2.988  13.953  15.234  0.2164 -0.2128  0.0922
26467W        W42651  16.125   0.508   2.264 -0.0069  0.1829  0.1870
26468W        W42652   1.076   6.771   3.264 -0.0808  0.2047 -0.0626
26469W        W42653   8.814   3.042   4.897  0.3848  0.0640  0.0279
26470W        W42654   1.934   8.282   3.787 -0.3731  0.0099  0.0869
26471W        W42655   3.774  15.551  15.798  0.2121  0.1408  0.1534
26472W        W42656  10.619  17.006   3.938 -0.0144 -0.2067  0.0510
26473W        W42657  11.837   1.827   1.407  0.2209  0.4249 -0.0238
26474W        W42658   4.682   1.949  14.454 -0.1176 -0.0325 -0.2092
26475W        W42659  17.060   8.572  15.465 -0.0898 -0.1123 -0.0561
26476W        W42660   8.505   7.436   5.626 -0.2373  0.0342  0.0258
26477W        W42661  14.791  16.576   4.800  0.0018  0.2811  0.0976
26478W        W42662  15.619  10.731   1.689  0.3241  0.3910 -0.0432
26479W        W42663   8.106   1.619  14.516  0.0274 -0.1975  0.0404
26480W        W42664  15.683  10.317   4.186 -0.0527  0.6086 -0.0227
26481W        W42665   3.652  16.551   2.541 -0.0803 -0.0125 -0.2576
26482W        W42666  18.294   4.900   6.113 -0.1115 -0.1065  0.0206
26483W        W42667   5.661  15.949  14.084 -0.2670  0.0050 -0.1482
26484W        W42668   6.499  15.574  11.853  0.2794  0.0959 -0.2755
26485W        W42669   7.288  18.416  12.868  0.3241  0.2137  0.2524
26486W        W42670  13.051   2.664   3.202 -0.1612 -0.0801 -0.3570
26487W        W42671   9.707   0.716  11.196 -0.3288 -0.0180 -0.1117
26488W        W42672   2.287   8.241   5.767 -0.2683  0.0570  0.1578
26489W        W42673   0.361  14.821  15.047  0.1538 -0.1205  0.0750
26490W        W42674   2.670   6.169  11.431  0.3049  0.1825  0.2375
26491W        W42675  17.403  11.286   5.304  0.0263  0.2708  0.1302
26492W        W42676   7.264   1.536  13.427 -0.1824 -0.2414 -0.1970
26493W        W42677  12.476   7.565  11.845  0.3758 -0.3362  0.1207
26494W        W42678   8.315   2.219  12.146  0.2234 -0.0151  0.3056
26495W        W42679   2.868   6.394   4.527 -0.3846 -0.0072 -0.1201
26496W        W42680  14.357   2.401  14.782 -0.3138  0.2552 -0.0600
26497W        W42681   4.560  10.502  14.551 -0.0768 -0.0182  0.1576
26498W        W42682   9.697   9.004   4.835  0.0246  0.5535 -0.0098
26499W        W42683   5.149   1.844  10.691 -0.0765 -0.3675 -0.0287
26500W        W42684   9.944   1.866  11.684 -0.0005 -0.0643 -0.2421
26501W        W42685  16.947  16.011  15.863 -0.2816  0.0799 -0.3400
26502W        W42686   6.260  13.811  12.306  0.1472  0.2302 -0.0287
26503W        W42687  11.442   8.639   0.837 -0.2020 -0.1689 -0.2907
26504W        W42688  15.453   8.415  15.397 -0.0160 -0.1182  0.3255
26505W        W42689  13.417   1.753  12.521  0.0266 -0.3773 -0.1255
26506W        W42690   3.502  11.305  12.124 -0.1362  0.1084 -0.1074
26507W        W42691   8.016  10.292  16.094  0.3332  0.3548  0.3805
26508W        W42692   8.150   5.628  13.062 -0.0349 -0.4048 -0.0875
26509W        W42693  17.408   1.524   9.477  0.0878 -0.0212 -0.1424
26510W        W42694   1.630  17.027  14.933  0.0493  0.0844 -0.2571
26511W        W42695  11.454   3.219   4.294 -0.1672 -0.1134  0.1260
26512W        W42696   1.723  14.572   2.756 -0.0053  0.0549  0.0595
26513W        W42697  17.701  11.344   0.785  0.1520 -0.2107 -0.1748
26514W        W42698  17.987   3.864  15.576 -0.0932 -0.0067 -0.3248
26515W        W42699   1.938   8.485  13.914  0.2120 -0.4867 -0.0039
26516W        W42700   0.947   2.815  11.189 -0.3707 -0.2132 -0.4356
26517W        W42701   5.485   0.660  13.553  0.0020 -0.3209 -0.0327
26518W        W42702   7.531  16.470   1.640 -0.0474  0.1998  0.0448
26519W        W42703   2.128  13.120  13.603 -0.2114  0.0807 -0.0034
26520W        W42704   3.881   6.262  13.168  0.0448  0.1217 -0.2122
26521W        W42705  13.398  16.402   2.752  0.2497  0.0274 -0.0419
26522W        W42706  11.728   8.985  15.075  0.2053  0.0175  0.3035
26523W        W42707  14.018  10.346   3.248 -0.1305 -0.2417 -0.1850
26524W        W42708   4.449   1.042  11.424  0.0725 -0.0028 -0.0683
26525W        W42709  15.642   4.615   5.203  0.2473  0.0834  0.0790
26526W        W42710   7.682   6.624  13.776  0.0069  0.0596 -0.0003
26527W        W42711   4.716  13.579  11.290 -0.1470  0.1288  0.2427
26528W        W42712  16.767   4.731   5.287  0.2495 -0.1990 -0.0657
26529W        W42713  18.464   2.160   2.803 -0.2538  0.1781 -0.1161
26530W        W42714   3.139  16.623  13.206 -0.0786 -0.1116 -0.1709
26531W        W42715  10.555   3.339  13.683 -0.2746  0.1316  0.0252
26532W        W42716   1.121   5.554  11.108  0.0400  0.3348 -0.0243
26533W        W42717   4.586   4.589   4.917  0.1475  0.0223  0.1754
26534W        W42718   8.304  14.536   0.424 -0.3740  0.2550 -0.1080
26535W        W42719  13.304  16.534   3.967 -0.1247  0.0486  0.0284
26536W        W42720  13.652  10.239   4.869  0.0068  0.2455  0.0095
26537W        W42721   2.183  11.672  11.175  0.0829 -0.2765 -0.2751
26538W        W42722  18.314  10.543  11.382  0.2365  0.2505  0.3438
26539W        W42723   7.059   3.550  11.055 -0.1523 -0.1101  0.1716
26540W        W42724  16.942   2.438   1.483  0.1627  0.0879  0.1960
26541W        W42725  15.079   0.426   3.203  0.0035 -0.0028 -0.1216
26542W        W42726   0.997   0.337  11.209  0.1534 -0.4017  0.2377
26543W        W42727  12.292   3.248   4.483  0.0508  0.2566 -0.4065
26544W        W42728   7.997   4.315  14.659  0.3378 -0.1410  0.3051
26545W        W42729   4.984   9.945   0.637  0.0217 -0.2090 -0.0564
26546W        W42730  18.240   3.499   1.303  0.1466  0.1582 -0.2297
26547W        W42731   1.759   7.339   4.182  0.1771 -0.0582 -0.1208
26548W        W42732  11.000   9.740   4.299  0.2340  0.0488  0.0346
26549W        W42733  11.957   0.509  13.430 -0.0434  0.1934 -0.0215
26550W        W42734  15.325  14.428   3.418  0.0832 -0.1515  0.1780
26551W        W42735   3.666   2.924   0.916  0.0827  0.1828 -0.0738
26552W        W42736  13.744   6.598  14.322 -0.0189 -0.3024  0.1411
26553W        W42737  15.648  11.927  13.059 -0.1667 -0.1797  0.1463
26554W        W42738   5.213   3.269   5.431  0.2218 -0.1131  0.0155
26555W        W42739  10.528   6.747   2.412  0.3159  0.1231 -0.1548
26556W        W42740  12.413  11.371   5.716  0.2912  0.0112  0.0692
26557W        W42741  18.208  13.905   2.947 -0.0480  0.2093 -0.0518
26558W        W42742   8.640   9.530  14.873  0.1224  0.0996  0.0790
26559W        W42743  18.463  13.333  12.602 -0.2059 -0.1507 -0.0132
26560W        W42744   5.668  12.073   0.635  0.0522 -0.1209  0.2753
26561W        W42745   4.398  11.512   4.331 -0.0205 -0.1420 -0.0831
26562W        W42746   8.500   4.544   4.896  0.0055 -0.0063 -0.0226
26563W        W42747   1.623   1.262   1.251 -0.1167  0.0377  0.1308
26564W        W42748   7.095   2.296   3.543  0.1018  0.1122 -0.3864
26565W        W42749   8.082  14.621  15.973  0.1474  0.2419  0.3173
26566W        W42750   5.259   3.059  12.475 -0.1409  0.1635  0.2131
26567W        W42751   2.519   8.552   1.346 -0.0327 -0.1629  0.2735
26568W        W42752   2.589  13.888   1.359 -0.2713  0.0265  0.2328
26569W        W42753  15.313  10.915  13.389 -0.1385  0.0686 -0.1165
26570W        W42754  18.328  12.825   5.224 -0.1170  0.0586 -0.3028
26571W        W42755  18.471   9.909  12.171 -0.0940 -0.1527 -0.2342
26572W        W42756   4.869   8.518  11.660 -0.0550 -0.0741 -0.0315
26573W        W42757  13.722  16.092  11.997  0.1576  0.0617 -0.1854
26574W        W42758  11.187  17.448   0.790  0.0929  0.3413  0.3690
26575W        W42759   3.659  14.239  14.693  0.2081  0.3511 -0.2226
26576W        W42760  11.805   8.181  12.088 -0.0378  0.3132  0.0874
26577W        W42761   1.738   3.860  15.374  0.0438  0.0958  0.0856
26578W        W42762  15.038   3.746   2.572  0.1904 -0.0337  0.0688
26579W        W42763  16.740   1.481  15.856  0.1137  0.1033  0.2037
26580W        W42764   4.892   1.625  14.818  0.1757  0.2267  0.0166
26581W        W42765   4.187  12.613  13.777  0.2083  0.0779 -0.1017
26582W        W42766  11.274   4.419  16.097 -0.2661 -0.2791  0.0579
26583W        W42767   9.440   2.440  11.407 -0.0416  0.1708  0.3781
26584W        W42768   1.551   1.981   3.467 -0.2443 -0.0866 -0.2104
26585W        W42769  16.652  13.576  15.066  0.1385 -0.0732  0.3148
26586W        W42770  11.544   8.466   2.888  0.1428 -0.0334 -0.1065
26587W        W42771   5.051   3.447  14.285  0.2022 -0.0373  0.0747
26588W        W42772   1.903   8.626   0.631 -0.1344 -0.2525 -0.0149
26589W        W42773   4.260  11.988  13.721  0.1913 -0.2473  0.2323
26590W        W42774  17.940   1.223  11.769 -0.1445 -0.0243  0.0136
26591W        W42775   1.798   5.445   4.378  0.0225 -0.1949  0.0873
26592W        W42776   5.136  11.506  14.440 -0.3817  0.2592  0.1566
26593W        W42777  15.196  17.271  11.754  0.0833  0.2127 -0.0933
26594W        W42778  17.018  17.807   9.537  0.0405  0.3539  0.0356
26595W        W42779  18.391  14.524   2.071 -0.3182  0.0384 -0.1438
26596W        W42780   4.768  15.970  12.619  0.0681 -0.0251  0.0237
26597W        W42781   7.782   1.090   1.520 -0.3377  0.1602  0.2087
26598W        W42782  15.066  12.790   4.239  0.0195 -0.1971  0.0497
26599W        W42783   6.482  10.319  11.846  0.1277 -0.3558 -0.3287
26600W        W42784  14.039   4.347   3.700 -0.2129 -0.3682  0.0065
26601W        W42785  10.033   9.955  11.608 -0.1763  0.1138 -0.3150
26602W        W42786  17.902  12.138  11.004  0.0120 -0.3646 -0.1999
26603W        W42787   6.441  10.082   1.269  0.0418  0.2759  0.0465
26604W        W42788   4.614   1.482  11.415  0.0269 -0.0996 -0.1239
26605W        W42789   9.489  14.667  11.545 -0.0997  0.2943 -0.0379
26606W        W42790  12.499  16.684  15.792  0.1231  0.2447 -0.0344
26607W        W42791  14.147   2.320   3.708  0.1333  0.2288  0.1632
26608W        W42792   4.967   9.306   1.764 -0.0320  0.0587  0.0377
26609W        W42793  10.909   5.269  12.808 -0.0993 -0.0521  0.2333
26610W        W42794   2.319  17.829  15.432 -0.0106  0.1067  0.1229
26611W        W42795  18.148   7.416   5.224  0.1605  0.0583 -0.3897
26612W        W42796   1.219  16.059   2.225 -0.0403  0.2082  0.0016
26613W        W42797  10.018  14.966   5.640  0.0604  0.0315  0.2037
26614W        W42798  11.444   8.484  12.470  0.1153 -0.3013 -0.0660
26615W        W42799   6.078   0.152  13.930 -0.0868  0.0676 -0.1745
26616W        W42800   7.959  10.914   1.888  0.0316  0.0820  0.2607
26617W        W42801   5.757  10.579  15.421  0.1726 -0.1275  0.0407
26618W        W42802  16.521  15.792   1.617 -0.1586  0.3061  0.0724
26619W        W42803  10.243   2.057  13.547 -0.0096 -0.1658 -0.3058
26620W        W42804   8.802   0.596   6.287  0.0281  0.3152  0.4136
26621W        W42805   1.271   6.237   1.476  0.1032 -0.1256 -0.1026
26622W        W42806  11.816  10.207   1.107 -0.3132 -0.0990  0.1264
26623W        W42807   9.806  11.621  12.597  0.2633  0.3142  0.1143
26624W        W42808   6.578  16.704   4.129 -0.4021 -0.0495 -0.1947
26625W        W42809  12.539  16.588  10.905 -0.1370 -0.2392  0.3458
26626W        W42810   0.613   7.548  13.258 -0.2870  0.2803 -0.2840
26627W        W42811  12.585   1.206  13.481  0.0010  0.2471  0.0040
26628W        W42812   6.686   7.736  15.137  0.1492  0.1617 -0.1061
26629W        W42813   5.398  14.447   1.124 -0.0770  0.3080  0.0444
26630W        W42814  14.858  16.993   5.066 -0.0162 -0.1215 -0.0241
26631W        W42815  17.015   8.715   3.530 -0.1097  0.2860 -0.1424
26632W        W42816  13.488  14.833   2.062 -0.0685 -0.0631 -0.2133
26633W        W42817   2.494  14.445  11.829  0.0668  0.0631  0.0619
26634W        W42818  14.052   1.430  10.933  0.1403 -0.1601  0.1868
26635W        W42819  17.061   6.774   6.313  0.1269  0.2273  0.0250
26636W        W42820  13.318   2.093   5.622 -0.3054  0.1319  0.2827
26637W        W42821  12.764   9.931   4.443  0.0937 -0.0465 -0.1963
26638W        W42822   3.351  10.772  15.223 -0.2474 -0.0671 -0.1096
26639W        W42823   8.282  14.202  15.807  0.0652 -0.0306 -0.0739
26640W        W42824   9.928   3.388   2.842  0.2285  0.0817 -0.1180
26641W        W42825  10.933   5.091  11.607 -0.1431  0.1523 -0.2655
26642W        W42826  15.632   9.446  14.330  0.2913  0.0074  0.1331
26643W        W42827  14.871   6.108   4.882 -0.0877  0.3814  0.1503
26644W        W42828  10.309  13.777   2.616  0.0380 -0.1187  0.0118
26645W        W42829  15.827   9.938  14.733 -0.0004 -0.3621 -0.1909
26646W        W42830  14.566   6.669   1.348 -0.2850 -0.0629 -0.2139
26647W        W42831   1.482   1.974  14.007 -0.0594 -0.1726  0.2258
26648W        W42832  17.480   6.834  14.821  0.0770  0.4455  0.0439
26649W        W42833  14.651   0.139  12.965  0.3074  0.1392  0.4120
26650W        W42834  10.563  13.088  12.213  0.0215  0.5565 -0.2220
26651W        W42835   0.484  13.252  13.590 -0.1243  0.2332 -0.2555
26652W        W42836   4.756  11.716   4.736 -0.0421  0.1227  0.0530
26653W        W42837   0.966  16.590   0.994 -0.3238  0.0519 -0.1955
26654W        W42838   2.421   1.964   2.025 -0.2522  0.0737  0.1114
26655W        W42839  15.210   0.904   3.273  0.0341  0.2621 -0.0737
26656W        W42840   9.887   9.041   2.476  0.0128  0.0744  0.1135
26657W        W42841  12.171  15.986   6.010  0.2304 -0.1539 -0.2741
26658W        W42842   9.983  16.517  13.181 -0.1136 -0.1007 -0.1742
26659W        W42843   3.800   8.358  14.746 -0.0784  0.3868 -0.1656
26660W        W42844   9.711  12.713  15.645  0.1336  0.1245  0.0828
26661W        W42845   6.109   3.756   4.093  0.1444 -0.1961 -0.2623
26662W        W42846   1.304  14.473  12.868 -0.2427  0.0269  0.1153
26663W        W42847   3.341   0.427   2.999  0.1672  0.1575  0.1308
26664W        W42848  16.913   0.164  12.925  0.1609 -0.0041 -0.2153
26665W        W42849  11.481  17.850   1.642 -0.0957  0.2390  0.0050
26666W        W42850  12.808   4.130  11.568  0.1411 -0.1362  0.0265
26667W        W42851  15.177  17.072  11.250  0.0098 -0.1066 -0.1215
26668W        W42852   7.983   1.228   3.964 -0.2358  0.2071  0.1437
26669W        W42853  16.271   1.216  14.460  0.2243 -0.1139  0.0089
26670W        W42854   6.002  12.387  13.456 -0.0032  0.0032  0.4759
26671W        W42855   5.094   3.027   2.011  0.1779 -0.2707 -0.0867
26672W        W42856   8.391  16.289  15.929 -0.3371 -0.0090  0.2007
26673W        W42857  16.990  17.448  11.401 -0.1129 -0.2722  0.1979
26674W        W42858  15.281  10.985  13.893 -0.0690  0.2112  0.0715
26675W        W42859   8.742   4.936  12.665  0.2343  0.2001 -0.0433
26676W        W42860   2.808  14.774  14.459  0.2875 -0.1803  0.0562
26677W        W42861  12.342   3.296  13.161 -0.0122 -0.3125  0.1719
26678W        W42862   6.685  12.961   1.022  0.1605  0.0399 -0.1674
26679W        W42863   5.373   5.243  13.997 -0.0408  0.1168 -0.2352
26680W        W42864   8.016   3.708  15.912  0.3226 -0.2814 -0.0883
26681W        W42865  18.224  16.695  13.793  0.2635 -0.0265 -0.2640
26682W        W42866   0.911   3.612  11.511  0.1676 -0.0289 -0.1153
26683W        W42867  14.675  17.676   1.149 -0.1805 -0.3512  0.0248
26684W        W42868   5.373   6.137  11.459 -0.1308 -0.0558 -0.2014
26685W        W42869   0.573   9.636   0.202 -0.1582 -0.2960  0.2598
26686W        W42870   9.861  15.224   4.667  0.1422 -0.0129 -0.1207
26687W        W42871  14.419  12.187  13.630 -0.0815 -0.2012  0.1715
26688W        W42872   6.812   7.265  12.305 -0.0163 -0.1830 -0.0073
26689W        W42873   2.840   1.867   3.779  0.0509  0.1160 -0.2020
26690W        W42874   1.503   2.624   1.108 -0.0448 -0.0074  0.4157
26691W        W42875   8.545  11.541  13.734 -0.0865  0.3429 -0.1601
26692W        W42876  17.084   7.106  15.608 -0.4110  0.1653  0.0263
26693W        W42877   7.858   0.232  15.113  0.1437  0.0373  0.0215
26694W        W42878   0.266   5.727   0.862 -0.0078  0.0946  0.2341
26695W        W42879   0.949  11.951   2.413 -0.1999 -0.3273 -0.3564
26696W        W42880  14.486  11.820   5.268  0.1062 -0.0930  0.0976
26697W        W42881   9.069   3.806   5.942  0.2895  0.0132 -0.1447
26698W        W42882  16.987  14.265   4.414 -0.1930 -0.1063  0.1074
26699W        W42883  11.004  13.224   2.180  0.2725 -0.2418  0.1687
26700W        W42884  15.127  14.746   2.267  0.1356  0.0486  0.3108
26701W        W42885  12.960  12.149  14.869  0.2311 -0.2642  0.2908
26702W        W42886   5.314  14.925   1.466  0.0392  0.2124 -0.1793
26703W        W42887  17.131   5.185   3.685  0.2308  0.2868  0.1874
26704W        W42888  18.297  12.045   0.018  0.2577  0.0436  0.0409
26705W        W42889   4.981   2.504  12.369  0.1633  0.4064  0.1064
26706W        W42890   9.935   6.050  15.977  0.0028 -0.0355 -0.2664
26707W        W42891  17.897  12.804   4.297 -0.2869  0.3088 -0.0374
26708W        W42892   0.410   9.667   5.174 -0.1219 -0.4821  0.2638
26709W        W42893  17.613   0.063   5.454  0.4066 -0.0511 -0.1378
26710W        W42894  16.245   3.172   2.183  0.0987 -0.0614 -0.1156
26711W        W42895  13.300  17.060  11.656 -0.1589  0.2043  0.0610
26712W        W42896  16.166   5.932   1.227 -0.0975 -0.0508  0.1077
26713W        W42897  12.404  11.169   1.163 -0.0302  0.3266  0.5019
26714W        W42898  11.919  14.666   2.866  0.1735 -0.0354 -0.3811
26715W        W42899  10.172   3.714  11.608 -0.0552  0.1372 -0.2035
26716W        W42900   0.085  15.321  13.567  0.1066  0.2541 -0.2947
26717W        W42901   9.211   3.926   4.351 -0.0695 -0.2549  0.0361
26718W        W42902   5.467  10.169  15.543  0.0143  0.0625  0.1359
26719W        W42903   8.395   1.660   1.161 -0.1230  0.0717  0.1511
26720W        W42904  18.374   2.782   4.291 -0.3419 -0.3705  0.1310
26721W        W42905   7.660   0.597   1.241 -0.1718  0.0522  0.0628
26722W        W42906  12.269  14.364  11.411  0.0444 -0.0433 -0.2821
26723W        W42907   7.965   9.284   2.680 -0.0826 -0.1587 -0.0147
26724W        W42908   7.734  18.167   3.963 -0.0509  0.3245  0.0800
26725W        W42909   3.461   0.725  12.177  0.1142 -0.2861  0.0057
26726W        W42910  10.073   9.852   2.317 -0.0109  0.1334 -0.1180
26727W        W42911   3.459  14.521  11.829 -0.0186  0.1230 -0.0684
26728W        W42912   7.669  10.697  12.471 -0.0280  0.2481  0.0346
26729W        W42913   9.747   9.574  15.499 -0.1396  0.1770 -0.2560
26730W        W42914   7.675  14.751   1.375 -0.0922  0.1649 -0.2418
26731W        W42915  13.624   7.335   0.361  0.0397 -0.1629  0.5149
26732W        W42916   3.647   7.468  15.569  0.1982  0.1971 -0.2517
26733W        W42917  17.631  12.870   5.717  0.1895  0.3993  0.1030
26734W        W42918  10.829   6.370  11.424  0.1243  0.2755 -0.0972
26735W        W42919   4.495   4.071  13.857 -0.1058  0.0404  0.3014
26736W        W42920   7.278  16.863   3.693 -0.0640 -0.3869 -0.2068
26737W        W42921  17.554   1.518  11.403 -0.1819  0.3364  0.2030
26738W        W42922  12.376   4.570   2.893  0.0836  0.3430 -0.3880
26739W        W42923  12.256  16.778   3.144  0.1677  0.1772 -0.0932
26740W        W42924   5.317  10.979  13.740 -0.1915  0.2073 -0.0549
26741W        W42925   9.211   5.361  14.751  0.0877 -0.0094 -0.0000
26742W        W42926  10.925   0.924   3.813 -0.0678  0.0227  0.1280
26743W        W42927   8.652  14.403  11.932 -0.1250 -0.3504 -0.3799
26744W        W42928   5.554   7.095  15.557  0.1520 -0.0739  0.0764
26745W        W42929  14.401   7.184  11.947 -0.1567 -0.2561  0.0856
26746W        W42930   7.632   5.256   2.090  0.1181  0.1971 -0.0670
26747W        W42931  10.421  10.765  13.711 -0.0340 -0.0510  0.2184
26748W        W42932  15.354   1.626   2.067  0.1462  0.1382  0.2118
26749W        W42933  15.672   7.531   1.858  0.0196 -0.3522 -0.0025
26750W        W42934   5.187   6.608   3.652  0.1389  0.0293  0.2251
26751W        W42935   9.311   0.416   5.393 -0.1751  0.0546 -0.1808
26752W        W42936  14.796   1.325   1.425  0.2373 -0.0791 -0.5499
26753W        W42937   3.030   7.990  14.645  0.0083  0.0927 -0.1795
26754W        W42938   4.181  14.684   1.454 -0.0938 -0.1003 -0.1146
26755W        W42939   2.983   7.700   1.280 -0.0853 -0.3204  0.1213
26756W        W42940   2.901  10.215   5.698 -0.2830  0.0788  0.3653
26757W        W42941   5.338   5.044   0.283 -0.1018  0.1576  0.1489
26758W        W42942  15.397  16.249   3.603  0.0594 -0.3277 -0.0627
26759W        W42943  17.381   5.508  15.781 -0.1585  0.0028 -0.0034
26760W        W42944   6.868  17.681   4.180 -0.0288  0.0531 -0.0665
26761W        W42945  17.463  14.049   1.530 -0.0712  0.4513  0.2310
26762W        W42946   9.781   3.791  12.003  0.0795  0.1135  0.2341
26763W        W42947  15.367   1.048   5.312 -0.1258  0.0414 -0.1206
26764W        W42948  18.232   4.976  11.391 -0.0874  0.0387  0.0807
26765W        W42949   0.593   6.028   1.068  0.0935 -0.0577  0.1251
26766W        W42950  15.218  10.606   5.119 -0.0175  0.0456  0.0496
26767W        W42951   3.690  17.432   4.618  0.1789  0.2883  0.0808
26768W        W42952   8.034   4.924   2.917  0.0025 -0.4555  0.2669
26769W        W42953  16.724   1.442  10.687  0.0032 -0.0739 -0.0380
26770W        W42954  15.389   6.358  14.725 -0.0080  0.1167  0.0640
26771W        W42955   6.615   9.712  11.188 -0.5029  0.0262  0.1145
26772W        W42956   2.501  18.402  11.047 -0.2610 -0.3696  0.3035
26773W        W42957   1.182  15.036   1.953 -0.2550 -0.2128 -0.0098
26774W        W42958  14.684  12.028  12.568  0.2336  0.0780  0.2663
26775W        W42959  17.497   4.076   4.606 -0.3254  0.4068 -0.2115
26776W        W42960   9.767  17.256  12.498  0.0992 -0.0523 -0.0596
26777W        W42961  15.453   0.637  13.211  0.2497  0.3602  0.1544
26778W        W42962  17.193   1.354  10.913  0.0476  0.4613 -0.0541
26779W        W42963   2.712  15.629  14.588  0.2871 -0.0418  0.0237
26780W        W42964   5.571  16.333  14.993  0.0912  0.1389  0.0778
26781W        W42965  12.424   8.943   5.483  0.0834  0.1430 -0.5742
26782W        W42966   8.902  16.650  15.870  0.0963  0.2729 -0.3316
26783W        W42967  15.130   8.191   1.248  0.2218  0.2425  0.1263
26784W        W42968  16.071   5.497  14.715  0.2109 -0.0062 -0.1136
26785W        W42969   0.184   9.822   4.269 -0.0958 -0.0183  0.0950
26786W        W42970   1.721  13.776   3.182  0.3307  0.0341  0.4000
26787W        W42971   0.803  12.847  14.196  0.0312 -0.0817 -0.1979
26788W        W42972   3.490   1.805  12.074 -0.0735  0.0127 -0.2193
26789W        W42973  10.215   8.109   6.057 -0.0685  0.1831 -0.3308
26790W        W42974  16.354  17.848  12.899 -0.0340 -0.0580  0.0058
26791W        W42975  13.403   2.997  13.043 -0.0701 -0.0782  0.2355
26792W        W42976  10.750   8.245  11.989 -0.0758 -0.2020 -0.2311
26793W        W42977   8.244   0.965   5.592  0.1694 -0.0901  0.0292
26794W        W42978   3.618  16.970   4.856  0.0888  0.3142 -0.1693
26795W        W42979   8.170   0.069  15.466 -0.1873 -0.3552 -0.1907
26796W        W42980   0.397  15.242   2.608 -0.0992 -0.3081  0.1023
26797W        W42981  15.454  18.151   0.944 -0.1396  0.0839  0.2183
26798W        W42982   8.974  10.348  15.886 -0.0586 -0.3540  0.2108
26799W        W42983  16.193  18.460   3.459  0.0923  0.0546  0.2483
26800W        W42984  13.629  17.496  13.653  0.0325 -0.1892  0.2308
26801W        W42985  15.612   0.877  13.646 -0.0048  0.0800  0.1489
26802W        W42986   7.226  12.293   1.534 -0.2473 -0.0083 -0.3935
26803W        W42987  16.410   2.347  14.590 -0.2335  0.3716 -0.0425
26804W        W42988   7.210  10.188   0.517  0.2829  0.0430  0.2572
26805W        W42989  17.307  15.300   3.070 -0.2532 -0.1347  0.0254
26806W        W42990  18.133  10.053  11.206 -0.0728  0.3869  0.0852
26807W        W42991  12.337   1.162  14.333 -0.1180  0.1735 -0.1806
26808W        W42992  12.994   8.457  15.403 -0.5115 -0.1483 -0.2235
26809W        W42993   8.095  16.866   4.253 -0.1175  0.0658  0.1512
26810W        W42994   7.678   9.130  13.252  0.2476  0.1840  0.1785
26811W        W42995   7.115  18.293   2.944  0.1947  0.3020 -0.2758
26812W        W42996   3.531   8.071  14.341  0.0144  0.1813 -0.2004
26813W        W42997   1.052   0.539   5.100 -0.2561 -0.0992  0.1513
26814W        W42998   5.045  10.515   1.219  0.0593 -0.1259 -0.4266
26815W        W42999  12.663   3.004   1.433  0.1091 -0.0809  0.0107
26816W        W43000  15.839  17.822  14.547 -0.1997 -0.0897 -0.0443
26817W        W43001   0.823  16.975   3.803  0.0500  0.1253 -0.2674
26818W        W43002   6.549  13.264   5.440 -0.1664 -0.0096  0.0180
26819W        W43003  12.407   3.870  11.801 -0.0130  0.1298  0.0054
26820W        W43004  12.002   0.833   1.800  0.2474 -0.1509 -0.1643
26821W        W43005  16.518  17.782   3.100  0.1842 -0.0483 -0.1768
26822W        W43006  17.233  10.325  15.212  0.0097  0.0459  0.1804
26823W        W43007  12.343   3.367  15.296 -0.0581 -0.0639 -0.1817
26824W        W43008  14.012  16.097  13.659  0.0258 -0.4987 -0.3970
26825W        W43009  16.369   4.284  12.300 -0.0777 -0.1806 -0.1725
26826W        W43010   5.265   6.243  14.833  0.0030  0.1022 -0.0058
26827W        W43011  14.102   6.447  13.970 -0.3317 -0.3087 -0.1041
26828W        W43012  13.058  14.028  13.122  0.0461 -0.0569 -0.0167
26829W        W43013  12.956  15.347  14.465 -0.3868 -0.1228  0.1270
26830W        W43014  16.798   6.917  13.534  0.0811  0.1163 -0.3107
26831W        W43015   8.420   6.819  13.583  0.1220  0.1266  0.2323
26832W        W43016   5.688   7.536  12.004 -0.0401 -0.0449  0.0800
26833W        W43017  14.634   5.703  11.946 -0.1309  0.1731 -0.1840
26834W        W43018   1.426  14.804   2.425  0.1974  0.0945 -0.1046
26835W        W43019  17.506  11.268  15.551 -0.0893  0.0314 -0.3983
26836W        W43020  14.310   0.452  10.132  0.3058 -0.0684 -0.0798
26837W        W43021   2.712   2.055   2.415 -0.2572 -0.2083 -0.0222
26838W        W43022  14.401  14.519   1.447 -0.4779 -0.2077 -0.2814
26839W        W43023  17.764   0.640  10.976 -0.1192  0.2221  0.0952
26840W        W43024   7.864  12.775  14.728  0.0595 -0.1618  0.0253
26841W        W43025   0.031   3.589   1.784  0.2851  0.1907 -0.0532
26842W        W43026  13.242   0.118  14.233  0.0055 -0.2857  0.0238
26843W        W43027   6.940  17.733   3.555  0.3310  0.0209  0.0399
26844W        W43028  12.942  14.757   4.836  0.2293 -0.0732 -0.3545
26845W        W43029   4.540   3.376  14.381  0.0997  0.2388  0.0093
26846W        W43030   4.488  13.464   4.153 -0.2282  0.1712  0.3545
26847W        W43031   2.480   2.766  15.989  0.1715 -0.1109  0.4283
26848W        W43032   8.045  17.825   0.933  0.2022  0.0356  0.0523
26849W        W43033   6.928  10.101   4.583 -0.1006  0.1058  0.0296
26850W        W43034  14.345   5.316  14.434 -0.0919  0.1454  0.0299
26851W        W43035  13.579  11.630   0.012  0.5160  0.0246 -0.2805
26852W        W43036  10.904  14.704   5.277  0.1018 -0.1058 -0.0488
26853W        W43037   4.507   2.570  12.543  0.0863 -0.3047 -0.1904
26854W        W43038  12.825  17.055   3.276 -0.1818 -0.1391  0.0537
26855W        W43039  10.227  17.681   4.358  0.0857 -0.1479 -0.0482
26856W        W43040  13.121   6.577   4.242 -0.0414 -0.0351 -0.3626
26857W        W43041  14.512  18.208  12.607  0.2359 -0.0302  0.0084
26858W        W43042   0.026  17.362   3.387 -0.3315  0.2224  0.0359
26859W        W43043   4.926  15.075  13.182  0.0881  0.0783  0.0351
26860W        W43044   0.022  12.427  15.437 -0.1629 -0.4399  0.1227
26861W        W43045  17.076   4.791   2.634 -0.0761  0.2237  0.0608
26862W        W43046   2.015  15.131  10.691  0.2764 -0.0578 -0.0596
26863W        W43047   7.187   6.739  12.032 -0.1258  0.1433 -0.2414
26864W        W43048   1.616  12.830   2.787  0.2563  0.2636  0.1791
26865W        W43049   5.603   7.619   1.870  0.0328 -0.0112  0.2354
26866W        W43050   4.454   9.797   3.008  0.1159 -0.0795 -0.2648
26867W        W43051   2.263  12.225  15.127  0.0602 -0.5127  0.0004
26868W        W43052   4.936   2.867  15.469  0.0563 -0.1723 -0.0456
26869W        W43053  16.304   4.465  11.069 -0.0603  0.0453 -0.0787
26870W        W43054  16.903  11.873  14.054 -0.0059 -0.3581 -0.2011
26871W        W43055   5.651  17.524   1.753  0.0781 -0.0955  0.0827
26872W        W43056   1.054   2.769   4.234  0.2259  0.0478 -0.0475
26873W        W43057  10.552  15.070  14.628 -0.0582  0.0358 -0.0447
26874W        W43058   8.581   1.667  14.782 -0.2111 -0.3248  0.1440
26875W        W43059  18.481  13.554   3.805  0.2637 -0.1552  0.3033
26876W        W43060  14.603   6.438  12.233 -0.3926 -0.0120 -0.1092
26877W        W43061  16.716  15.895   2.528 -0.0046 -0.1720 -0.1210
26878W        W43062  12.257  18.057   1.473  0.2385  0.0695  0.1798
26879W        W43063   6.082  14.779  13.282  0.1022 -0.0527  0.0992
26880W        W43064   7.688   2.740   1.623 -0.0783 -0.0996  0.2959
26881W        W43065  14.605   0.886   1.979  0.0303 -0.1215 -0.0039
26882W        W43066   3.616   2.754  15.073  0.0998  0.4108 -0.2717
26883W        W43067   3.172  15.219  15.660  0.0777 -0.0549  0.0435
26884W        W43068   4.784   9.699   1.515  0.0200 -0.1141 -0.0067
26885W        W43069   8.922   4.112   2.185 -0.0527 -0.3146 -0.0856
26886W        W43070  18.357  16.526  11.525 -0.1468 -0.3699  0.0629
26887W        W43071  16.752   9.857  10.337  0.0468 -0.0457 -0.2905
26888W        W43072   8.510   2.915   4.446  0.0469 -0.0572  0.0503
26889W        W43073  11.447  13.879  12.486 -0.1793 -0.0566  0.0652
26890W        W43074   7.514   8.530  15.753  0.1122 -0.1604 -0.2383
26891W        W43075  13.445  15.598   4.812 -0.0060 -0.1152  0.2858
26892W        W43076  10.076   7.220   5.671  0.2995 -0.0367  0.0505
26893W        W43077   6.482   3.564  14.195 -0.0910  0.2677 -0.0122
26894W        W43078  15.905  17.935  13.103  0.1132 -0.0996  0.0282
26895W        W43079   5.446   9.473  11.327  0.0113 -0.0455  0.1100
26896W        W43080  16.239   7.546   1.000 -0.0011  0.1984 -0.1515
26897W        W43081  12.112   5.192   3.465  0.1010  0.1072  0.2951
26898W        W43082   2.051  15.039   5.593  0.1461  0.0229  0.0012
26899W        W43083   3.568   6.215   2.836 -0.3419  0.3198  0.2272
26900W        W43084   1.000  11.366   4.460 -0.0590 -0.0065  0.0934
26901W        W43085   9.974   5.893   5.793 -0.4654 -0.0599 -0.0427
26902W        W43086  12.413   1.698   4.076 -0.0170 -0.5601 -0.3229
26903W        W43087   7.984   6.007   2.257 -0.1972 -0.1817 -0.0897
26904W        W43088   1.146  18.048  12.757 -0.4373  0.0565  0.2650
26905W        W43089   8.099   3.016  14.890  0.2810  0.1726  0.2904
26906W        W43090   7.160  17.400  13.708  0.0771 -0.2041  0.3280
26907W        W43091   0.900   4.104   2.761 -0.3266 -0.0229  0.0812
26908W        W43092  12.752   3.574   4.181  0.4864 -0.1630 -0.3306
26909W        W43093   1.331   3.484  12.710 -0.1876 -0.0336  0.0370
26910W        W43094   5.354   1.648  14.581  0.0828 -0.0801  0.1096
26911W        W43095   6.327   8.384  13.782 -0.0535  0.2620  0.0028
26912W        W43096  11.696   6.316  11.967  0.1797  0.3035 -0.1834
26913W        W43097   1.895   5.667   2.480  0.1670 -0.1398 -0.1007
26914W        W43098  15.385  13.680   4.599  0.2082  0.2423 -0.1927
26915W        W43099  13.705   6.098   2.972  0.3185 -0.0266 -0.1516
26916W        W43100   1.344  15.237  12.175  0.2560  0.0655 -0.1215
26917W        W43101   1.218  12.676  12.347  0.1568 -0.0996 -0.2340
26918W        W43102   2.487  12.643  12.088 -0.0097  0.1287 -0.3598
26919W        W43103  12.767   1.742  14.143  0.4329 -0.0583  0.1401
26920W        W43104  10.360   1.324  11.286  0.3067  0.0067  0.0617
26921W        W43105   5.568   3.342  13.314  0.0272  0.1018 -0.0999
26922W        W43106   2.874   8.487   4.882  0.0046  0.1419 -0.1393
26923W        W43107   2.634   0.862  15.158  0.2361 -0.0304  0.2570
26924W        W43108  14.605   3.474  11.651 -0.1681  0.2008  0.0934
26925W        W43109   9.667   3.724   3.158  0.0070  0.1063 -0.2551
26926W        W43110   4.490  15.785   0.181  0.5861  0.4508 -0.2179
26927W        W43111   9.109   6.094  14.963  0.2096 -0.1665 -0.0738
26928W        W43112   8.627  13.209   2.612  0.1555 -0.0010  0.1929
26929W        W43113   4.601  11.709  11.727  0.2438  0.0180 -0.2853
26930W        W43114  12.537   8.744  10.682  0.0466  0.1529 -0.0045
26931W        W43115   8.392   4.015   4.801  0.1722  0.0495  0.2301
26932W        W43116  12.947   3.944   2.580  0.1231  0.2567  0.2871
26933W        W43117   2.748   1.932  10.234 -0.1955 -0.2308  0.0731
26934W        W43118   2.002  12.680  11.968 -0.0276 -0.2060 -0.1465
26935W        W43119  15.402   0.730   0.896 -0.2501 -0.0283 -0.0848
26936W        W43120   3.443   7.886   1.091  0.2360 -0.0994  0.2455
26937W        W43121  14.462   3.619   2.170  0.0283  0.1807 -0.0712
26938W        W43122   1.382   1.959  15.530 -0.0355  0.1814  0.1944
26939W        W43123   5.721   6.343  16.102 -0.0975 -0.4382  0.2468
26940W        W43124  13.088  17.014   5.045 -0.0018 -0.1897  0.0910
26941W        W43125   6.379   6.299  14.877  0.0108 -0.1536 -0.1661
26942W        W43126   0.278   7.084   4.857  0.0445  0.0435  0.0753
26943W        W43127  11.459   5.031   2.650 -0.1996 -0.3015  0.2433
26944W        W43128  17.665  13.040   1.343  0.2126 -0.1014 -0.0105
26945W        W43129   5.215  14.240  14.764  0.1566 -0.0832  0.1217
26946W        W43130  17.000   0.059   4.777 -0.0690 -0.1944  0.2982
26947W        W43131   1.451  16.415   1.026 -0.1443  0.1069  0.0343
26948W        W43132   9.731   5.555   0.918  0.2859  0.0267 -0.1261
26949W        W43133   7.149  10.728   3.876  0.3114 -0.0747  0.2244
26950W        W43134  16.387   9.089  15.368  0.0152 -0.1322  0.1832
26951W        W43135   9.275   2.244   2.148 -0.1250 -0.0729  0.1094
26952W        W43136   0.752  13.781   4.316 -0.2200 -0.0793  0.1369
26953W        W43137   5.792   2.432   1.719  0.3841  0.0698  0.1381
26954W        W43138   1.548   6.784  12.065  0.3530  0.0318  0.1306
26955W        W43139  13.315  15.879  16.120  0.3159  0.0505  0.0696
26956W        W43140  10.936  16.582   1.099 -0.3481 -0.1099 -0.1670
26957W        W43141   6.935  11.058   0.566  0.2810 -0.4123 -0.1896
26958W        W43142   6.620  16.288  12.405  0.0669  0.1084  0.1207
26959W        W43143   4.897   9.782  11.235 -0.2720  0.1168  0.1122
26960W        W43144   0.960  12.887  11.718 -0.1388 -0.0802  0.0704
26961W        W43145  11.649  13.044   3.535 -0.0662 -0.2075  0.1225
26962W        W43146  14.584  13.003  11.218  0.0611 -0.1617  0.2227
26963W        W43147  17.901  14.134  12.139 -0.3287  0.0966 -0.1157
26964W        W43148  12.304   1.272  11.650  0.0369 -0.2013 -0.3143
26965W        W43149  11.704  16.763  14.319  0.1116  0.3589  0.2243
26966W        W43150   1.816   1.405  10.953 -0.2433  0.0252 -0.2246
26967W        W43151   2.406   2.992   5.556 -0.1150  0.3228  0.0647
26968W        W43152   5.424  15.086   5.023  0.0498  0.1652  0.2166
26969W        W43153   6.355  18.010  14.697  0.0982 -0.1715  0.1497
26970W        W43154   3.815  12.170   3.426  0.1361 -0.0235 -0.3858
26971W        W43155   6.551  14.079   4.019  0.0439  0.2019  0.0439
26972W        W43156  18.351   2.176   0.543 -0.2486  0.1899  0.0609
26973W        W43157   0.946   7.643   2.964 -0.0933 -0.1508 -0.1452
26974W        W43158  14.548   8.626   2.295  0.0485  0.1653 -0.4026
26975W        W43159  17.877   8.209   5.090 -0.0202  0.1066  0.2189
26976W        W43160  17.648   0.841  15.365 -0.0370 -0.1063 -0.0543
26977W        W43161   2.185  17.556   4.834  0.1477 -0.0204  0.0345
26978W        W43162   7.819   8.664   0.689 -0.0202  0.1242 -0.1828
26979W        W43163  15.176   0.823  12.713  0.1810 -0.3061 -0.0842
26980W        W43164  10.805   9.361   0.555  0.3502 -0.3543 -0.1043
26981W        W43165  18.127   5.300   9.949 -0.0849  0.0352 -0.3253
26982W        W43166  10.668  14.625   2.550  0.1684 -0.0617  0.1665
26983W        W43167   7.925  13.919  11.574  0.2146 -0.1497 -0.0915
26984W        W43168  17.971  13.628   3.927  0.1235  0.2207  0.0167
26985W        W43169   4.215   4.098  11.558 -0.4282  0.1151 -0.2228
26986W        W43170   0.353  17.374  14.011 -0.2218  0.1186  0.2839
26987W        W43171   2.578  17.390  15.077 -0.1704 -0.2101 -0.0980
26988W        W43172   0.165  16.640   5.227 -0.0975 -0.4629 -0.0650
26989W        W43173   3.245  13.209   5.327 -0.1432  0.0488 -0.0255
26990W        W43174   0.764   9.185  14.769  0.2308 -0.1261  0.0613
26991W        W43175  15.446   8.831   2.740  0.1206 -0.1295 -0.0494
26992W        W43176  11.631   2.289  12.392 -0.0943  0.2380  0.0539
26993W        W43177  18.178  15.187  13.872 -0.2531  0.2223  0.0634
26994W        W43178   6.565   0.973   5.216 -0.0890  0.1716 -0.4064
26995W        W43179   6.678  14.032  12.413  0.0008 -0.1623 -0.0449
26996W        W43180   1.974  14.133   2.835  0.1097 -0.1316  0.0361
26997W        W43181   3.330   6.433  12.064  0.2784  0.0036 -0.0593
26998W        W43182   3.499   3.185   2.208 -0.2893  0.0186 -0.1555
26999W        W43183   8.995   3.001   5.402 -0.0733  0.3132 -0.0158
27000W        W43184   3.069  17.015   2.271 -0.1620 -0.2274 -0.2143
27001W        W43185   8.707   5.845  15.204  0.0572  0.0819  0.0714
27002W        W43186  11.172  10.959  15.214 -0.0988 -0.0223 -0.2768
27003W        W43187   6.167   6.679  11.172  0.0945 -0.0125  0.3102
27004W        W43188  12.049  10.094   5.773  0.1187 -0.0976 -0.1480
27005W        W43189  18.163   0.526  16.138  0.0267  0.2193  0.3687
27006W        W43190  12.327  14.584  15.256 -0.1219  0.1364  0.1829
27007W        W43191  13.666  17.818  11.584 -0.0719 -0.0074  0.1530
27008W        W43192  10.266  12.220  15.080  0.1727 -0.1033 -0.2278
27009W        W43193  11.174   3.390   5.279  0.1910  0.2427 -0.0151
27010W        W43194   4.356   9.588  15.972  0.0968 -0.2179  0.2344
27011W        W43195   4.784   5.345   2.750 -0.0622  0.1610  0.1006
27012W        W43196  11.555   6.647  14.105  0.3139 -0.0393  0.0323
27013W        W43197   7.106  16.711   3.204 -0.2398  0.0159 -0.2594
27014W        W43198   5.261   8.047  12.655  0.0117 -0.0063  0.0744
27015W        W43199  13.851   5.772  11.291 -0.0789 -0.1988  0.1192
27016W        W43200   4.495  10.946  13.227  0.2166  0.3254  0.2414
27017W        W43201  16.781  12.434   5.996 -0.0385  0.0829 -0.1886
27018W        W43202  14.014  13.458  14.687 -0.1852 -0.0308  0.0613
27019W        W43203   5.023  12.346   5.029  0.0790 -0.3163  0.0639
27020W        W43204   7.378   1.192  11.615 -0.2349 -0.0927  0.2143
27021W        W43205  16.541  15.940  12.086  0.2415 -0.1141 -0.1852
27022W        W43206  12.531   1.665   0.928  0.1685  0.0259 -0.3166
27023W        W43207  17.770  14.432  14.397  0.1161  0.0488 -0.1118
27024W        W43208   9.722   3.198  13.889  0.2359  0.2048 -0.1985
27025W        W43209  11.750  12.015  12.547  0.1053 -0.0134 -0.1333
27026W        W43210  14.781  13.480   2.733 -0.2117  0.0450 -0.1302
27027W        W43211   0.646   9.336   0.610 -0.2116  0.1191 -0.0726
27028W        W43212  17.312  17.600  14.525  0.2342 -0.1784  0.0889
27029W        W43213   1.842  14.291  12.093 -0.1543  0.0116 -0.1301
27030W        W43214   7.676  10.994  13.357  0.2230 -0.2369 -0.0102
27031W        W43215   4.183  12.249   2.810 -0.0814  0.1655 -0.0948
27032W        W43216   6.846  11.452   1.537 -0.1044  0.1477  0.2923
27033W        W43217  14.539   0.955   2.995 -0.1441 -0.0017  0.0346
27034W        W43218   0.128   0.983   9.831  0.2786  0.1625  0.1476
27035W        W43219   8.785   5.363  15.078  0.1526  0.0049 -0.0555
27036W        W43220  18.163  15.159  12.240 -0.1504  0.2386  0.0434
27037W        W43221  10.300   4.542  14.735  0.0228  0.3339 -0.3649
27038W        W43222  14.811  17.785  12.486  0.0312  0.1718  0.0472
27039W        W43223   0.688   9.196  12.424 -0.1229 -0.0523 -0.0028
27040W        W43224   6.510  18.254  10.748  0.0787 -0.2433 -0.0274
27041W        W43225   5.244  15.394   0.069 -0.1769 -0.3687 -0.3104
27042W        W43226   6.648  17.982   3.877 -0.0038  0.0450 -0.1153
27043W        W43227  16.113   9.509  15.307  0.1675 -0.1829 -0.0041
27044W        W43228  13.466  18.355   1.491  0.2178 -0.2316 -0.0039
27045W        W43229  18.507  14.874  14.212  0.1142 -0.1623  0.2843
27046W        W43230  15.861   1.408  11.611  0.2181 -0.1036  0.1168
27047W        W43231  10.215   8.413   1.002  0.2661 -0.0578  0.0764
27048W        W43232  10.178   4.084  15.953 -0.3137  0.0670  0.1248
27049W        W43233   7.363   2.601   1.300 -0.0012  0.4137  0.3211
27050W        W43234   4.318  12.898  11.335  0.0906  0.0661 -0.2747
27051W        W43235   2.024  13.706  12.281 -0.0235 -0.3804 -0.1236
27052W        W43236  12.701  16.574   3.021  0.1698 -0.0191  0.0610
27053W        W43237  14.516  11.545   5.723  0.2256  0.3982  0.2708
27054W        W43238   7.227   4.067  12.052  0.3088 -0.1910 -0.0327
27055W        W43239  17.390  16.571  15.130  0.0028 -0.1417  0.2105
27056W        W43240  18.025  18.268  12.965 -0.1282  0.2785  0.0521
27057W        W43241   6.477   7.615  16.011 -0.1474 -0.1142 -0.0761
27058W        W43242   9.634   6.959  11.795  0.1095 -0.3559  0.1924
27059W        W43243   8.729  12.472   3.943  0.0638  0.0351  0.0608
27060W        W43244   0.990   5.089   0.795  0.0373  0.0329  0.0905
27061W        W43245  15.609   7.720   0.087  0.2442  0.0187 -0.1303
27062W        W43246   3.381  15.359  14.979  0.1900  0.0331 -0.1675
27063W        W43247  13.945  13.994  11.609 -0.2494 -0.3027  0.0868
27064W        W43248   1.473   1.023   3.250  0.0438 -0.2974  0.1156
27065W        W43249   7.623  10.064   3.595 -0.4508  0.2806  0.0993
27066W        W43250  13.610   6.308  11.884  0.0707  0.0556 -0.2710
27067W        W43251  15.543  14.605   2.494 -0.1306 -0.0900  0.2658
27068W        W43252  17.215   2.537   2.115 -0.1464  0.0143  0.0024
27069W        W43253  16.407   3.766  14.018  0.1054  0.1468  0.0319
27070W        W43254   9.617   7.015   4.116 -0.3696 -0.1312 -0.0805
27071W        W43255  11.499  12.674   2.022 -0.0913 -0.1265 -0.1527
27072W        W43256  10.233   8.864   1.177  0.2991 -0.0132 -0.3925
27073W        W43257   8.153   3.390   2.651  0.0344 -0.1866 -0.0091
27074W        W43258  10.963  11.573  11.561  0.2508 -0.1690 -0.1101
27075W        W43259   9.599   7.773  12.517 -0.0779  0.0656  0.0301
27076W        W43260  16.605   9.445  13.365  0.0039 -0.1254  0.1779
27077W        W43261  15.336  12.603  14.670  0.0873  0.1739 -0.1101
27078W        W43262   7.782   4.203   3.511  0.1386  0.1766  0.2400
27079W        W43263   0.717  16.056   3.143 -0.0342 -0.0384 -0.2033
27080W        W43264   1.448   5.969  13.190 -0.1431 -0.1812  0.0802
27081W        W43265   7.825   4.965  16.102  0.2482  0.0636 -0.1041
27082W        W43266  17.410   8.109   1.476 -0.1330  0.1718  0.0934
27083W        W43267  13.851  14.593   0.170 -0.0963  0.2973  0.2218
27084W        W43268   2.705   4.641   3.127  0.0591 -0.0798 -0.2371
27085W        W43269   2.715  13.623  15.554  0.2189 -0.0243  0.1103
27086W        W43270   9.719  14.118  15.964  0.0985 -0.1627  0.1858
27087W        W43271  15.713   9.786   5.603 -0.0152 -0.1070 -0.2616
27088W        W43272  15.717  13.338   5.330 -0.0956 -0.2568  0.1441
27089W        W43273   7.698  12.550  15.567 -0.1282 -0.0303  0.1083
27090W        W43274   6.704   7.125   5.540  0.3010 -0.2208 -0.0283
27091W        W43275   6.039  14.509   0.356 -0.0838  0.3495  0.1998
27092W        W43276   6.973  14.311   1.678  0.1809 -0.2222 -0.0385
27093W        W43277   2.843  13.167  14.270  0.1446 -0.2733 -0.1622
27094W        W43278   3.302  14.801   4.946 -0.2902  0.0203  0.2625
27095W        W43279   2.662  13.415  11.561 -0.2322  0.1917 -0.2495
27096W        W43280   6.855  10.007   3.126  0.1437 -0.2786 -0.0037
27097W        W43281   0.514   2.997  13.688  0.1082  0.1906 -0.1283
27098W        W43282   6.469  15.733   4.014  0.0751  0.0487  0.3044
27099W        W43283  14.385  16.628  10.880 -0.0300 -0.1913  0.0518
27100W        W43284  12.418   3.702  12.314  0.0908 -0.0785  0.0530
27101W        W43285  17.633   7.744   1.218  0.0012 -0.3224  0.2214
27102W        W43286  10.310   4.574   2.585 -0.0731  0.0898 -0.3226
27103W        W43287  12.021   1.462  14.645  0.1130 -0.3960  0.0369
27104W        W43288  14.433  14.388  14.466  0.1841  0.1083 -0.0491
27105W        W43289   8.973  15.451  14.683  0.1239 -0.1437 -0.2445
27106W        W43290  13.481   7.007  11.815 -0.0076  0.1172  0.0330
27107W        W43291  18.369  13.500   3.247 -0.0255 -0.0502  0.0533
27108W        W43292  18.033   6.032   3.313  0.2537  0.0218  0.0675
27109W        W43293  15.745   6.400   5.188 -0.2078  0.0994 -0.1968
27110W        W43294   8.858  13.507   3.867  0.1534  0.0856  0.2072
27111W        W43295  15.085  17.383   1.237 -0.0615  0.0410 -0.1811
27112W        W43296   3.384  18.420  14.461 -0.0239  0.0067 -0.1475
27113W        W43297   4.473  13.121   4.632  0.1692 -0.0266 -0.2851
27114W        W43298  12.244  17.734  12.980 -0.1470  0.0909  0.0770
27115W        W43299  10.371   4.301   3.036  0.0532  0.0228  0.1948
27116W        W43300   9.317   2.110  14.102 -0.1037 -0.1351  0.5763
27117W        W43301  12.302   6.307   2.571 -0.2237  0.0367  0.1412
27118W        W43302   4.821   5.352  11.443 -0.0735 -0.1358 -0.0805
27119W        W43303   3.561  15.126   5.219 -0.1471  0.5026  0.2793
27120W        W43304  17.220  14.444   1.154 -0.2645 -0.0789 -0.0824
27121W        W43305  17.420  16.132  11.480 -0.1471 -0.0560  0.1600
27122W        W43306   7.145   7.078   1.253 -0.1467  0.1351  0.1298
27123W        W43307  16.870  17.979   1.749 -0.1458  0.3087  0.0264
27124W        W43308   8.493   6.134   2.280 -0.2164  0.0952  0.0128
27125W        W43309   4.135  16.904  12.092  0.0560 -0.2914  0.1048
27126W        W43310   2.087  11.388  14.776  0.1257  0.0333 -0.0203
27127W        W43311  17.500   9.249  13.630  0.2446  0.2131  0.1317
27128W        W43312   0.658   9.700   1.308  0.0872 -0.0067 -0.0050
27129W        W43313  12.023  16.912  14.682 -0.1514  0.2228  0.1567
27130W        W43314  11.771  15.340   3.566 -0.0343  0.1611  0.0029
27131W        W43315   0.481   3.141   2.584  0.2535 -0.2917 -0.1727
27132W        W43316   1.098  15.237   9.989 -0.2311 -0.1492  0.0058
27133W        W43317  17.174   8.450   1.118  0.0001 -0.1757 -0.0473
27134W        W43318   2.624   0.285   4.138  0.3701  0.2825 -0.1588
27135W        W43319   1.289   0.174   1.248 -0.0749 -0.3251  0.4948
27136W        W43320   7.460  11.116  13.897 -0.0697  0.1685  0.1273
27137W        W43321  17.893  14.382   0.726  0.3554 -0.3628 -0.0489
27138W        W43322  18.448  16.233   4.771 -0.6335 -0.2730 -0.4128
27139W        W43323   7.108   6.638  13.820 -0.0046 -0.0704  0.0911
27140W        W43324  13.079  17.133   1.093  0.0933 -0.2925 -0.0318
27141W        W43325   7.983   5.569   1.888 -0.0906 -0.0825 -0.0826
27142W        W43326   4.225   2.740  13.569 -0.0672  0.0916 -0.0257
27143W        W43327   2.083   9.177  14.252 -0.1403  0.1236 -0.1225
27144W        W43328  10.388   8.604  15.676  0.3185  0.0753  0.0863
27145W        W43329   9.635   9.894   2.616  0.5519  0.0740 -0.0225
27146W        W43330   9.929   1.625   1.200 -0.0558  0.0395 -0.1540
27147W        W43331   5.398   6.259   2.691  0.3628 -0.0095 -0.3054
27148W        W43332  10.705  11.690   2.839  0.1533  0.3273 -0.4211
27149W        W43333   5.328  12.176   0.294  0.2488 -0.0448  0.0041
27150W        W43334   7.664  10.976   1.153  0.1116  0.0438  0.0295
27151W        W43335   0.818   8.169   1.704  0.2198 -0.2007 -0.2524
27152W        W43336  18.025  10.241   4.854  0.0525  0.2322 -0.3432
27153W        W43337  15.378   3.572  14.448  0.2032  0.0928  0.0624
27154W        W43338  10.837  12.926   1.319  0.2531  0.6142  0.0729
27155W        W43339  17.431  15.522  13.336  0.1279  0.0050  0.0562
27156W        W43340   2.034   0.165   3.470 -0.2267 -0.1261 -0.1364
27157W        W43341  15.115   3.288  11.838  0.0254 -0.3786  0.0092
27158W        W43342  14.052  11.856  11.434  0.1119 -0.0635 -0.1036
27159W        W43343   2.679  15.114   1.282  0.3102  0.1849  0.2241
27160W        W43344   4.524   2.490  14.382  0.2070  0.0038 -0.2532
27161W        W43345   0.036   7.306   3.900 -0.0753  0.1454  0.0662
27162W        W43346   1.466   4.555   1.459 -0.0615  0.2347  0.1735
27163W        W43347   0.619   0.956  15.224  0.1614 -0.1343  0.1627
27164W        W43348  13.451  15.584   3.709 -0.0032  0.1671  0.0508
27165W        W43349  14.431  13.743  12.411  0.1953  0.2516 -0.2435
27166W        W43350   8.976   6.686   1.520 -0.0376 -0.1893  0.2426
27167W        W43351  11.109   0.198  11.493 -0.2444 -0.2645 -0.1696
27168W        W43352  11.470   6.539   2.462  0.0940 -0.0441 -0.0980
27169W        W43353   4.527   6.064  13.180 -0.1300 -0.0489 -0.0220
27170W        W43354   5.127  15.031   4.588  0.1157  0.1391 -0.1230
27171W        W43355   9.634   8.025  14.612  0.3407  0.1828  0.1058
27172W        W43356  11.135   0.686   5.500 -0.0124 -0.3226  0.0724
27173W        W43357   1.452   8.609   2.271  0.1161 -0.3572 -0.1452
27174W        W43358  15.505  12.743  11.861 -0.1173  0.0264  0.2281
27175W        W43359  11.886   7.551  15.657 -0.4883  0.0285 -0.0765
27176W        W43360  15.263  14.531  12.761 -0.0836  0.0780 -0.0418
27177W        W43361  14.241  10.544  14.662  0.1789  0.0280 -0.2787
27178W        W43362  16.834   2.450   0.290 -0.0607  0.1545 -0.1799
27179W        W43363  12.403   5.183   2.251 -0.1111  0.0312  0.1451
27180W        W43364   0.910  16.624  12.953  0.0035 -0.2396 -0.1921
27181W        W43365  14.982  13.155   4.696  0.3010  0.0042  0.5125
27182W        W43366  15.909   4.331  11.362 -0.1519 -0.0671 -0.3874
27183W        W43367   7.983   3.430  12.430  0.3672 -0.0442  0.3465
27184W        W43368  16.652  16.992  15.680 -0.2530  0.0363  0.3818
27185W        W43369  10.707   7.329   3.953 -0.1146  0.1455 -0.3443
27186W        W43370   0.099   0.172   0.868  0.3118 -0.2812  0.1307
27187W        W43371   9.202   1.897  13.621 -0.0128  0.0362 -0.0533
27188W        W43372   6.000  15.465  11.357 -0.1009  0.1221  0.0995
27189W        W43373   6.352   3.431   3.757 -0.1455  0.1459  0.4600
27190W        W43374   6.221  16.559   5.936 -0.1136 -0.0345 -0.1281
27191W        W43375  12.463  11.535   1.444 -0.4791  0.2371 -0.2032
27192W        W43376  16.064  18.020   3.151  0.1007  0.0618  0.0828
27193W        W43377  15.538  16.258  11.009 -0.2049 -0.2395  0.1782
27194W        W43378  15.625   8.261  10.531  0.0508 -0.1523 -0.3443
27195W        W43379  16.464  13.206   1.881 -0.1995 -0.1488 -0.1572
27196W        W43380   1.249   2.438   1.526  0.1519 -0.0601 -0.0253
27197W        W43381   7.878  18.248  15.234 -0.0003 -0.2373  0.0847
27198W        W43382   5.304   6.004   5.791  0.2584 -0.2417 -0.0655
27199W        W43383   0.344  14.720   0.482 -0.0007  0.2835  0.2969
27200W        W43384  17.160  17.850  15.507 -0.1060  0.1807 -0.3071
27201W        W43385   5.712  17.805  14.050  0.1258 -0.2172 -0.0833
27202W        W43386  17.334  12.046  14.355 -0.0665 -0.0482 -0.1989
27203W        W43387   1.092  11.469   5.157 -0.0554  0.2033  0.3624
27204W        W43388  13.362   2.003   5.146  0.2249 -0.1435 -0.0091
27205W        W43389   7.022  16.608  15.738  0.0306 -0.1513 -0.2786
27206W        W43390   3.853   7.256  11.302 -0.1810 -0.1259 -0.2457
27207W        W43391  12.910  11.859   5.945 -0.1272 -0.0377 -0.0854
27208W        W43392  14.101   3.794  14.324 -0.3516  0.3918 -0.0360
27209W        W43393   3.720   3.323   4.813 -0.0021 -0.0892  0.6513
27210W        W43394  12.716   2.631  14.019 -0.2402 -0.2293  0.0853
27211W        W43395  14.574   7.691   3.812 -0.0058 -0.1403  0.1471
27212W        W43396   2.726  11.651   0.094 -0.0931 -0.2490 -0.1542
27213W        W43397   8.522   1.470   3.694  0.1603 -0.0254 -0.3431
27214W        W43398   1.676  18.300   4.060 -0.0345  0.0973 -0.3262
27215W        W43399   8.729   0.021   1.246 -0.1616  0.4091 -0.0830
27216W        W43400   5.763   0.857   1.282 -0.1945 -0.0243  0.2734
27217W        W43401  18.194   5.277   0.835 -0.3124  0.2357  0.0474
27218W        W43402  14.109  10.205  12.790  0.0925  0.2933  0.0914
27219W        W43403   9.735  11.196   4.661  0.1907  0.3887  0.1438
27220W        W43404   0.591  12.034   0.960  0.1617  0.1720  0.0843
27221W        W43405  15.163   5.074   5.131  0.0666 -0.2688 -0.1489
27222W        W43406  11.001   8.560  13.498  0.1944 -0.2562  0.3506
27223W        W43407  12.891  12.610  15.787  0.1844 -0.1238  0.0909
27224W        W43408  18.367   6.273  14.185 -0.1539 -0.3186 -0.4083
27225W        W43409  10.746   7.215  14.692 -0.0883 -0.1003  0.0148
27226W        W43410  10.616   0.783   5.721  0.0138 -0.2828  0.2003
27227W        W43411   9.041   6.113  11.578  0.1530  0.3452  0.1090
27228W        W43412   5.324  14.166   2.452 -0.0933 -0.0672 -0.3112
27229W        W43413   5.398   0.579  15.567  0.0586 -0.0820  0.1626
27230W        W43414  10.427   0.085   0.549  0.0753  0.1475  0.1077
27231W        W43415   6.773   5.359   2.963  0.1325  0.1206 -0.1385
27232W        W43416   2.891  15.145   2.329 -0.0055 -0.0827 -0.0559
27233W        W43417   5.997  17.598   3.510  0.0656 -0.2396  0.0423
27234W        W43418  14.588   5.770   4.564 -0.1634 -0.0567  0.1942
27235W        W43419  10.684  11.047  14.009 -0.0258 -0.2050  0.0584
27236W        W43420  13.116  18.188  10.394  0.0259  0.1745 -0.1567
27237W        W43421  16.372  15.583  12.419 -0.0436  0.2197  0.1638
27238W        W43422  11.585   7.990   4.164 -0.1478 -0.0076 -0.0304
27239W        W43423  11.524   9.756   0.910  0.1376  0.0799 -0.0611
27240W        W43424   6.532   3.883  13.728 -0.0342  0.4064 -0.0565
27241W        W43425   6.763   4.749   4.969  0.2255  0.1519  0.1012
27242W        W43426   2.345   5.073   4.846 -0.1715  0.3756  0.2127
27243W        W43427  16.396  13.355   5.696 -0.0960 -0.2555 -0.1438
27244W        W43428  10.698   3.445   0.643  0.4054  0.1853  0.1690
27245W        W43429  17.599  14.799  10.790 -0.1941  0.1516 -0.1486
27246W        W43430  15.785  13.842  13.263 -0.0714  0.0830  0.0713
27247W        W43431   3.100   7.685   0.184 -0.1415 -0.0909  0.1140
27248W        W43432   2.090  14.746  11.967 -0.4658 -0.0749 -0.1772
27249W        W43433  12.463  16.886   3.528  0.1765  0.0400  0.1216
27250W        W43434  12.647  13.863  15.904  0.3325  0.5075  0.2436
27251W        W43435  13.500  17.937   5.042 -0.0452  0.4240 -0.0714
27252W        W43436   7.936  16.899  15.795 -0.0260  0.1044 -0.0847
27253W        W43437   9.406   9.049   0.600  0.0806  0.1805 -0.1364
27254W        W43438   5.213  14.084  12.470 -0.5260 -0.0717 -0.0879
27255W        W43439  12.197   4.088   3.073 -0.2052  0.0058 -0.0142
27256W        W43440   8.749  18.149   5.035 -0.1078 -0.4141  0.2209
27257W        W43441   5.338   5.899   5.317 -0.3348  0.4829 -0.0044
27258W        W43442  14.670  12.463   3.061 -0.2969 -0.2604 -0.0067
27259W        W43443  16.128   6.041   4.224  0.0592  0.1869 -0.3176
27260W        W43444  14.962   3.274   4.221  0.1924  0.0636  0.1385
27261W        W43445  14.714   7.396   1.569  0.0393  0.0210 -0.1479
27262W        W43446   0.555   2.336  10.752  0.1810  0.0941  0.0746
27263W        W43447  13.495   1.243  13.166 -0.0540 -0.0725 -0.0262
27264W        W43448  16.224  14.798   1.768 -0.0031  0.1404  0.0455
27265W        W43449   4.730   3.006   0.603  0.0860 -0.0585 -0.0038
27266W        W43450  16.149  12.485   3.546  0.0302 -0.0595 -0.3611
27267W        W43451   7.531  14.036   1.121  0.2285 -0.2119 -0.1390
27268W        W43452  12.298  11.262  12.659  0.2001 -0.0559 -0.2358
27269W        W43453   9.720   4.546   5.149  0.1188  0.0619 -0.1998
27270W        W43454  14.547   7.531   2.782 -0.2111 -0.2263 -0.1410
27271W        W43455   0.912  16.756  11.105 -0.1277 -0.0665 -0.1166
27272W        W43456  14.017  16.729  14.762 -0.1690 -0.0726  0.0858
27273W        W43457  16.801   9.388  13.910  0.0163 -0.1217  0.0098
27274W        W43458   0.445   2.207  12.426 -0.0278 -0.0117 -0.0039
27275W        W43459  10.942  18.111   4.243 -0.1751  0.1876 -0.2157
27276W        W43460  11.671  13.402   4.483  0.4417 -0.1307  0.0784
27277W        W43461   4.401   7.659  11.949 -0.1250  0.1072 -0.0684
27278W        W43462   1.131   2.523  15.416 -0.1660  0.0927 -0.1914
27279W        W43463  18.373   8.092  13.621 -0.1936 -0.3242  0.0185
27280W        W43464  18.239   5.563   2.309  0.1503  0.2911  0.1254
27281W        W43465   0.544   1.481   1.662 -0.1955  0.1260 -0.1589
27282W        W43466   7.828   8.860   0.195  0.0368  0.3682 -0.1433
27283W        W43467   3.595   3.495  15.301  0.0470 -0.1315 -0.1365
27284W        W43468   3.606  16.682  14.208  0.0553 -0.0089 -0.1393
27285W        W43469  16.744  12.857   4.419  0.0197 -0.1048 -0.1786
27286W        W43470  11.473  14.091   0.420 -0.0581 -0.0450  0.0351
27287W        W43471  10.509  16.821   1.158  0.0823 -0.2253  0.0168
27288W        W43472  17.215   1.529  15.580  0.1425 -0.0958 -0.0721
27289W        W43473  15.405  16.802   4.214 -0.0284  0.6069  0.2160
27290W        W43474  11.373  16.967   0.515 -0.0884  0.1684  0.0475
27291W        W43475  11.532  10.441  12.262  0.1914 -0.1272  0.0798
27292W        W43476  18.043  15.953  14.712  0.0586  0.0003 -0.0775
27293W        W43477  17.939   4.526  11.556  0.4146 -0.0707  0.0779
27294W        W43478  11.143  12.008   2.753 -0.1642 -0.1658 -0.0341
27295W        W43479  15.591   9.007   4.224 -0.0227 -0.0458  0.1154
27296W        W43480   6.875   7.556  13.940 -0.0423  0.0979  0.2089
27297W        W43481   8.597  13.502   0.084  0.0382 -0.1583  0.0890
27298W        W43482   0.082   3.410  13.783  0.0096  0.0720  0.2784
27299W        W43483   9.272   0.940   2.280 -0.1805 -0.1815  0.1211
27300W        W43484  13.624  17.421  14.138  0.1351 -0.0318  0.2745
27301W        W43485   8.085  11.450  11.409  0.2020  0.2885  0.2721
27302W        W43486   2.566  15.887   1.244  0.4326  0.1188  0.3308
27303W        W43487   4.732   8.498   2.737 -0.4752  0.2826  0.1364
27304W        W43488   2.856  13.183   4.848  0.1331 -0.0860  0.2877
27305W        W43489   9.456  15.208  14.181  0.2090  0.1973 -0.0961
27306W        W43490   3.796  17.789   5.277 -0.1095 -0.0346 -0.2120
27307W        W43491   7.387  15.739  13.615 -0.0049 -0.1555  0.3331
27308W        W43492  17.063   0.742   5.198 -0.1148  0.0978 -0.3369
27309W        W43493  17.318  11.574  12.470 -0.1136 -0.0514  0.1144
27310W        W43494   3.760   5.910  12.769 -0.2021  0.1822  0.1106
27311W        W43495   0.643   3.249  11.173 -0.1235 -0.1255  0.0650
27312W        W43496   9.060   0.916  16.004  0.0141 -0.1462  0.0807
27313W        W43497  15.851  10.255  13.430 -0.1293  0.4306 -0.1984
27314W        W43498  16.212  10.841   3.824 -0.1767  0.0275  0.0959
27315W        W43499  15.621   1.880  15.238 -0.2207  0.3167 -0.3523
27316W        W43500  15.054   7.218   5.383  0.0349 -0.1488 -0.1585
27317W        W43501  13.107  14.725  13.203 -0.0795  0.1465  0.0011
27318W        W43502  18.217   5.158  12.538  0.1748 -0.1173 -0.0084
27319W        W43503  16.222  11.069   2.178 -0.1869 -0.0238 -0.0834
27320W        W43504  17.728   1.210  10.958 -0.0060  0.2061 -0.0582
27321W        W43505  13.765  16.773  12.556 -0.0583 -0.1291  0.0018
27322W        W43506  10.747   6.811  14.393  0.0587 -0.4049  0.0471
27323W        W43507  17.027  16.318  13.510 -0.2925  0.0660  0.1391
27324W        W43508  17.670   2.312   0.916 -0.0391 -0.1295  0.0767
27325W        W43509   6.127  11.188  12.098  0.2067  0.0314 -0.3852
27326W        W43510  14.698  15.482   1.727 -0.1827  0.4394 -0.1518
27327W        W43511   5.675   7.453  11.515 -0.2190 -0.0858 -0.3188
27328W        W43512   4.826   4.844   2.019  0.1580  0.4460 -0.1360
27329W        W43513   8.217   9.730  15.802 -0.0282  0.1546  0.1496
27330W        W43514  12.227   5.635   2.481  0.1196 -0.0217 -0.2033
27331W        W43515  11.542  16.915   1.457 -0.1832  0.0414  0.3274
27332W        W43516   3.323  16.035  11.100 -0.1120  0.1669  0.0261
27333W        W43517  12.425   6.077  12.365  0.1114 -0.0906 -0.0297
27334W        W43518  17.931   8.601  14.294 -0.3450  0.1367 -0.3492
27335W        W43519   0.752  12.271   2.757 -0.2384 -0.0608  0.1867
27336W        W43520   5.132   8.844   1.958 -0.1613 -0.1720  0.2056
27337W        W43521   2.389  13.957   4.587 -0.1024  0.2294  0.0384
27338W        W43522  13.534   2.716  12.146  0.0133 -0.1541  0.0689
27339W        W43523  13.736  15.684  15.849  0.2307 -0.0028  0.1110
27340W        W43524  11.139   6.068   0.882  0.3222 -0.1596 -0.0828
27341W        W43525   7.221  13.286   4.942 -0.0701 -0.0295 -0.3466
27342W        W43526   5.160  12.984  14.949 -0.1795  0.2546  0.0754
27343W        W43527   5.025   1.431   2.659  0.0367  0.0679 -0.1417
27344W        W43528  16.382   7.987  12.514  0.1889  0.0250  0.1299
27345W        W43529  12.269  16.163  13.789  0.1017  0.2088 -0.1320
27346W        W43530   3.115  15.785  14.852 -0.0538 -0.1371  0.1078
27347W        W43531   3.488  13.156  10.522 -0.0988 -0.0432 -0.1901
27348W        W43532  13.106  16.270  15.947  0.1591  0.0826 -0.1003
27349W        W43533   2.663  12.414   5.283 -0.1036  0.1636  0.0739
27350W        W43534   9.163   9.077   1.405 -0.0609  0.0302  0.1612
27351W        W43535  15.867  13.895  11.713  0.0578  0.0351  0.3325
27352W        W43536  11.660  11.323  14.841  0.3504 -0.1161  0.0148
27353W        W43537  16.865   8.683  12.064  0.3267 -0.2288  0.1323
27354W        W43538  10.772   4.257  13.423  0.1555 -0.4447 -0.0528
27355W        W43539  10.695   2.815  13.416  0.1446  0.2082 -0.3287
27356W        W43540  18.411   2.183   3.946 -0.0625  0.5477 -0.2134
27357W        W43541  14.197  10.393  14.101  0.1351  0.0331 -0.0465
27358W        W43542   6.866   0.483  13.965 -0.0799  0.4937  0.1646
27359W        W43543  17.282   4.875   0.685 -0.2739 -0.1328  0.0065
27360W        W43544  18.157   3.833  11.861  0.0845  0.2725 -0.0152
27361W        W43545   6.919  12.626  14.592 -0.0032  0.0005 -0.0235
27362W        W43546  15.513   1.308  10.678  0.1040  0.3271 -0.1440
27363W        W43547   2.942  10.096  12.226  0.0422 -0.3682 -0.2011
27364W        W43548   0.854   7.283  14.734 -0.2433  0.2129  0.1743
27365W        W43549   3.847  15.915  15.501  0.1626 -0.0300  0.1086
27366W        W43550   5.474   2.947  15.004  0.2258  0.0180 -0.1055
27367W        W43551  11.549  17.123   1.033  0.0787  0.0002  0.0594
27368W        W43552  14.513  13.044  13.437  0.0022  0.0547 -0.1276
27369W        W43553   2.531  15.689   3.939  0.0162 -0.2580  0.0175
27370W        W43554   1.938   5.749  15.950  0.0977  0.0611  0.0078
27371W        W43555  18.336   8.907   4.328 -0.0731 -0.1054  0.2965
27372W        W43556  15.484  10.738   2.629  0.2930 -0.2363 -0.0752
27373W        W43557  18.319  15.076   5.262 -0.0567  0.0767 -0.0882
27374W        W43558   2.661   2.678  12.365  0.0398 -0.1213  0.1018
27375W        W43559  11.399   3.684   1.321  0.0323 -0.1481 -0.0777
27376W        W43560   3.186   0.548   0.935  0.1323  0.0697  0.0846
27377W        W43561   5.989   2.186  14.319 -0.0727 -0.0422 -0.0837
27378W        W43562   6.939  18.504   1.958  0.3460  0.1057 -0.1064
27379W        W43563   1.562   7.707  12.652 -0.0289  0.1823 -0.0138
27380W        W43564  10.734   6.152   0.575 -0.0615 -0.0320  0.2252
27381W        W43565   8.281   5.100   5.395 -0.1905  0.2057 -0.3172
27382W        W43566  16.194   7.842   4.787 -0.0560 -0.0332 -0.3017
27383W        W43567  14.953   1.138   2.849  0.1390  0.1645  0.3740
27384W        W43568  10.335   0.722   2.461 -0.2845  0.1228  0.1286
27385W        W43569   3.069   2.060  11.820 -0.0505  0.3361  0.6341
27386W        W43570   8.394   8.771  12.353  0.2754 -0.2868  0.3941
27387W        W43571   8.731   0.114  12.111  0.0919 -0.0896 -0.0310
27388W        W43572  15.557   0.081   2.089  0.3063 -0.0190  0.1513
27389W        W43573  11.669   4.833  15.983  0.1780 -0.2729  0.1613
27390W        W43574  15.135   6.645   0.734  0.0114  0.0477  0.1046
27391W        W43575   9.931   9.545   5.383 -0.0806  0.0111  0.0454
27392W        W43576  14.310   6.365  12.728 -0.2225  0.2444 -0.0124
27393W        W43577   8.863  15.828  15.383 -0.2870  0.2844  0.0296
27394W        W43578  16.054   2.235   1.723 -0.0053  0.1518  0.0883
27395W        W43579   7.439   9.392  14.616 -0.0814  0.0009  0.2812
27396W        W43580   9.516  14.552   3.293 -0.1945  0.0605 -0.1425
27397W        W43581   4.617   0.318   3.510 -0.2655  0.1434 -0.1801
27398W        W43582  17.687  10.384  15.013  0.5183 -0.3931  0.2497
27399W        W43583  15.476   5.618  11.615  0.1664 -0.2487 -0.0599
27400W        W43584  11.721  12.519  15.136 -0.0734  0.2948 -0.2195
27401W        W43585   1.475  11.765  14.582  0.0635 -0.0060  0.0618
27402W        W43586  11.453   8.606   5.807  0.2473  0.1314 -0.2343
27403W        W43587   6.495   4.072   4.167 -0.1906  0.1721 -0.0925
27404W        W43588   8.783   9.585   3.486 -0.2387 -0.2713  0.0162
27405W        W43589   7.694  11.937  11.415 -0.0733  0.2237 -0.1537
27406W        W43590  14.901  18.297   3.649  0.2730 -0.1464  0.0147
27407W        W43591   7.169   1.618  14.679 -0.0258 -0.0743  0.0195
27408W        W43592   2.299   3.589   0.516  0.0087 -0.3793  0.0614
27409W        W43593   1.891   3.329   0.257 -0.1793 -0.0364  0.1533
27410W        W43594  12.537  16.519   3.876 -0.0610  0.1852  0.1169
27411W        W43595  10.393   2.662  15.331  0.3161 -0.3403 -0.1131
27412W        W43596  16.223   8.087   3.004  0.1245 -0.0258  0.0020
27413W        W43597  14.456   9.115   2.237 -0.0189 -0.2620  0.0425
27414W        W43598  14.245   2.133   2.077 -0.0821 -0.2551 -0.3700
27415W        W43599   5.374  17.101   2.361 -0.0923 -0.0427  0.1283
27416W        W43600  14.916   8.994   5.411  0.0553 -0.2887 -0.0982
27417W        W43601  16.535   8.158   5.041  0.1103  0.0559  0.1046
27418W        W43602   1.710   6.135   3.064  0.0983 -0.2177  0.2876
27419W        W43603   9.681   5.494   5.437  0.0799 -0.1081  0.1017
27420W        W43604  10.327   8.125   2.464 -0.1286  0.1548 -0.0208
27421W        W43605  13.605  12.043  13.159  0.0222  0.1002  0.0522
27422W        W43606  11.797  15.031  13.912 -0.1057 -0.2069 -0.0099
27423W        W43607   7.951  10.809  15.860  0.1377  0.2850 -0.2580
27424W        W43608   1.496   9.275   1.352 -0.0522  0.1747  0.4281
27425W        W43609  13.720   2.427   0.591  0.3185 -0.0798  0.1340
27426W        W43610  12.328  16.927   4.093  0.3291 -0.0983 -0.0314
27427W        W43611  14.857  15.540   0.396  0.1499  0.1401 -0.0838
27428W        W43612   7.684  10.900   0.631 -0.0220 -0.0908  0.0466
27429W        W43613   5.393  15.073  14.740  0.1124  0.1047  0.0842
27430W        W43614  17.001   5.847  15.881  0.0810  0.0379 -0.0610
27431W        W43615  13.893  16.118  12.973 -0.0492 -0.0906 -0.0400
27432W        W43616   9.861  14.839  10.258 -0.1011 -0.0953 -0.1801
27433W        W43617  18.400  10.969   3.292  0.1090  0.5571  0.0777
27434W        W43618  14.084   7.571   2.465 -0.1499 -0.1075  0.1817
27435W        W43619   9.111  14.709   1.089  0.0186 -0.1666  0.2518
27436W        W43620   5.504  11.879  14.648  0.0825  0.1848  0.0346
27437W        W43621   4.133  12.197  15.798 -0.1304  0.1875 -0.2134
27438W        W43622   4.278   1.635   4.306  0.3528 -0.3907  0.1140
27439W        W43623   4.125   7.418   3.982 -0.0041 -0.2081 -0.3628
27440W        W43624  18.039  17.195  16.084 -0.1639  0.1286  0.5269
27441W        W43625   1.360   6.182   0.287 -0.2222 -0.3131  0.1427
27442W        W43626   2.847  13.468   1.456  0.1178  0.1980 -0.1985
27443W        W43627   7.128   9.255  13.246 -0.1549  0.1025 -0.1839
27444W        W43628   5.785  11.634   2.518 -0.3275  0.0095  0.0177
27445W        W43629   5.776  14.882  12.930  0.0601 -0.0460 -0.1601
27446W        W43630  15.257  18.041  13.189 -0.1954  0.2929  0.0568
27447W        W43631   6.227   5.576   3.889 -0.1143 -0.1885  0.0068
27448W        W43632   7.424   6.868   4.271  0.1392  0.0376 -0.2669
27449W        W43633  12.701   4.763   3.763  0.0210  0.0477  0.0973
27450W        W43634  12.166   5.976   3.264  0.0745  0.1387  0.2255
27451W        W43635   4.149   5.306  12.258  0.1760 -0.3900  0.1374
27452W        W43636   0.583   2.066  11.657 -0.2111 -0.3086  0.1847
27453W        W43637   9.785  11.170  14.699 -0.0901 -0.3366 -0.0204
27454W        W43638  11.074   2.797  11.848 -0.0173  0.0543 -0.5144
27455W        W43639   2.717   2.513  10.959 -0.2430 -0.0061  0.1418
27456W        W43640  11.013  16.959   4.250  0.0757 -0.1341  0.1887
27457W        W43641   9.908  14.057  14.504 -0.3131  0.1666  0.1550
27458W        W43642   3.965  14.435   4.061  0.1132  0.3129  0.2749
27459W        W43643   8.782  10.875   3.328 -0.0568 -0.0753 -0.0535
27460W        W43644  15.223  12.693   3.719  0.2919 -0.1372  0.1123
27461W        W43645   8.547  17.661   2.740  0.3964  0.1114 -0.0080
27462W        W43646   6.362  18.401  11.478 -0.4809 -0.1501  0.1289
27463W        W43647   3.682  14.947   4.255  0.2075  0.1434 -0.3368
27464W        W43648  14.457  12.011   3.020 -0.1108  0.0342  0.0566
27465W        W43649   4.104   6.387   1.838 -0.1507  0.2452  0.4078
27466W        W43650  17.396   8.178   2.051 -0.1416 -0.3262 -0.0971
27467W        W43651  12.669  12.546   0.296  0.1983  0.1583  0.2724
27468W        W43652  17.448   1.117   4.271  0.0356  0.2212  0.4835
27469W        W43653  14.164   9.829   4.619 -0.0883  0.0223 -0.1500
27470W        W43654   2.334  14.402  14.584 -0.0302 -0.0421  0.2877
27471W        W43655  17.386  15.646  11.797 -0.0805 -0.0431  0.0373
27472W        W43656   7.366   2.845   5.194 -0.1574 -0.2799  0.0713
27473W        W43657   1.544   3.529  14.233 -0.0736  0.0226 -0.2528
27474W        W43658  13.854  10.010  14.064  0.2425  0.1677  0.2744
27475W        W43659  13.864  15.167   2.082  0.3211 -0.0827 -0.1405
27476W        W43660  14.253   5.635  13.614 -0.0176 -0.0169  0.3477
27477W        W43661  12.111   9.571  15.995  0.2493 -0.0656 -0.0445
27478W        W43662  15.765   9.120   3.102  0.2069  0.3681 -0.0287
27479W        W43663  10.239   4.355   5.032 -0.0088  0.1809 -0.1585
27480W        W43664   6.289   6.805   1.545 -0.2751 -0.2688  0.2384
27481W        W43665   7.891   2.770  15.521  0.2559 -0.1306  0.1852
27482W        W43666  14.094   2.147   2.962 -0.2207 -0.1160  0.4251
27483W        W43667  14.467   6.885   6.032 -0.0708  0.5272 -0.1358
27484W        W43668  14.873  12.578  13.554 -0.0808 -0.2549 -0.4069
27485W        W43669   7.054   4.511   2.024  0.1680  0.1103  0.1374
27486W        W43670  15.261   5.997   1.326  0.0221  0.0109  0.0565
27487W        W43671  14.822   6.076   3.651  0.0207 -0.2451 -0.0940
27488W        W43672  12.913   9.573   5.997  0.1249  0.1311  0.1184
27489W        W43673  11.765   4.415  12.486  0.1823 -0.3488  0.2249
27490W        W43674  10.159   5.366  14.313  0.1638  0.1000  0.1629
27491W        W43675  12.052   1.858   4.418 -0.1214 -0.4612 -0.0505
27492W        W43676   9.398  17.775  12.873  0.1820  0.0930  0.1651
27493W        W43677   9.990   8.339   5.342 -0.0543  0.1660  0.2606
27494W        W43678  17.541   6.875   2.289 -0.1294  0.2336  0.0107
27495W        W43679  11.692  17.307   2.657 -0.2557 -0.3515 -0.1835
27496W        W43680   6.767  14.933  13.604  0.0077  0.2415  0.0641
27497W        W43681   4.011   4.819  13.997  0.3471  0.0499  0.1585
27498W        W43682   0.353   2.851  11.263 -0.1626  0.3822 -0.3259
27499W        W43683  12.677   0.186   0.613 -0.0752 -0.1342  0.0314
27500W        W43684  11.831   8.197   5.106 -0.0451 -0.0597  0.1669
27501W        W43685   2.572   5.441   0.431  0.1520  0.2746  0.0288
27502W        W43686   6.430  17.451   5.397  0.1724 -0.0947 -0.0293
27503W        W43687  13.805   5.058  14.363 -0.1325  0.2433 -0.4104
27504W        W43688   7.428   5.696  14.359 -0.0160 -0.2341  0.1756
27505W        W43689  14.669  16.305  10.519  0.0805  0.0433  0.2159
27506W        W43690   2.431  17.228  12.926 -0.1810  0.2358  0.4289
27507W        W43691  14.975  13.972   2.707 -0.0458  0.0137 -0.1113
27508W        W43692  17.821   3.701  14.264  0.2320  0.0279  0.2206
27509W        W43693  17.138  12.519  14.603 -0.1118 -0.1012  0.0247
27510W        W43694  12.061   7.343   2.798  0.2437 -0.0201  0.2825
27511W        W43695   5.663   4.537   1.996  0.2284 -0.4317  0.0782
27512W        W43696   9.153   6.751   5.300 -0.0213  0.0567 -0.0887
27513W        W43697   4.212   7.760   4.436 -0.0477  0.2538  0.0057
27514W        W43698   8.858  18.357  14.197  0.1811  0.0807  0.0160
27515W        W43699  17.227  12.270  15.849 -0.2814 -0.0304  0.3231
27516W        W43700   7.772   3.452   4.294 -0.0482  0.1562  0.0303
27517W        W43701  10.835  11.566   0.765 -0.1752 -0.0072 -0.1665
27518W        W43702  12.594   5.769   5.687 -0.1997  0.2674 -0.2397
27519W        W43703  12.145  14.990   5.316  0.4153 -0.1326  0.1993
27520W        W43704  16.702  13.606   3.297 -0.2983 -0.4121 -0.1178
27521W        W43705   3.656  15.920  12.143  0.2123  0.0321  0.3595
27522W        W43706   3.516  16.436  10.910 -0.1097  0.1588  0.0517
27523W        W43707   6.178   6.620   0.010 -0.1389  0.0827 -0.1433
27524W        W43708   8.345   7.346  14.408 -0.1633 -0.1870  0.1191
27525W        W43709  13.557   2.917  15.744  0.0053  0.1707 -0.3009
27526W        W43710  12.607   3.095   4.057 -0.1543  0.0133 -0.0773
27527W        W43711   4.812   8.342   5.280 -0.1219  0.1240 -0.0449
27528W        W43712  11.569   9.353   4.756  0.2298 -0.0426 -0.0019
27529W        W43713   9.676   3.387  11.766  0.3888 -0.1399  0.0157
27530W        W43714  17.689   8.083  12.867  0.0885  0.2066  0.2321
27531W        W43715  17.726   7.874  11.478  0.0172  0.0751 -0.1326
27532W        W43716  10.367   1.263  14.454  0.0300  0.5027  0.3190
27533W        W43717   4.702  16.898   3.883 -0.0320  0.2196  0.1222
27534W        W43718   4.991  16.527  14.792  0.1562 -0.2469 -0.1711
27535W        W43719  17.240  18.233   3.052  0.3027  0.0061  0.0445
27536W        W43720  18.137   6.286  10.277  0.1230 -0.0676 -0.2274
27537W        W43721   4.948   0.289   0.217  0.3133  0.3537  0.3086
27538W        W43722   8.999  11.058  11.377 -0.1980 -0.0105 -0.0670
27539W        W43723  17.707  16.783   2.571  0.0517 -0.0596  0.0418
27540W        W43724  13.590  12.442   2.990  0.5222  0.1271 -0.0923
27541W        W43725   6.930   1.935  10.389  0.2472  0.1050  0.2679
27542W        W43726   4.398   6.084   3.349  0.0579 -0.1306 -0.0320
27543W        W43727  16.320  13.901   1.348 -0.2410 -0.0295  0.1934
27544W        W43728   0.536  16.738  15.212 -0.0522 -0.2914 -0.0424
27545W        W43729  13.824  10.543  13.748  0.0527  0.3091 -0.2487
27546W        W43730  18.164   6.682   3.498 -0.3379 -0.1700 -0.0349
27547W        W43731   7.337  10.527   4.379  0.3216 -0.2847  0.1032
27548W        W43732  10.209  12.599   1.891 -0.3510  0.0392 -0.2702
27549W        W43733  15.154  14.602   0.928  0.0046 -0.2202 -0.2178
27550W        W43734   4.384  15.664  13.886 -0.0594 -0.1677  0.0211
27551W        W43735   9.708   3.640  14.631 -0.1956  0.0136  0.1767
27552W        W43736  16.299  13.742  11.326  0.1023  0.3823 -0.1462
27553W        W43737  16.973  12.659   1.366 -0.3162  0.1330  0.0591
27554W        W43738   1.542   4.520   4.437  0.0261  0.3930 -0.2680
27555W        W43739  17.863   1.758   1.700 -0.3576  0.0689  0.0865
27556W        W43740  15.619   2.757   0.474  0.3553  0.6697  0.0353
27557W        W43741  17.677  12.913   0.774  0.2169  0.1105  0.2379
27558W        W43742  10.465  12.842   0.667 -0.1466 -0.2636 -0.2134
27559W        W43743   9.803  12.341   3.719  0.0461  0.1338  0.1090
27560W        W43744  12.406   0.799   3.111  0.3271 -0.1884 -0.2029
27561W        W43745  10.783   9.020   0.210 -0.1428  0.0346  0.1139
27562W        W43746  17.999   7.420  12.737 -0.0771  0.3967  0.2207
27563W        W43747  14.426  12.133   4.354 -0.0261 -0.0413  0.2282
27564W        W43748  18.397   9.138   1.434  0.0027 -0.1405  0.0722
27565W        W43749   1.695   7.871   3.625  0.1648  0.0285  0.0826
27566W        W43750   8.253  13.966  14.203  0.0562 -0.0394  0.1803
27567W        W43751   4.738  14.607   4.961  0.0228 -0.3168  0.0653
27568W        W43752  14.848   2.541  16.104  0.0380 -0.0086 -0.2685
27569W        W43753  15.075  13.993   3.274  0.3269 -0.1145  0.0000
27570W        W43754   9.407   1.103  13.803  0.2531 -0.1125 -0.5529
27571W        W43755   2.399   1.042  16.068  0.2622  0.0313  0.2545
27572W        W43756  15.899   0.114  12.435 -0.3065  0.1211  0.1182
27573W        W43757   7.635  12.931   0.405  0.1720  0.0510  0.2056
27574W        W43758   5.147   1.558  13.267  0.3289 -0.1175 -0.1630
27575W        W43759   7.977  11.125  10.986 -0.3403 -0.1129 -0.0310
27576W        W43760   3.191  13.902  13.705 -0.2563  0.0523  0.0167
27577W        W43761  17.708   1.744  12.677 -0.1671  0.0698  0.0266
27578W        W43762  16.018   0.642   1.425 -0.0841 -0.0334 -0.3321
27579W        W43763   8.175  15.776   4.561  0.1138 -0.0143 -0.0048
27580W        W43764  12.449  17.505  11.257 -0.0449 -0.3472 -0.1146
27581W        W43765   6.323  10.536  13.517 -0.1859 -0.2922  0.0359
27582W        W43766   3.058   3.869   3.805 -0.0432 -0.1673  0.0035
27583W        W43767   5.454  10.130  14.590  0.2769  0.1365 -0.2483
27584W        W43768   2.711  17.456   2.209  0.0147  0.3354 -0.0735
27585W        W43769  18.456   5.596  12.662  0.1007 -0.1555 -0.1331
27586W        W43770  13.024   8.469   0.095  0.5755 -0.1086  0.2139
27587W        W43771  10.604  11.524  15.580 -0.1960  0.0337 -0.1415
27588W        W43772  11.050   6.888  13.112 -0.0647  0.0470  0.1660
27589W        W43773  16.637  18.227  12.489 -0.0197  0.2072 -0.0347
27590W        W43774   3.095   4.327  15.302  0.0006  0.2598 -0.1623
27591W        W43775  15.011  13.345  11.376  0.2898 -0.0778 -0.0182
27592W        W43776  18.352   0.016  12.273 -0.2295 -0.2209  0.0045
27593W        W43777   4.699  11.285  15.663 -0.1693 -0.0958  0.2352
27594W        W43778   5.966   0.007  16.065 -0.2516 -0.0666  0.1931
27595W        W43779  16.019  17.522   4.313  0.0377 -0.1160 -0.1254
27596W        W43780  17.327  12.783   4.279  0.0125  0.0788  0.2108
27597W        W43781  17.200   8.000  15.081  0.0051  0.2164  0.3207
27598W        W43782   1.961   6.288  12.124  0.1873  0.2157  0.0159
27599W        W43783   8.096   3.216   1.241  0.0797  0.1023 -0.1427
27600W        W43784   7.703  17.479  13.713 -0.1135 -0.0487  0.0726
27601W        W43785   9.074   3.471   4.224 -0.0721  0.0491  0.2772
27602W        W43786   1.030  11.393  13.432 -0.1979 -0.0837 -0.1033
27603W        W43787   1.969  17.553   4.337 -0.2439 -0.2458 -0.0214
27604W        W43788   7.200   1.258   1.323  0.1153 -0.2367  0.3539
27605W        W43789  14.120  14.408  12.212  0.1598  0.2015  0.2101
27606W        W43790   3.116   7.070  12.995 -0.1642 -0.1383  0.1087
27607W        W43791   4.360   4.282   5.750 -0.0585  0.2630  0.0953
27608W        W43792  17.602   4.447  13.799  0.0910 -0.2533  0.0025
27609W        W43793   4.860   2.140  12.046  0.1578 -0.2230 -0.0316
27610W        W43794   0.681  16.300  12.539 -0.0449 -0.2117  0.0415
27611W        W43795   4.840   6.189  11.460 -0.0180  0.0479 -0.4392
27612W        W43796  16.672   7.647  13.334 -0.0829  0.2123  0.0094
27613W        W43797  15.252   1.855   4.514 -0.2552 -0.0749  0.2426
27614W        W43798  17.188   2.761   3.020 -0.0321 -0.0385  0.1334
27615W        W43799   8.958  16.077  13.708  0.2785  0.3139  0.0410
27616W        W43800   1.422  10.586   4.672 -0.0716  0.2955  0.1584
27617W        W43801  15.969  11.866   0.957  0.0249 -0.2678 -0.1778
27618W        W43802   2.412  17.567  13.274 -0.0115  0.0017 -0.0119
27619W        W43803   9.688   1.533  15.213 -0.2332 -0.2231 -0.0336
27620W        W43804   3.878  12.497   1.532  0.0430 -0.3278  0.1620
27621W        W43805  11.811  10.867  13.379 -0.0229  0.4051 -0.2892
27622W        W43806   0.168  13.597  11.179 -0.2199 -0.1519 -0.5191
27623W        W43807  11.561  15.211  15.906  0.0396 -0.2422  0.4156
27624W        W43808   2.637   5.487  13.261 -0.2493 -0.0604  0.2146
27625W        W43809   2.241   0.997   1.849  0.0889  0.0558 -0.3765
27626W        W43810   5.970  17.183   4.316 -0.0034 -0.0340  0.2313
27627W        W43811  14.657  15.799   4.386  0.0780  0.1796  0.3917
27628W        W43812  16.143   0.385  16.118  0.4372 -0.1729 -0.1867
27629W        W43813  16.948   5.535   2.457  0.0326  0.3563  0.3322
27630W        W43814  14.929  16.120  13.073 -0.2399  0.2823  0.0264
27631W        W43815   9.745  12.882   1.163  0.1722  0.0065 -0.0155
27632W        W43816  17.252  12.799  12.479 -0.0551  0.2282 -0.3071
27633W        W43817   0.603  15.077  12.499 -0.0506 -0.0125  0.3770
27634W        W43818   6.049   5.921  14.193 -0.0948  0.2614 -0.0273
27635W        W43819  14.148  15.852   0.658  0.0071 -0.0059 -0.1783
27636W        W43820   0.391  12.877   1.006 -0.0652  0.0615 -0.0440
27637W        W43821  11.770   2.324   4.341 -0.2647  0.3224 -0.2696
27638W        W43822   2.893   7.573   2.168 -0.0899 -0.1971 -0.0380
27639W        W43823  17.238   9.844  15.171  0.2565 -0.2717  0.1178
27640W        W43824  11.168   2.452   1.788  0.3659  0.2736  0.2215
27641W        W43825   2.202   2.551  15.493 -0.0104  0.0859 -0.0230
27642W        W43826  12.778   2.280   3.362  0.1743 -0.2077  0.0772
27643W        W43827  16.633   6.535   2.822  0.2008 -0.1617 -0.2803
27644W        W43828   5.559   6.708   2.070  0.4997 -0.0411 -0.4975
27645W        W43829  13.050  12.606  11.406  0.1574 -0.3138 -0.2403
27646W        W43830  17.479   5.992  15.702 -0.1243 -0.1208 -0.0100
27647W        W43831  14.601   9.222  13.194 -0.5259  0.0759  0.0422
27648W        W43832   0.698   7.938   3.311  0.0010 -0.5629  0.1132
27649W        W43833  10.992  11.909  13.404  0.2303  0.1672  0.1870
27650W        W43834  11.958   4.655  11.519 -0.0507  0.0361  0.2601
27651W        W43835   0.463  12.267  13.645 -0.0920  0.4288  0.4544
27652W        W43836  11.818   9.016  12.904  0.1056  0.0889  0.1052
27653W        W43837   2.137  13.352   0.656 -0.2475  0.3543  0.1641
27654W        W43838  15.762   7.123  13.717 -0.1186 -0.1798  0.3092
27655W        W43839  16.443  17.367   4.597  0.0375 -0.2066 -0.1248
27656W        W43840   0.709  15.582   3.221  0.0117  0.1869  0.0886
27657W        W43841  17.624  12.003   2.845 -0.0257  0.0182 -0.0750
27658W        W43842  11.976   6.011  13.344 -0.1138 -0.3239 -0.2061
27659W        W43843   8.798  17.289   4.322  0.1103  0.1124  0.0322
27660W        W43844  18.188   1.065  14.251 -0.3897  0.0716  0.1734
27661W        W43845   1.491   1.732   0.494  0.2217 -0.1634 -0.2159
27662W        W43846   9.189   5.372   3.317 -0.1916  0.0772 -0.0117
27663W        W43847  10.106   8.763   4.969 -0.0365  0.1869 -0.0190
27664W        W43848   8.883   6.081   4.005  0.1683  0.1054  0.2063
27665W        W43849   1.730   2.025  13.559  0.2477 -0.1820  0.0101
27666W        W43850   5.971   8.448  13.044 -0.5376  0.0762  0.1200
27667W        W43851  17.030  11.386   4.539  0.2165 -0.1852  0.0570
27668W        W43852   6.092  10.586  12.593  0.0641 -0.0584  0.1671
27669W        W43853  15.369   7.611   5.160  0.2138  0.0028 -0.2406
27670W        W43854   3.425   6.844  11.236  0.0393  0.1886 -0.0244
27671W        W43855   5.302   4.456  11.664 -0.1688 -0.0476  0.0924
27672W        W43856  11.986   2.159   5.284  0.0215 -0.0672  0.0208
27673W        W43857   3.453   7.365   0.011 -0.0151 -0.3600  0.2559
27674W        W43858   5.712  16.833   3.441 -0.4636  0.0208  0.0889
27675W        W43859   6.262   9.322   2.734  0.1434  0.1736  0.2186
27676W        W43860   1.181   4.523  11.256 -0.0068  0.2262 -0.2475
27677W        W43861   2.254  17.147   5.345  0.1731 -0.1267  0.0313
27678W        W43862   1.870   9.917   0.139 -0.0721 -0.2821 -0.2250
27679W        W43863  13.148  10.404  15.209 -0.0582  0.0758  0.0118
27680W        W43864   9.807   1.217   4.628 -0.0808 -0.1219 -0.0101
27681W        W43865   8.693   9.889   9.984 -0.1140 -0.1094 -0.3426
27682W        W43866  16.946   2.311  14.867 -0.0864 -0.1039  0.3236
27683W        W43867  12.421   6.602   0.188 -0.1098 -0.0934  0.0001
27684W        W43868   9.979  11.191   4.179 -0.1506  0.2193  0.2206
27685W        W43869  11.428   6.806   4.074 -0.2282  0.2169  0.0266
27686W        W43870   6.460   2.104   4.572  0.1723  0.0060 -0.0666
27687W        W43871   1.788  18.221  13.232 -0.0489  0.2379  0.1044
27688W        W43872   7.803  18.223   5.174 -0.0343 -0.0068 -0.2461
27689W        W43873   2.603   5.430  14.177 -0.0047 -0.1591 -0.2416
27690W        W43874   1.050  12.254   0.018 -0.0704 -0.3733 -0.1898
27691W        W43875  17.469   2.881  14.546  0.1332  0.0255  0.1320
27692W        W43876   9.158  14.775   1.864  0.3223 -0.1812 -0.2856
27693W        W43877  14.540   3.890   0.739  0.3125 -0.1148  0.2187
27694W        W43878  10.117   8.230  14.870 -0.1676 -0.1098 -0.1247
27695W        W43879  11.099   0.278  13.256  0.1121  0.4523 -0.3354
27696W        W43880   0.491   1.830  15.391  0.0789  0.1728 -0.0254
27697W        W43881   5.755   1.497   2.652  0.3529  0.0429 -0.0955
27698W        W43882  13.504   7.334   4.539 -0.0379  0.2282 -0.1497
27699W        W43883  12.786  17.290   4.761 -0.0606  0.1108  0.0693
27700W        W43884   6.032  11.880  13.203  0.0491  0.0389  0.1268
27701W        W43885  17.451  12.370  12.569 -0.0985 -0.0409 -0.0169
27702W        W43886   0.797  16.759   2.239 -0.0260  0.3277 -0.0650
27703W        W43887   1.651  18.274   3.427  0.3783  0.0722 -0.3029
27704W        W43888  15.170   8.052  14.716 -0.1198 -0.2500  0.0256
27705W        W43889   7.397   1.010  15.220 -0.4489  0.5443  0.0834
27706W        W43890  12.258   2.390  11.629 -0.0849  0.1642  0.3861
27707W        W43891   1.487  15.861  13.633  0.0761 -0.1609 -0.4120
27708W        W43892  17.398   7.093  12.476 -0.0418  0.3478  0.1661
27709W        W43893   8.545  17.450   3.669  0.2410  0.0861  0.1112
27710W        W43894  18.160  17.930   4.742 -0.2391  0.3777 -0.2039
27711W        W43895  13.298   5.578   0.585 -0.0957  0.1472 -0.1559
27712W        W43896  16.760   8.199  12.066  0.1844 -0.1566 -0.3028
27713W        W43897  18.297  12.422   4.176 -0.0151  0.0375  0.1971
27714W        W43898   6.811   2.140   3.086  0.0091  0.0768 -0.0107
27715W        W43899   9.128  15.597  13.892  0.1431 -0.1803 -0.1330
27716W        W43900  11.134  12.224  14.725 -0.1287 -0.0487 -0.2679
27717W        W43901   0.168  18.214  15.812  0.1933  0.0437 -0.2108
27718W        W43902   9.594   0.385  13.134  0.1443 -0.1710  0.2336
27719W        W43903  12.463  12.653   5.641 -0.0780 -0.0952 -0.0416
27720W        W43904   5.232   8.899  14.645 -0.0366  0.2927 -0.0556
27721W        W43905  15.915   8.667   2.918  0.3946  0.3388  0.2907
27722W        W43906  10.026   4.320   5.976 -0.1758 -0.0113  0.0639
27723W        W43907   0.536  17.468  12.281  0.1064 -0.1233 -0.1369
27724W        W43908   0.639  12.592  12.038 -0.0172 -0.1207  0.0061
27725W        W43909   1.669   5.696   5.361 -0.1440 -0.2236 -0.1944
27726W        W43910  18.267   7.772   3.225  0.1367 -0.3721  0.4258
27727W        W43911   0.331   0.286  12.089 -0.0302 -0.0937  0.1294
27728W        W43912   0.441  18.113   4.800  0.0982 -0.1824  0.1568
27729W        W43913   9.285  12.151  11.535 -0.0804 -0.0876  0.1758
27730W        W43914  18.173  18.290  11.907  0.1156  0.0689  0.0448
27731W        W43915   4.266  15.227   2.307  0.2369 -0.0401  0.6037
27732W        W43916  17.439   1.076   1.401 -0.0999  0.1928 -0.3292
27733W        W43917   3.905   0.951  12.244  0.2572 -0.1632 -0.0339
27734W        W43918   4.249   2.071  14.577 -0.0848  0.0081  0.0813
27735W        W43919  12.511  10.783  14.738  0.0560  0.1354 -0.3989
27736W        W43920   3.018  13.797  11.579 -0.1659 -0.0523  0.1436
27737W        W43921  12.186   9.338   1.387  0.3581 -0.1446  0.0088
27738W        W43922   4.971   3.078  13.994 -0.1150 -0.1920  0.1919
27739W        W43923   0.353  14.356   3.294 -0.2388 -0.0834  0.0124
27740W        W43924   0.114  16.732   2.760 -0.2090  0.0346  0.1618
27741W        W43925   8.991   2.903  14.469  0.2231 -0.2188 -0.2704
27742W        W43926  16.154   4.688   1.859 -0.0072 -0.0324  0.0718
27743W        W43927  17.157   2.475  14.402  0.0842  0.1277  0.1836
27744W        W43928  11.910  11.682   2.203 -0.0350 -0.1469 -0.2340
27745W        W43929  11.766  17.933   5.175  0.0974 -0.0942 -0.1150
27746W        W43930  15.458  13.157   4.444  0.2297  0.1758 -0.0427
27747W        W43931   4.202  15.709  13.372  0.0661 -0.1881  0.1894
27748W        W43932  11.463  17.416   3.114  0.1656  0.0844  0.0038
27749W        W43933   5.605  10.815  14.965 -0.1070  0.1044  0.1191
27750W        W43934   6.928   6.630   1.137  0.0688 -0.2336  0.0923
27751W        W43935   3.581   2.684   4.033  0.0957 -0.1522  0.3181
27752W        W43936   2.833   4.290   2.346  0.0097 -0.0007 -0.3215
27753W        W43937  17.964  13.676   0.460 -0.0239  0.0493  0.1937
27754W        W43938  18.346  11.051   4.937  0.2122 -0.0994 -0.0553
27755W        W43939   7.842   9.443  14.238  0.1944 -0.2242  0.1510
27756W        W43940  17.554   1.011  13.609  0.0560  0.0420  0.0922
27757W        W43941  18.193  11.172  15.079  0.2170  0.1391 -0.0320
27758W        W43942  17.699  10.318   1.436  0.1744  0.1516 -0.0321
27759W        W43943  10.775   6.033  12.717 -0.0913  0.3234 -0.0848
27760W        W43944  14.037  18.493  11.341 -0.3062 -0.0358 -0.0029
27761W        W43945   1.599  15.924   0.976  0.1662  0.2272  0.0959
27762W        W43946  16.096   1.741  14.643  0.0570 -0.1459 -0.4248
27763W        W43947  12.857   1.748  15.674  0.1518  0.3111  0.1695
27764W        W43948   9.211  11.785   2.525 -0.2954  0.2987 -0.1210
27765W        W43949   7.500  16.647  15.977  0.0558  0.0090 -0.0195
27766W        W43950   0.423   7.558  14.542 -0.1626  0.2196  0.0013
27767W        W43951   3.774   3.830  11.504 -0.1516  0.1228  0.0873
27768W        W43952   6.724  17.665  15.424  0.0989  0.2553  0.0210
27769W        W43953  14.114  10.848  13.502  0.2575  0.1826  0.0695
27770W        W43954  13.855  11.205  11.954  0.1094  0.1288 -0.2651
27771W        W43955   1.161  17.020   1.839  0.1624  0.1039 -0.0592
27772W        W43956   9.386   5.254   1.459 -0.1275 -0.0547 -0.2692
27773W        W43957   7.289   4.683   5.022 -0.0502  0.0837 -0.0832
27774W        W43958   7.840  12.540   2.269 -0.0525 -0.0328 -0.3807
27775W        W43959  13.922  11.855   4.506  0.3589 -0.6063  0.2746
27776W        W43960   7.372  17.750  12.315  0.1782  0.2162  0.0479
27777W        W43961  16.649  15.049   0.841  0.0450 -0.3011 -0.0285
27778W        W43962   9.223   3.824   1.124  0.1300 -0.2759 -0.1944
27779W        W43963   8.483   2.576   0.748  0.0417 -0.0839 -0.0286
27780W        W43964  18.214   7.503  13.188 -0.1618  0.0006  0.0041
27781W        W43965  11.094   3.383   2.561 -0.2059  0.2516  0.0132
27782W        W43966  17.928  12.418  15.247  0.0001 -0.2833  0.1834
27783W        W43967   9.008  12.824   4.267  0.1678 -0.3400 -0.1398
27784W        W43968   3.337  13.341   1.463  0.0327  0.1168  0.0091
27785W        W43969  17.959  13.281   2.418 -0.3512  0.1064 -0.2113
27786W        W43970   6.615   8.286   4.115 -0.0054  0.0462  0.0707
27787W        W43971  17.870   3.251   3.047  0.2296 -0.2300 -0.1116
27788W        W43972   4.961  16.582  12.525  0.1712  0.1371  0.1665
27789W        W43973  13.175   4.391   1.032  0.2752  0.0385  0.2909
27790W        W43974   7.206   3.979   5.542 -0.2107  0.0407  0.3045
27791W        W43975   5.526   9.711  12.666  0.0659  0.1213 -0.1495
27792W        W43976  17.661   8.654  12.920 -0.1953  0.2788  0.0672
27793W        W43977   2.216   0.397   1.768  0.0055  0.3155 -0.0144
27794W        W43978  10.997   4.905  14.674  0.1120 -0.0134 -0.0946
27795W        W43979   9.538   7.850   0.001  0.1212  0.0543  0.2400
27796W        W43980  14.877  11.177   4.624  0.1600  0.2138  0.3611
27797W        W43981  11.925  16.190  11.922  0.1645  0.0216  0.0086
27798W        W43982   4.856  13.134  13.907 -0.0423 -0.0759 -0.0117
27799W        W43983   9.816   9.473   0.118  0.3202 -0.0272  0.3104
27800W        W43984   4.379  12.593  12.399  0.0329 -0.0276 -0.1045
27801W        W43985   4.657  10.248  13.964  0.1132 -0.3306  0.0174
27802W        W43986   9.105  11.145   1.471 -0.0075 -0.0665  0.2411
27803W        W43987  13.196   1.267  12.744 -0.1288 -0.2679 -0.1970
27804W        W43988  13.511  15.336   0.016  0.2993  0.1509 -0.2191
27805W        W43989  16.143  17.236  11.019 -0.1819 -0.0445 -0.1010
27806W        W43990   8.882  16.713   5.453 -0.1067  0.2295  0.3729
27807W        W43991  14.877   1.359   1.951  0.1669 -0.4529 -0.2483
27808W        W43992  12.586  14.549   4.502 -0.0467  0.2767  0.1199
27809W        W43993  18.057  11.713   2.703  0.3197 -0.2821  0.2539
27810W        W43994  12.797  11.768   0.312 -0.0859  0.0789 -0.5162
27811W        W43995  16.279  13.408   4.438  0.3987 -0.0135 -0.0009
27812W        W43996  17.632   5.608  14.803 -0.3779  0.2022  0.0728
27813W        W43997   5.566   6.909   3.729  0.3092  0.0789 -0.0011
27814W        W43998   1.838   8.552   5.076  0.0979 -0.0511  0.1508
27815W        W43999  11.831   6.101  15.870 -0.0945  0.0270  0.0936
27816W        W44000   6.938   3.274  15.026 -0.4287  0.1529 -0.1808
27817W        W44001   4.635   0.277   1.207  0.0272 -0.1717  0.1383
27818W        W44002  14.604   8.223  12.096  0.2223  0.1381  0.0749
27819W        W44003   0.202  11.582   3.198 -0.2273 -0.0637  0.4292
27820W        W44004   4.899  15.431  13.885  0.3658  0.0691  0.1374
27821W        W44005  18.338   2.323   3.281 -0.0688 -0.2012 -0.1116
27822W        W44006  14.982   2.058  15.941 -0.2832  0.2044 -0.1622
27823W        W44007  11.811   3.507   1.585 -0.0277 -0.3886 -0.0166
27824W        W44008   7.068   8.372   3.297 -0.1069 -0.5129  0.0456
27825W        W44009  15.238  16.374   3.111  0.2508  0.2736  0.0646
27826W        W44010  10.106  11.328   3.017 -0.0415 -0.0322 -0.0122
27827W        W44011   9.349  12.629  16.044  0.0886 -0.0306  0.0480
27828W        W44012   2.926   9.466  12.824 -0.3274  0.2821  0.1486
27829W        W44013  18.140   9.173  11.890 -0.0949 -0.3086 -0.1957
27830W        W44014  11.831   5.154   2.195  0.2056  0.0129 -0.0008
27831W        W44015   0.126  13.522   1.641  0.0469 -0.1189  0.3346
27832W        W44016   2.406  10.504  12.043  0.1765 -0.1095 -0.3571
27833W        W44017  15.649   8.019   2.021  0.0160 -0.3274  0.0717
27834W        W44018   4.403  18.033  11.367 -0.0279 -0.1031 -0.2609
27835W        W44019   1.470  13.804   0.077 -0.1010 -0.0301 -0.1701
27836W        W44020   8.917   3.123   2.680  0.1207 -0.1641  0.0947
27837W        W44021  12.710   5.910  15.905 -0.1512 -0.0788  0.0182
27838W        W44022  14.913   5.001   4.699 -0.0067 -0.0445  0.0716
27839W        W44023   6.955  12.522   2.427  0.2831 -0.4481 -0.0719
27840W        W44024   4.795   9.380   3.745  0.2975  0.1519  0.1007
27841W        W44025  14.379  13.931   5.028  0.2311 -0.0359 -0.1338
27842W        W44026  17.374  13.232  14.949 -0.1116 -0.0207  0.1172
27843W        W44027   8.737  15.127   3.905  0.2260  0.0812 -0.1478
27844W        W44028   3.110  15.412  13.311 -0.0587  0.0589 -0.3740
27845W        W44029  10.450   8.847   3.112  0.1117 -0.1301  0.0861
27846W        W44030   0.669  15.672  15.712  0.0040 -0.2040 -0.1994
27847W        W44031  16.202  15.913   3.344  0.2517  0.1081 -0.3050
27848W        W44032  18.132   9.470   2.890 -0.1071  0.0452  0.1824
27849W        W44033  12.415   3.938  13.991 -0.3880  0.0161 -0.2409
27850W        W44034  12.982   9.972   3.938 -0.3124 -0.1087  0.0461
27851W        W44035   2.942   8.964  12.891  0.0249 -0.1571 -0.1584
27852W        W44036  13.660   5.562  10.873  0.3491 -0.0513 -0.0284
27853W        W44037  12.135   0.393  13.856  0.0908  0.0304 -0.3552
27854W        W44038   1.785  13.262  15.151  0.3351 -0.0887  0.0864
27855W        W44039   6.679  11.366  13.394  0.1666 -0.0248 -0.0094
27856W        W44040   2.369  15.740  11.761  0.3167 -0.2959  0.3178
27857W        W44041  14.122   4.023  13.220  0.1620 -0.3955 -0.2536
27858W        W44042   4.280  18.355   1.004 -0.2875 -0.2350  0.0090
27859W        W44043   0.710   9.271   5.176  0.2022  0.2655 -0.0760
27860W        W44044   7.227  11.880   2.425 -0.2337 -0.1035  0.1100
27861W        W44045  18.372  14.330   3.164 -0.2191 -0.2043  0.2878
27862W        W44046   6.664  17.594   1.863 -0.2867  0.2016  0.1156
27863W        W44047  12.610  10.484   1.927  0.1629 -0.0252 -0.1097
27864W        W44048   5.624   9.006   1.198 -0.0774  0.0066 -0.0859
27865W        W44049  18.171   8.287  14.584 -0.1243 -0.0196 -0.1655
27866W        W44050   8.401   1.535  12.375  0.1901  0.0675  0.1266
27867W        W44051   1.126  11.958   0.445 -0.0156 -0.1597  0.2482
27868W        W44052  11.001   0.734  15.763 -0.1471 -0.2192 -0.1498
27869W        W44053   6.024   3.578  12.369  0.0186 -0.4914 -0.0122
27870W        W44054  17.137   2.900  11.029  0.0743  0.1274  0.0908
27871W        W44055  17.901   5.882   3.724 -0.0444 -0.2868 -0.2174
27872W        W44056   6.451  12.706  14.667  0.1264 -0.0551  0.1332
27873W        W44057   9.519   7.046   5.424 -0.3019 -0.2950  0.2543
27874W        W44058  13.078  11.571   5.068  0.2529  0.2291 -0.0936
27875W        W44059  16.042  13.264  11.280 -0.2318  0.0829 -0.2902
27876W        W44060   2.460  11.912  14.366  0.2435 -0.2144 -0.0851
27877W        W44061  13.920   2.041  15.628 -0.2780 -0.0419 -0.0596
27878W        W44062   0.259   8.236  12.844 -0.0324 -0.1118  0.1095
27879W        W44063  17.996  15.024  14.341 -0.1743 -0.3459  0.3663
27880W        W44064  12.510  10.859   3.667  0.1406  0.0154  0.2785
27881W        W44065   3.226   7.271   1.110 -0.2885  0.0342 -0.1006
27882W        W44066  11.280   7.331  11.630  0.0211 -0.1057 -0.0982
27883W        W44067   5.389   7.741   0.632 -0.2003  0.0305  0.0895
27884W        W44068   6.682  15.660   3.131  0.0986 -0.2061  0.0743
27885W        W44069   0.538   1.120  10.923  0.2623  0.1438  0.0818
27886W        W44070  18.004   7.013   1.356 -0.0319  0.0288 -0.2669
27887W        W44071   6.148  10.724   5.317  0.0565 -0.3157  0.5021
27888W        W44072  11.639   0.157  13.626 -0.4801 -0.5393  0.1413
27889W        W44073   3.676   3.880  15.645  0.2291  0.0622  0.1179
27890W        W44074   5.693  13.328   5.125 -0.2692  0.1124  0.1102
27891W        W44075   6.745  13.913   3.142 -0.1081 -0.0688 -0.0182
27892W        W44076  17.890   9.037   0.887  0.1116 -0.0233  0.0003
27893W        W44077   4.445  11.968   5.621 -0.2353  0.1393 -0.2716
27894W        W44078   5.598   8.355  15.347  0.1128 -0.0099  0.3045
27895W        W44079  10.710   1.704   4.447  0.1269  0.0766 -0.0867
27896W        W44080   7.895  15.918   0.044 -0.4839  0.2605 -0.1154
27897W        W44081  14.699  12.443   4.116 -0.0141 -0.1044 -0.0211
27898W        W44082   7.247   4.223  11.549  0.0857  0.0908  0.1276
27899W        W44083   7.886  12.902   3.775  0.0862  0.0644 -0.1823
27900W        W44084   3.548   4.758  15.907 -0.1863 -0.0375  0.1191
27901W        W44085   6.644   2.753  11.600  0.2796  0.1745 -0.0169
27902W        W44086   6.798  17.632  13.457 -0.4082 -0.0729  0.1165
27903W        W44087  13.645  10.858  15.129 -0.0263 -0.0026  0.2927
27904W        W44088   4.130   8.053  11.848  0.1536 -0.0889  0.0638
27905W        W44089  11.146  15.457   0.606  0.0546  0.0975 -0.1499
27906W        W44090  11.931  16.443   2.401  0.1113 -0.1200 -0.1318
27907W        W44091   0.737  15.165   2.225 -0.0270 -0.0582  0.0513
27908W        W44092   3.744   1.565   2.432  0.0243  0.0107 -0.0496
27909W        W44093   3.557   3.986   0.063  0.0953  0.0305  0.0093
27910W        W44094   1.239  11.440  12.925  0.0331  0.1951 -0.0413
27911W        W44095  17.569  12.732   3.223 -0.0614 -0.1213  0.0759
27912W        W44096   4.564  12.994  12.138 -0.1473  0.0447  0.0741
27913W        W44097  14.086  13.211   4.817  0.4597 -0.1671 -0.1690
27914W        W44098  17.267   6.272  16.057 -0.2277  0.0338 -0.2904
27915W        W44099  16.930   3.400   4.966  0.1577 -0.0356 -0.3469
27916W        W44100   0.495   6.317   5.757 -0.1596 -0.0746 -0.0304
27917W        W44101   4.271  16.943   1.719 -0.0489  0.2582  0.1656
27918W        W44102   0.234   7.207  13.212 -0.0998 -0.2160 -0.0445
27919W        W44103  16.916  14.448   2.671 -0.1295 -0.0771  0.0779
27920W        W44104  17.747   7.904   3.150 -0.1505 -0.1917  0.0309
27921W        W44105   4.162   7.603  13.811 -0.1195 -0.2508  0.3492
27922W        W44106   4.613   9.570  11.595 -0.2696  0.2434 -0.0181
27923W        W44107   1.391  17.720  13.224 -0.0328 -0.2614 -0.1493
27924W        W44108   0.771  17.456  10.642 -0.1108  0.1610  0.2006
27925W        W44109   2.526   7.468   5.598  0.0629 -0.0907  0.0561
27926W        W44110  17.415   0.964  12.047  0.1837 -0.5132  0.0148
27927W        W44111   4.152   0.050   4.816 -0.0340  0.1455  0.0876
27928W        W44112  12.208  13.499   3.854 -0.1910  0.3995  0.0610
27929W        W44113   0.658   0.958   5.142  0.1532  0.1227 -0.2347
27930W        W44114   7.243  11.440   0.007 -0.3901  0.0657  0.1165
27931W        W44115   4.429   3.109  10.746  0.1295 -0.0144 -0.1066
27932W        W44116  16.717   3.474   4.350  0.4075  0.1951  0.2791
27933W        W44117   9.111   4.679   3.077  0.1192 -0.0513 -0.0052
27934W        W44118   6.817  15.896  11.114  0.2957  0.0069  0.0055
27935W        W44119  11.686   6.038  12.955 -0.1868 -0.0573 -0.2121
27936W        W44120   7.115  12.145  12.102 -0.1119 -0.0815  0.2427
27937W        W44121   3.236  15.208   1.918  0.1696  0.0214 -0.0021
27938W        W44122  10.934  12.699  13.307 -0.1339 -0.0482 -0.0660
27939W        W44123  16.948   4.299   3.914  0.1606 -0.1335  0.0968
27940W        W44124  15.849   0.489   0.981  0.0097 -0.0728 -0.0707
27941W        W44125   3.280   5.865  13.777  0.2404 -0.2537 -0.2461
27942W        W44126  11.180  15.344  11.839 -0.0595 -0.0077 -0.0458
27943W        W44127   8.645   0.098  15.377 -0.1600 -0.0403  0.1900
27944W        W44128   7.948  17.761   4.068  0.0315 -0.0659 -0.0239
27945W        W44129   2.300  10.057   0.533 -0.2854 -0.1675 -0.0457
27946W        W44130   8.801   2.598  13.569  0.2633 -0.0397  0.1972
27947W        W44131   6.892   6.112  15.104 -0.2205  0.1492  0.0442
27948W        W44132   6.349  16.902   1.440  0.1298 -0.0032 -0.6635
27949W        W44133  13.511  17.224   4.923 -0.1899  0.1133  0.0100
27950W        W44134   0.607   8.068   4.707  0.2798 -0.0477  0.1843
27951W        W44135  15.205   7.053   3.551  0.1164  0.1091  0.0526
27952W        W44136  14.006  15.400   2.790  0.0289  0.0066 -0.1383
27953W        W44137   5.094  18.368   4.510 -0.0001 -0.0849 -0.0294
27954W        W44138   1.931  16.944  11.084 -0.2454 -0.0128  0.1621
27955W        W44139  13.563   3.479  13.154 -0.0793  0.0680 -0.0193
27956W        W44140   7.687  13.802   0.579 -0.2257  0.0195  0.0626
27957W        W44141   0.576  18.098   1.022 -0.2605 -0.0891  0.2525
27958W        W44142   4.599   3.605   1.199  0.1360 -0.0928 -0.1302
27959W        W44143   5.988   3.242  15.231 -0.2246  0.1882  0.1946
27960W        W44144  18.229   3.754  13.806 -0.2290 -0.0393 -0.2771
27961W        W44145   0.869  18.233   4.545 -0.1575 -0.2907  0.0748
27962W        W44146  14.699   5.712   2.308 -0.0982 -0.5613  0.2158
27963W        W44147  11.292  17.356  15.682  0.0233  0.2832  0.1273
27964W        W44148   1.073   3.681   0.308 -0.2848 -0.1348  0.1545
27965W        W44149   3.952  18.519  13.710 -0.1188  0.0606 -0.0344
27966W        W44150   5.501  15.883  11.170 -0.0672  0.2143  0.2016
27967W        W44151   6.755  12.958  13.717  0.0712  0.0022  0.0645
27968W        W44152   4.306  14.061  12.359 -0.1955 -0.2262 -0.0115
27969W        W44153   9.562   6.352  14.744 -0.1058 -0.0816  0.0258
27970W        W44154  17.029   6.401  11.764  0.1071  0.0370  0.0474
27971W        W44155  10.211   1.592  13.470 -0.0525  0.2473 -0.3329
27972W        W44156  12.916   2.292   5.091  0.2175  0.0524 -0.3182
27973W        W44157   7.716  11.120   5.928  0.2925  0.1886 -0.2901
27974W        W44158  16.268  12.818   0.870  0.1021  0.1757  0.3588
27975W        W44159  15.188   5.697   4.237 -0.2043  0.0965 -0.0733
27976W        W44160   7.608   7.505   1.957 -0.0818 -0.1960 -0.1393
27977W        W44161   8.739  13.263  12.733 -0.0720 -0.1336  0.1835
27978W        W44162  14.744   1.716   4.358  0.0786 -0.0078 -0.1619
27979W        W44163  17.780   8.423   3.191 -0.1268  0.1663 -0.0498
27980W        W44164   9.881   6.707   5.496 -0.0592 -0.2151 -0.1363
27981W        W44165  15.666   6.871  14.718  0.0839 -0.0150 -0.1695
27982W        W44166   6.903  12.048  15.989  0.0226 -0.0297 -0.2155
27983W        W44167  15.547  15.024   0.813 -0.5857  0.4373 -0.2592
27984W        W44168  15.796   8.892   4.761  0.3079  0.1449  0.1512
27985W        W44169   6.667  10.732  10.610 -0.0519 -0.2380  0.0291
27986W        W44170   1.126   2.033   3.722 -0.0531  0.0796 -0.0892
27987W        W44171   4.642  14.501  14.066 -0.0301 -0.3540  0.0227
27988W        W44172  10.031  15.850   0.088 -0.2560  0.2781  0.0834
27989W        W44173  18.164   1.464  11.374  0.0590 -0.2347  0.1688
27990W        W44174   8.047   8.588   2.662 -0.1163  0.3043 -0.1644
27991W        W44175   7.008   2.955   2.646 -0.0846  0.0391 -0.1105
27992W        W44176  14.259   1.778  11.482  0.2530  0.4413  0.0366
27993W        W44177  13.207   9.497  15.905  0.2500 -0.1247  0.1867
27994W        W44178  16.839   0.124  12.326 -0.2064 -0.2287  0.0823
27995W        W44179   6.003  13.107   1.498  0.0140  0.2680 -0.2579
27996W        W44180  11.356   9.109   2.637 -0.0415 -0.3644  0.4772
27997W        W44181   3.885   6.313   1.344  0.1035 -0.3669  0.2751
27998W        W44182   6.876   0.521  10.863  0.2069 -0.0754 -0.0008
27999W        W44183   3.636  13.808   3.661 -0.0406 -0.2100 -0.0157
28000W        W44184  10.385   8.112   1.458  0.2110  0.2806  0.1942
28001W        W44185  17.588   9.467   3.744  0.0495 -0.0535  0.2421
28002W        W44186  10.459  14.941   2.233  0.2453  0.0087 -0.0279
28003W        W44187   8.569  13.586  15.408  0.1069  0.2387  0.0336
28004W        W44188   5.925   5.826   0.730 -0.1404  0.3667  0.0706
28005W        W44189   6.394   3.378   4.790  0.0986  0.3226 -0.2893
28006W        W44190   0.703   8.872  13.479 -0.3750  0.0539  0.1190
28007W        W44191  15.565  10.737  15.602 -0.2848 -0.0979  0.1270
28008W        W44192  18.390   9.261  14.858 -0.0352  0.1511  0.0795
28009W        W44193  18.506   7.993  15.491  0.3212 -0.2233  0.1054
28010W        W44194  14.038   4.936   3.659 -0.0994  0.1029  0.2376
28011W        W44195  15.298  12.313  11.861 -0.2339 -0.1624  0.2036
28012W        W44196   0.791  14.616   0.774 -0.0591 -0.1346 -0.3145
28013W        W44197   6.563   1.856  12.264 -0.2132  0.0029 -0.2042
28014W        W44198   5.080  18.021  11.807  0.2549 -0.4747 -0.4296
28015W        W44199   3.364   0.862   1.347  0.2164 -0.1943  0.1476
28016W        W44200   5.998   1.854   0.808 -0.0627 -0.0650 -0.1184
28017W        W44201  13.786  17.816   0.511  0.0291  0.0515  0.0871
28018W        W44202   9.382   0.782  13.406  0.3017  0.0215  0.1507
28019W        W44203  12.579   9.586   2.189 -0.0400  0.0642 -0.4038
28020W        W44204   6.685   8.728  13.731 -0.2172 -0.4262  0.1125
28021W        W44205  11.858  17.900  15.905 -0.1357 -0.2330 -0.0211
28022W        W44206   5.123  10.131  11.686 -0.1397 -0.1216 -0.2916
28023W        W44207   5.494   8.361  13.100  0.0983 -0.0909 -0.2646
28024W        W44208   5.876   8.929  15.923  0.2488  0.0804 -0.2369
28025W        W44209   3.579   2.996  15.951 -0.1946  0.0961 -0.1694
28026W        W44210  16.359   4.448   5.536 -0.2719  0.2269  0.2785
28027W        W44211  15.397   2.239   3.062 -0.0278 -0.2441  0.0833
28028W        W44212  12.403  10.632   4.253 -0.3545 -0.4421  0.2073
28029W        W44213  16.529   5.144   6.018 -0.3290  0.1894  0.1685
28030W        W44214  16.731   3.707   2.779 -0.0252 -0.2197  0.3152
28031W        W44215   4.254  17.759   2.270 -0.3721  0.0407  0.1883
28032W        W44216   5.127   7.693   0.196  0.1479 -0.1252 -0.1139
28033W        W44217  14.063  15.820  14.114  0.2323  0.1529  0.0120
28034W        W44218  17.837   6.903  11.303  0.0958 -0.3735 -0.3065
28035W        W44219   0.420  10.190   2.050 -0.1429 -0.2443  0.3819
28036W        W44220   3.535  10.893   4.281 -0.0386  0.0892  0.0565
28037W        W44221   3.331  12.540  11.701 -0.3793  0.0015 -0.1392
28038W        W44222  11.987  17.750   2.379 -0.1654 -0.0764  0.0432
28039W        W44223  12.277  13.201  14.758  0.3472  0.1661  0.1484
28040W        W44224   5.875   0.886  13.074  0.2214 -0.4671  0.2249
28041W        W44225   3.706   5.247   3.963  0.3808  0.1989 -0.0215
28042W        W44226  14.191  11.904  13.996  0.2512  0.3157 -0.0975
28043W        W44227   1.628   9.783  11.238 -0.1760  0.1638  0.4113
28044W        W44228  14.001   6.126   1.841 -0.2004  0.0994  0.0706
28045W        W44229  16.972  13.208   1.424  0.0393  0.2948 -0.1411
28046W        W44230  11.642   2.025   3.498  0.0750  0.0628 -0.1766
28047W        W44231   9.638  10.052  11.913 -0.0482  0.1169  0.0613
28048W        W44232   6.950  15.299  12.904  0.0234 -0.0278 -0.4867
28049W        W44233  17.616  11.378   3.855  0.2063  0.1733 -0.0768
28050W        W44234   8.061  16.644   3.072 -0.0850 -0.0783  0.2746
28051W        W44235   9.128  14.469   1.495  0.1661 -0.0598 -0.1467
28052W        W44236   8.843  11.470  12.569 -0.0464 -0.1611  0.1764
28053W        W44237   6.935  12.066   4.286 -0.0668 -0.1026 -0.0178
28054W        W44238  15.901  13.070  11.717  0.1764  0.3673  0.0826
28055W        W44239  15.801   1.346   2.098  0.0285 -0.1132 -0.0991
28056W        W44240  12.815   3.920   3.628  0.0371 -0.2273  0.2339
28057W        W44241  11.870  17.840   3.858 -0.1099  0.1372 -0.1983
28058W        W44242  17.803   8.735   0.486 -0.2238 -0.4337  0.3917
28059W        W44243  11.460  16.406  11.743  0.2014 -0.0804 -0.1051
28060W        W44244   8.545   9.728  13.655 -0.2502  0.1419 -0.0092
28061W        W44245  17.784  18.144   0.567 -0.0014  0.2413  0.2312
28062W        W44246   4.057  15.264  14.913  0.3850 -0.0701 -0.1250
28063W        W44247   3.002  12.553   0.154  0.2857 -0.2152 -0.0084
28064W        W44248  17.470   7.547   0.803 -0.0481  0.1300  0.2692
28065W        W44249   3.222   6.779   4.743 -0.4126  0.1493 -0.2560
28066W        W44250   0.649   6.944  14.220 -0.0538 -0.0019 -0.3551
28067W        W44251  16.366  10.444  15.427  0.0823 -0.4192  0.0852
28068W        W44252  14.532  11.456  15.866  0.1180 -0.1136  0.3245
28069W        W44253  16.995   3.155  13.376  0.0509 -0.0447  0.1556
28070W        W44254   3.775  13.192  12.359 -0.1526 -0.0877 -0.2591
28071W        W44255   9.926   9.193  15.888 -0.0677  0.3610 -0.2041
28072W        W44256  10.676   4.657  11.484 -0.2260 -0.0028  0.0814
28073W        W44257  14.045   4.693   1.475  0.0020 -0.0630  0.0916
28074W        W44258   5.438  14.457  15.792 -0.2466 -0.1993  0.1027
28075W        W44259   2.454  17.520  14.218  0.1121  0.1013 -0.1388
28076W        W44260   1.078  17.035   4.305  0.2360 -0.2439 -0.1298
28077W        W44261   0.400   0.590  12.536 -0.0890 -0.1267  0.0604
28078W        W44262  10.735   4.821  13.079 -0.0650  0.3332  0.0818
28079W        W44263   5.347  10.813   2.141 -0.3312 -0.1059  0.0538
28080W        W44264   0.960  12.458   4.951  0.0401 -0.0979 -0.1453
28081W        W44265  15.464  14.130  12.362  0.0068 -0.2539 -0.0123
28082W        W44266  11.796   9.415   2.750  0.0209 -0.1530 -0.1846
28083W        W44267  14.316  16.977  13.344  0.0262 -0.2088  0.2025
28084W        W44268  11.676   6.138   4.728  0.3075  0.0789 -0.0140
28085W        W44269  17.797   5.551   4.847 -0.0727 -0.1050 -0.0149
28086W        W44270  12.476  13.615  12.178  0.0938 -0.1442 -0.2201
28087W        W44271   3.361  17.878   2.864  0.1721  0.0737  0.0358
28088W        W44272  12.741   3.315   5.418 -0.1133  0.1076 -0.4336
28089W        W44273  15.775  10.479   2.978  0.0779 -0.2240 -0.0529
28090W        W44274   4.306   1.239   0.912  0.1636  0.1959  0.0302
28091W        W44275  12.181   7.197  12.890 -0.0131 -0.0594 -0.1074
28092W        W44276   8.518   8.136   0.471  0.1132 -0.3015  0.1450
28093W        W44277   7.528   7.878   4.325  0.0960  0.0266  0.0655
28094W        W44278  11.519   2.360   0.473  0.2241  0.1103 -0.1038
28095W        W44279  18.030   3.953   1.668 -0.3222 -0.3100 -0.0194
28096W        W44280  18.076   4.356  12.872  0.0398 -0.0746  0.3318
28097W        W44281  12.976   1.736  11.226 -0.1242 -0.0074  0.3438
28098W        W44282   1.606  12.937  13.729  0.3564 -0.2306  0.0775
28099W        W44283   4.035  16.397  12.274 -0.1495 -0.0647 -0.0338
28100W        W44284   1.021  18.112  11.555 -0.0803 -0.0842  0.1027
28101W        W44285   2.144  16.998   0.332 -0.0545 -0.1691 -0.1729
28102W        W44286  13.004   3.516  16.030  0.2853 -0.1853  0.4653
28103W        W44287   7.363   1.574  16.114  0.1880 -0.0836 -0.1085
28104W        W44288  12.365  14.818   3.559 -0.1339  0.0908 -0.0745
28105W        W44289   9.976   8.183  12.857  0.2255  0.1431  0.0735
28106W        W44290  11.542  18.047  13.613 -0.2051  0.2498  0.1540
28107W        W44291   3.698   4.958   5.194  0.1029 -0.3414  0.0624
28108W        W44292   0.419  18.393   4.180  0.0361  0.0670 -0.0093
28109W        W44293   2.531   4.214   0.064  0.1299  0.1705 -0.2406
28110W        W44294   9.885   7.614   0.730  0.0289 -0.0626  0.2867
28111W        W44295  15.274   9.572  13.877 -0.0637  0.2432 -0.0946
28112W        W44296  18.228  14.685  12.075 -0.0279  0.1440 -0.1380
28113W        W44297  16.075   5.505  16.060 -0.0105 -0.0246  0.0045
28114W        W44298  11.195  16.815  14.552 -0.0116  0.0532 -0.1309
28115W        W44299   1.703   5.650  11.097  0.1577 -0.0828  0.1533
28116W        W44300   2.463  17.202   1.895  0.0455  0.2884  0.2857
28117W        W44301   1.740   4.255  10.015 -0.2785 -0.1063 -0.0483
28118W        W44302   5.185  14.879  11.850 -0.2061  0.0310  0.1296
28119W        W44303  17.631   9.994  15.409  0.0206 -0.2555  0.0317
28120W        W44304   5.032   7.880   5.235 -0.0557  0.4402 -0.2066
28121W        W44305  17.264  15.576  14.887 -0.0470 -0.1285  0.0425
28122W        W44306  14.384  13.840  13.269 -0.0166  0.1220  0.1654
28123W        W44307   8.200   7.382   4.142 -0.2499  0.0198  0.0097
28124W        W44308  12.941   2.387   0.623  0.0876  0.2027 -0.1029
28125W        W44309  11.644   6.827   1.960  0.2434  0.1629 -0.2928
28126W        W44310  12.009   1.090   0.384 -0.2264  0.0811 -0.2318
28127W        W44311  10.080   2.309  15.482 -0.4139 -0.0439  0.0150
28128W        W44312  16.286  11.748  12.502 -0.3322 -0.2654 -0.0844
28129W        W44313  12.884   5.160  12.372 -0.1072 -0.1072 -0.1569
28130W        W44314   2.192   0.552   3.772  0.1634 -0.2594  0.2582
28131W        W44315  16.838  15.311  14.189  0.2879 -0.3303  0.1016
28132W        W44316  11.287  15.516  12.271 -0.0465  0.0255 -0.0393
28133W        W44317  12.150   7.385   5.217  0.3082 -0.0971  0.1536
28134W        W44318  11.609   6.028   1.146 -0.1586 -0.0381 -0.1949
28135W        W44319   3.837  10.576   5.872  0.0207  0.1485 -0.4494
28136W        W44320  15.888   5.832  10.654 -0.0136  0.2186 -0.2106
28137W        W44321   3.962   3.364  11.231 -0.0956  0.5704 -0.0522
28138W        W44322  16.608   6.798   1.155 -0.0007  0.1275 -0.0916
28139W        W44323  14.287  17.849   2.479  0.0456 -0.3657 -0.0416
28140W        W44324  18.144  16.501  15.243  0.4696 -0.1436  0.3074
28141W        W44325  12.132  12.338  12.456  0.1789 -0.0750  0.1450
28142W        W44326   3.174   3.398  13.261 -0.1016 -0.4238 -0.0973
28143W        W44327   0.824  11.455  12.517 -0.1025  0.0003 -0.0177
28144W        W44328   1.381   5.445   1.378 -0.1518  0.1050  0.3277
28145W        W44329  13.747  14.868   2.510 -0.1103  0.0247  0.0577
28146W        W44330  11.551   1.264  11.927 -0.2247 -0.0679  0.0148
28147W        W44331  13.572   2.028   4.639 -0.2496 -0.1639  0.0202
28148W        W44332   9.059   6.631  14.914 -0.1333  0.2704  0.1911
28149W        W44333   7.245   6.274  13.521 -0.1834 -0.1610 -0.0266
28150W        W44334   9.320   4.526   4.177  0.2256 -0.2224  0.0548
28151W        W44335   0.277   2.545   4.056  0.1452  0.0610  0.0173
28152W        W44336  12.862   8.413   0.550 -0.0027 -0.1261 -0.1899
28153W        W44337  10.210  17.162  14.123 -0.0583  0.2974 -0.0690
28154W        W44338  15.961  12.958   1.802  0.3201  0.0705  0.2510
28155W        W44339   4.891   9.329  11.276 -0.0664 -0.0493 -0.1061
28156W        W44340  16.682  10.904   3.852  0.1272  0.1815 -0.1983
28157W        W44341   2.660  17.880  12.945 -0.1930  0.1232  0.0150
28158W        W44342   8.027   2.007  11.728 -0.1345 -0.0236 -0.3623
28159W        W44343   1.892  15.182   4.253 -0.0916 -0.4860  0.2998
28160W        W44344  12.929   4.467   0.512 -0.1208 -0.1038 -0.0477
28161W        W44345  15.963   1.995   2.506  0.0372  0.3599 -0.3990
28162W        W44346   6.995  11.899  15.531  0.0745 -0.0281  0.0121
28163W        W44347   2.393   4.000   4.584  0.3206 -0.2092 -0.0539
28164W        W44348  12.496   7.942  14.628  0.1458 -0.1969  0.3968
28165W        W44349   2.466  16.704  10.987  0.4199 -0.3829  0.3677
28166W        W44350   0.161   3.514   5.049 -0.1315 -0.1033  0.2794
28167W        W44351  10.687  17.595  15.324 -0.1012  0.1494 -0.1534
28168W        W44352   9.026   3.942  11.314 -0.1056 -0.0824 -0.3547
28169W        W44353   5.598   5.593   1.102 -0.2003 -0.0724 -0.2929
28170W        W44354   2.566  11.401   2.937  0.1606 -0.0405  0.0694
28171W        W44355  15.437  10.371  15.264 -0.1954  0.0063  0.0610
28172W        W44356   2.744  13.574  14.013 -0.1735  0.1410 -0.0702
28173W        W44357   3.438   9.424  13.060 -0.0452  0.0741 -0.4355
28174W        W44358   3.618  14.587   1.379  0.0312 -0.4700 -0.1696
28175W        W44359  13.326   0.681  11.894  0.1663 -0.0711 -0.1143
28176W        W44360   0.219  11.379   0.583  0.0149 -0.4429 -0.0157
28177W        W44361  16.166   9.774   4.819  0.0447 -0.2299  0.0218
28178W        W44362   5.100  12.475  14.160 -0.1090 -0.0239 -0.1559
28179W        W44363   1.238  14.595   4.277  0.1508 -0.3110  0.2020
28180W        W44364   7.521   0.011   3.706 -0.0628  0.0564 -0.0888
28181W        W44365  14.048  13.698  15.178 -0.1303  0.0401 -0.0983
28182W        W44366   8.803  15.049   5.643 -0.0086  0.0782  0.2375
28183W        W44367   5.532  10.079   2.061 -0.0340  0.1908 -0.1061
28184W        W44368   0.930  12.930  11.023 -0.1817 -0.3552 -0.2100
28185W        W44369   8.295   6.495   5.077 -0.1013  0.3344 -0.2185
28186W        W44370  18.288  17.872   3.710  0.0056 -0.0968 -0.2556
28187W        W44371   7.062  14.132   3.959  0.0684  0.1000  0.0837
28188W        W44372  11.283  17.789   5.371  0.1278 -0.0589  0.0927
28189W        W44373   8.687  15.749   3.081 -0.0170 -0.2288  0.0180
28190W        W44374  15.574  13.474  11.612 -0.5292  0.1378  0.1253
28191W        W44375   8.052   0.459  15.860 -0.1126  0.2664  0.1631
28192W        W44376  17.061  11.044  15.811 -0.2039  0.2660  0.1421
28193W        W44377   6.345   6.105  13.371  0.0923  0.0661  0.2079
28194W        W44378   6.637  16.264   5.140  0.0129 -0.1560 -0.2969
28195W        W44379  11.732   1.686   5.421  0.1275 -0.0727  0.3992
28196W        W44380   2.040  13.045  15.503 -0.1655  0.1755  0.0341
28197W        W44381   9.052  13.744   5.249  0.1562  0.0824 -0.1243
28198W        W44382  10.918   5.829   2.524  0.1572  0.0558  0.0658
28199W        W44383  10.203  15.796  15.336 -0.2684  0.0679  0.0408
28200W        W44384   2.233  16.480   2.626 -0.2155 -0.1038 -0.0042
28201W        W44385  15.417   9.197   1.300  0.1151  0.0223 -0.1359
28202W        W44386   5.970   5.030   2.555 -0.1996 -0.0059 -0.1380
28203W        W44387   8.193   0.414   4.035  0.1459 -0.1767 -0.3011
28204W        W44388   6.259  17.811  15.432  0.0618 -0.1280 -0.0982
28205W        W44389  10.893   8.258   4.607  0.2323  0.1244 -0.2830
28206W        W44390  15.540   9.278   1.937 -0.3746  0.3926 -0.3627
28207W        W44391   8.440   8.724  14.139  0.0322  0.0483 -0.0772
28208W        W44392  10.107   6.000  14.131  0.0367  0.3264  0.2859
28209W        W44393   7.618  15.542   3.667 -0.0159 -0.1033 -0.2353
28210W        W44394   5.882  17.873   5.960 -0.0477  0.1205 -0.1369
28211W        W44395   8.538  12.290  12.076  0.2968 -0.0549  0.0022
28212W        W44396   5.693  13.845   2.618  0.0981 -0.2257 -0.0592
28213W        W44397  11.445   6.043  15.530  0.1147 -0.0284 -0.1245
28214W        W44398  13.955   0.078   5.796  0.1355  0.0932  0.2036
28215W        W44399   2.924   3.170   3.386  0.0212 -0.1508 -0.1505
28216W        W44400  15.673  10.146   1.359 -0.2451 -0.0159 -0.0439
28217W        W44401   4.834   1.348  15.281  0.0017  0.2398 -0.0819
28218W        W44402   3.251   6.766  12.564  0.2027 -0.2745  0.1370
28219W        W44403  16.649  13.173   3.622  0.2406  0.1705 -0.3681
28220W        W44404   1.272  15.924   1.653  0.1544 -0.2565 -0.0613
28221W        W44405  12.613  10.614   5.161  0.0110  0.2504  0.0627
28222W        W44406   3.848  11.103  12.418 -0.1747  0.2237 -0.0792
28223W        W44407  16.883   9.192   6.474  0.1301  0.1086  0.3097
28224W        W44408  13.619   8.945  14.161  0.0716  0.0018  0.3078
28225W        W44409   8.928  10.029   3.831  0.1739 -0.4380  0.1393
28226W        W44410   5.382   0.076  16.119  0.0893  0.0911  0.3651
28227W        W44411   3.055   5.442  12.898  0.0508  0.0085  0.1998
28228W        W44412   9.394   8.708  11.244 -0.3604  0.1227 -0.0742
28229W        W44413   1.567  11.666   0.770 -0.0960  0.1824  0.1686
28230W        W44414   6.682  12.525   1.451  0.2545 -0.0485  0.2093
28231W        W44415   9.332  10.009   4.207  0.1734  0.2973  0.1873
28232W        W44416   9.923   4.153   3.309 -0.2967  0.3114 -0.0820
28233W        W44417   1.209  16.555  14.087 -0.2937 -0.4060  0.0556
28234W        W44418  10.092  10.501  13.447  0.0797  0.3301 -0.0762
28235W        W44419  16.702  17.400   5.937 -0.0390  0.1508 -0.2719
28236W        W44420   8.584   4.974   2.344  0.2532 -0.2845 -0.5160
28237W        W44421   5.312   1.303   1.394 -0.0365  0.2434  0.2842
28238W        W44422   1.668   4.582  11.883  0.0674 -0.2128 -0.0260
28239W        W44423   2.853   5.902   2.879 -0.0394 -0.1081  0.1477
28240W        W44424  13.043   6.626   0.350 -0.0067 -0.2707 -0.1793
28241W        W44425  12.873   3.086   2.983  0.1223 -0.2029  0.0452
28242W        W44426   7.200  17.258   1.833  0.1110  0.1037  0.0141
28243W        W44427   0.074   4.381   2.772 -0.1629 -0.1193 -0.3820
28244W        W44428   9.377   7.909  12.095  0.1717  0.1333  0.4514
28245W        W44429   1.805   6.578  15.396 -0.0287  0.3303 -0.2137
28246W        W44430  16.772   4.372  15.482  0.0067  0.1931 -0.0675
28247W        W44431  10.528   0.687   4.496 -0.0695  0.1824 -0.0023
28248W        W44432  16.984  17.305  14.785  0.1083  0.0506  0.0569
28249W        W44433  16.685   4.374  11.426 -0.0955  0.1150  0.2078
28250W        W44434   9.247   7.138  14.795 -0.0293  0.2904  0.1108
28251W        W44435   4.693   2.681  13.904  0.0163  0.0262  0.1452
28252W        W44436   2.829   7.824  12.833 -0.0859  0.0681  0.0377
28253W        W44437  15.444  10.883   3.434 -0.1410 -0.0575 -0.1696
28254W        W44438   5.774   1.186  15.224  0.0773 -0.4457  0.2458
28255W        W44439   0.556   0.372   5.067  0.1063 -0.1235  0.1623
28256W        W44440   1.666   0.648   2.903  0.2978  0.2020  0.0259
28257W        W44441  13.412  15.427   1.236 -0.1479  0.3267 -0.2071
28258W        W44442   0.811   3.217  12.527  0.2254 -0.1817  0.0695
28259W        W44443  16.687   2.857   1.591 -0.3209 -0.1408  0.3275
28260W        W44444   7.230  11.603   5.502  0.2964  0.1260  0.2045
28261W        W44445   3.393  11.513  12.664 -0.1801 -0.1064  0.1553
28262W        W44446   4.081   4.570  15.346  0.1850 -0.0119  0.0937
28263W        W44447  17.534  12.087  13.877  0.0552 -0.2511 -0.1549
28264W        W44448  17.808  14.208  15.922 -0.0134  0.1385  0.0176
28265W        W44449  14.762  14.944   1.552  0.0710 -0.1344  0.0389
28266W        W44450  11.142   6.553  14.417 -0.0235  0.2718  0.3923
28267W        W44451   0.036   1.367   0.225  0.2264  0.0263 -0.0063
28268W        W44452   8.881  12.998  11.240  0.0845 -0.2510  0.1738
28269W        W44453  17.536   2.808   0.837 -0.2360  0.0472 -0.0595
28270W        W44454   4.028   2.383  12.619 -0.1190  0.1193  0.1386
28271W        W44455  10.552  17.849  14.323 -0.1601  0.0038 -0.0290
28272W        W44456   8.358  13.338   3.955 -0.2248  0.1527 -0.0915
28273W        W44457  12.173  14.241  12.435  0.0828  0.1213 -0.1186
28274W        W44458   3.903   6.158  15.727 -0.4366 -0.0253  0.2804
28275W        W44459   8.223   5.790  14.362 -0.2085 -0.2372 -0.0144
28276W        W44460  15.318  13.789  14.831  0.2863  0.0979 -0.2219
28277W        W44461   0.930   1.034   3.272 -0.0434  0.1887  0.0969
28278W        W44462   1.933   6.491   5.668 -0.4921  0.1085 -0.3589
28279W        W44463   5.018   3.265   2.449  0.0557 -0.2543 -0.0818
28280W        W44464   4.431   5.721  14.440 -0.2275  0.1394  0.1566
28281W        W44465  12.132   8.109   1.710  0.1879 -0.1905 -0.2597
28282W        W44466   9.249   9.238   3.654  0.2525  0.0866  0.1485
28283W        W44467   3.926   9.618  14.806  0.0294 -0.1007 -0.0505
28284W        W44468   0.259   4.178  12.190 -0.1109  0.0375  0.2570
28285W        W44469   2.782  15.748  14.098  0.0676  0.0200  0.0545
28286W        W44470  10.590   6.207  13.230  0.2958 -0.0849 -0.1061
28287W        W44471   5.740  14.233   2.062 -0.2178 -0.0510  0.1778
28288W        W44472  14.008   1.210  10.424 -0.3438 -0.1476  0.2195
28289W        W44473   2.457   9.604  11.631  0.1480  0.2143 -0.0771
28290W        W44474  16.601   2.554   3.419  0.2092 -0.3369 -0.2446
28291W        W44475   0.297  14.637  16.048  0.0242  0.0109  0.1693
28292W        W44476   9.532   3.200   5.501 -0.1050 -0.1283  0.1531
28293W        W44477   6.673  11.558   0.210 -0.1717  0.0865 -0.0857
28294W        W44478   0.402   1.185  14.765 -0.0271 -0.0485 -0.1275
28295W        W44479  15.226   4.408   3.473  0.1510  0.1633  0.3554
28296W        W44480   1.253  12.788   1.709 -0.0795  0.0079 -0.2355
28297W        W44481   9.110   8.228   4.638 -0.0942  0.0690  0.2320
28298W        W44482  15.480   3.582   2.729 -0.1500  0.0323 -0.1718
28299W        W44483   0.820  17.729   2.099 -0.0920 -0.1137  0.2259
28300W        W44484   1.000  13.889   0.197 -0.0718  0.1753 -0.0678
28301W        W44485   9.261   3.559  12.082 -0.1881  0.0321  0.0843
28302W        W44486   4.587  17.989   1.239 -0.1070 -0.1152  0.1169
28303W        W44487   5.790   2.128   5.139  0.0094  0.0006 -0.0316
28304W        W44488   4.302  14.882   5.143 -0.1978  0.0815 -0.4009
28305W        W44489  13.551  18.477  11.320  0.0258 -0.1938  0.0251
28306W        W44490   9.836  15.795  14.332 -0.0780  0.2554  0.0036
28307W        W44491  14.053   8.595   2.959 -0.1628  0.2527 -0.1465
28308W        W44492   2.454  15.375  15.527 -0.3020 -0.1530  0.2361
28309W        W44493   0.821  17.290  12.658  0.0143  0.1006 -0.1438
28310W        W44494   9.272   6.075   4.324  0.0826  0.3636  0.2689
28311W        W44495   4.829  15.494  12.856 -0.1526  0.1071  0.3091
28312W        W44496  15.065  11.629   3.000 -0.0750 -0.1896 -0.3136
28313W        W44497   1.329  13.279  13.036 -0.0309  0.1974  0.0208
28314W        W44498   2.106   3.882  12.702 -0.0904 -0.1003  0.0914
28315W        W44499   5.231   1.372  15.805  0.0634 -0.0003  0.0349
28316W        W44500   1.609  11.414  13.300  0.0511  0.0399 -0.0884
28317W        W44501   6.509  10.680  12.190 -0.2761 -0.0398  0.1072
28318W        W44502  15.306  11.214  15.634  0.3801  0.0272  0.2352
28319W        W44503  14.038  15.264  15.991  0.3909  0.2009 -0.4396
28320W        W44504   7.417   8.802   4.609 -0.2277  0.1981 -0.2946
28321W        W44505   6.644   0.094  11.132  0.0446  0.2306 -0.1737
28322W        W44506   0.713   8.687  14.480 -0.2145 -0.2540  0.1136
28323W        W44507   8.902  11.561  11.714  0.3050  0.2614 -0.0025
28324W        W44508   2.031  15.722  14.723  0.2671  0.0386 -0.1105
28325W        W44509  13.504   1.360   1.385  0.1961 -0.3383 -0.2936
28326W        W44510  11.458   8.466  15.030 -0.1305 -0.1210 -0.1268
28327W        W44511  14.459  18.289   0.695 -0.1340 -0.1419  0.1087
28328W        W44512   2.671  16.209   2.591 -0.0795 -0.0147 -0.1336
28329W        W44513  15.875   4.692   3.548 -0.1108 -0.0569 -0.3440
28330W        W44514   1.734   6.390  13.053 -0.0794  0.0507 -0.0535
28331W        W44515   2.536   5.976  15.502  0.1103 -0.0316 -0.1039
28332W        W44516  14.917   6.059  12.136 -0.0252  0.3386  0.0579
28333W        W44517   7.316   8.950   0.650 -0.1765  0.2126 -0.0273
28334W        W44518   3.462  15.121   2.760  0.0057  0.1875 -0.0724
28335W        W44519   8.404   3.936  11.790  0.1661  0.0702  0.0850
28336W        W44520  12.051   5.691   0.368  0.0480  0.0952  0.2697
28337W        W44521   4.162  16.016   5.062 -0.3058  0.1479 -0.3874
28338W        W44522  11.944   7.092  12.185 -0.2511  0.0745 -0.1669
28339W        W44523  16.153   3.941  11.313  0.2663  0.0118  0.0998
28340W        W44524  15.928   5.945  16.053  0.1729  0.2839 -0.1414
28341W        W44525  14.160   0.319   5.332  0.1217 -0.1588 -0.1414
28342W        W44526   2.210   0.627   3.271  0.1701 -0.1392 -0.0929
28343W        W44527  12.840   2.941  16.066 -0.0479 -0.0972  0.3031
28344W        W44528  17.980  17.213   0.618 -0.0286  0.0031  0.0932
28345W        W44529   3.783  17.506   2.111 -0.2372 -0.1429 -0.1329
28346W        W44530   5.851  11.929   3.628  0.2632  0.1471  0.0364
28347W        W44531   7.741  14.814  12.185  0.1276  0.0251  0.0915
28348W        W44532   3.555   6.335   1.750  0.0446  0.3072 -0.1113
28349W        W44533   9.213   4.380  13.160  0.0303  0.1321  0.0166
28350W        W44534  11.506  12.445   5.482  0.1037 -0.0046  0.3077
28351W        W44535   0.394  11.639   2.003 -0.1728 -0.1187 -0.0631
28352W        W44536   2.107   4.722   1.801 -0.1355  0.0105 -0.1864
28353W        W44537  11.350   9.242   0.817 -0.2338 -0.2933  0.0067
28354W        W44538  13.526   0.509  15.811  0.2218 -0.0274 -0.2438
28355W        W44539   9.358   1.742  15.938 -0.3440  0.2621  0.4005
28356W        W44540  12.403   7.030   3.132 -0.1169  0.1604  0.0115
28357W        W44541   9.724  18.281  15.529  0.0880  0.3778  0.0550
28358W        W44542   2.398  14.851   4.636 -0.0452  0.0190  0.0618
28359W        W44543   4.222  10.114  15.681 -0.0655  0.0842 -0.2032
28360W        W44544  11.054   9.687   2.753  0.1465 -0.2056  0.0478
28361W        W44545  10.040  13.928   3.907 -0.2322 -0.0089 -0.0931
28362W        W44546  17.602  13.311   0.356 -0.1488 -0.1127 -0.6111
28363W        W44547  13.028  12.429   3.229 -0.3156  0.1114  0.0487
28364W        W44548  11.096   0.074   2.948 -0.0293 -0.1534 -0.0904
28365W        W44549   9.625  14.718   2.796 -0.0431 -0.0204 -0.3760
28366W        W44550  10.033  16.405   6.314  0.0414 -0.1669  0.1649
28367W        W44551   9.802   8.198   2.216 -0.0948  0.2552  0.1848
28368W        W44552   4.991  17.247  15.868 -0.1837  0.1485  0.2136
28369W        W44553  15.734   2.378   3.520 -0.1664  0.1890 -0.2710
28370W        W44554  15.295   5.532   5.317  0.0996  0.0655 -0.0223
28371W        W44555  10.830  11.822   5.165  0.1069  0.0698  0.0639
28372W        W44556  12.725   1.137   0.966 -0.1827 -0.1788 -0.2729
28373W        W44557   5.316  16.013  10.200  0.0138  0.1231  0.0251
28374W        W44558   0.421  17.692   2.977  0.0343  0.1658 -0.0233
28375W        W44559   9.364  16.086   3.540  0.2023  0.1615  0.0638
28376W        W44560   5.314  18.314   2.993 -0.2488 -0.1934  0.1038
28377W        W44561   7.097  11.461   3.689  0.0402 -0.0827  0.1777
28378W        W44562   0.723   2.778  15.597  0.3714 -0.0310  0.0035
28379W        W44563   9.566   1.639   6.169 -0.1400 -0.0052 -0.2132
28380W        W44564   4.419  13.277  14.332 -0.0337 -0.0247  0.0504
28381W        W44565  17.938   6.893   0.498 -0.1295  0.1255  0.1308
28382W        W44566  13.758   1.320   4.023  0.0040 -0.0018 -0.0778
28383W        W44567  12.216  10.315   3.659 -0.1673  0.4998 -0.2970
28384W        W44568  13.152   4.755  13.084 -0.1273 -0.1884  0.0619
28385W        W44569   9.814   2.497  11.755  0.1074  0.3724 -0.1866
28386W        W44570   8.876  17.980   0.346 -0.0336  0.1517  0.0389
28387W        W44571  15.388  17.853  13.722  0.2328 -0.1424 -0.3268
28388W        W44572   5.339   4.133   5.090 -0.2266 -0.0409 -0.1413
28389W        W44573  13.371   0.036   1.037 -0.0252  0.2282  0.2890
28390W        W44574   2.414   7.548   2.024  0.1499  0.2288  0.0383
28391W        W44575   4.445   0.623   1.486  0.1396 -0.1666 -0.2313
28392W        W44576  18.192  16.613   2.452  0.0871  0.0848  0.0309
28393W        W44577  11.302  13.165   1.238  0.0400 -0.0563 -0.0005
28394W        W44578  14.859   6.245   2.082  0.1169  0.0758  0.0846
28395W        W44579  15.217   9.498   3.445  0.0956  0.3953  0.0648
28396W        W44580   0.804  18.399  12.487 -0.0468 -0.1565  0.0838
28397W        W44581  14.487  10.100   3.543  0.2103 -0.0012 -0.4061
28398W        W44582   8.585   9.712   1.325 -0.1749  0.3268 -0.0192
28399W        W44583   5.736  10.827   0.363 -0.1025 -0.0776  0.1299
28400W        W44584  13.428  10.721   2.159 -0.1899 -0.1103  0.2332
28401W        W44585  16.615  16.453  15.560  0.1073 -0.2300  0.3192
28402W        W44586  14.894  14.054  14.580  0.1045 -0.1451 -0.0788
28403W        W44587   0.474   5.231   0.733  0.1582  0.2689 -0.2048
28404W        W44588   8.841  10.877  14.263 -0.1073  0.0678 -0.0331
28405W        W44589   4.827   1.395   3.124 -0.0458 -0.0858 -0.3149
28406W        W44590   3.247   2.465   3.060 -0.1981 -0.1487  0.1638
28407W        W44591   8.099  17.723   3.597  0.1226  0.0299 -0.1468
28408W        W44592  10.892  15.540  12.546  0.2482  0.3535 -0.0577
28409W        W44593  11.504   5.210  12.598 -0.0124  0.0585  0.1184
28410W        W44594  13.397  15.807  13.493  0.0690  0.2656 -0.1808
28411W        W44595   5.818   2.383   0.049  0.1733 -0.3586 -0.4314
28412W        W44596   6.688   8.029   4.515 -0.0407  0.2341  0.0366
28413W        W44597   6.638  15.942   3.567 -0.3095  0.1071  0.1043
28414W        W44598   4.848   2.094   4.389 -0.0611  0.0538 -0.2474
28415W        W44599   6.262  10.261  15.785 -0.0563 -0.0916  0.3182
28416W        W44600  12.251  12.353   4.637 -0.1485 -0.2975  0.2269
28417W        W44601  11.226   3.177  14.841  0.0573 -0.0948  0.1280
28418W        W44602  11.482   1.872  12.661 -0.0977 -0.0718  0.5129
28419W        W44603   7.618   5.473  15.295 -0.3224 -0.1486 -0.6399
28420W        W44604  14.657   8.067  12.803  0.2512 -0.1562  0.1542
28421W        W44605  13.708   2.257  13.722  0.1401 -0.0272  0.2632
28422W        W44606   8.860   5.271   1.371  0.0279  0.0163  0.0434
28423W        W44607   1.663   4.901   2.018 -0.2923 -0.2959 -0.1069
28424W        W44608  15.760   6.422  13.185 -0.2645 -0.3959 -0.1786
28425W        W44609   3.315  18.133   3.919  0.0443 -0.0695 -0.1796
28426W        W44610  14.889   2.376   2.917  0.0858 -0.1790  0.0129
28427W        W44611  17.877  10.146   0.339  0.2058  0.1240  0.0629
28428W        W44612  11.414  10.699   4.635 -0.0318  0.4349 -0.2686
28429W        W44613   2.283   5.630  13.631 -0.0868 -0.3530 -0.0396
28430W        W44614   9.621   2.574  15.359  0.0879 -0.1940 -0.1355
28431W        W44615   4.942   4.711   0.050 -0.0278  0.0798  0.2576
28432W        W44616  17.003  12.567  15.528  0.3289 -0.1075 -0.2422
28433W        W44617   3.552  17.721  11.820 -0.0727  0.1024 -0.2245
28434W        W44618   8.206   5.936   5.820  0.1658 -0.0408  0.1462
28435W        W44619  15.170   2.191  10.735 -0.2691 -0.1909  0.1265
28436W        W44620  17.650  12.500   2.630 -0.0675  0.1453 -0.0530
28437W        W44621   4.412   7.645   2.583  0.1491 -0.0042 -0.1396
28438W        W44622  12.206   7.836  12.213 -0.1097 -0.0448  0.0147
28439W        W44623  15.473   2.463  14.143  0.0814  0.1377 -0.1828
28440W        W44624   1.359  15.004   1.484 -0.4778 -0.0226  0.3675
28441W        W44625  15.814   7.858  11.803  0.3078 -0.3745  0.0363
28442W        W44626  16.100   7.666   0.223  0.1355  0.1704  0.0398
28443W        W44627  15.919  15.469   3.121 -0.3285 -0.2175  0.2449
28444W        W44628  12.667   8.800  11.222  0.0135  0.0892  0.3250
28445W        W44629   2.055  14.601  13.376  0.1092 -0.1884 -0.1074
28446W        W44630  16.584   0.687  13.760  0.1992  0.0410 -0.0850
28447W        W44631  10.515  13.907   4.795 -0.1038 -0.1636  0.2060
28448W        W44632   7.819  18.125   3.486  0.2006 -0.0201 -0.1434
28449W        W44633  12.211   8.915  14.898 -0.2619  0.4311  0.0313
28450W        W44634   3.486  16.691   1.627  0.1133  0.1189 -0.3404
28451W        W44635   7.977  18.024   5.585 -0.1168 -0.3081 -0.1619
28452W        W44636   3.986   5.004   4.709 -0.3103  0.0588 -0.1343
28453W        W44637   7.688   7.221   3.392  0.0504 -0.3977 -0.1483
28454W        W44638  16.485   8.842   0.668  0.1186  0.3408  0.0152
28455W        W44639   5.676   8.242   4.113  0.2246 -0.3641 -0.0723
28456W        W44640  10.261  15.461   4.372 -0.5047  0.2767 -0.2524
28457W        W44641   6.626  13.997  16.030  0.0297  0.1391 -0.0816
28458W        W44642   9.272  14.141  12.374  0.0699 -0.0006  0.2635
28459W        W44643  12.426   0.072  14.862  0.5058  0.1351 -0.0164
28460W        W44644  11.258   5.259   0.764 -0.3980  0.1783 -0.1992
28461W        W44645  15.253   4.706  11.027 -0.0341 -0.0338  0.1775
28462W        W44646   2.666  11.765   3.663  0.0504  0.0523 -0.0420
28463W        W44647   8.366   8.785  16.112 -0.0671  0.0820  0.0724
28464W        W44648  12.000   6.261   1.370 -0.1366  0.0444 -0.0060
28465W        W44649  11.869   4.931  14.162 -0.1478 -0.0640 -0.1479
28466W        W44650  11.639   5.991   0.223 -0.1307 -0.0037 -0.1380
28467W        W44651   5.018  14.702   0.634 -0.0560 -0.1630  0.1729
28468W        W44652  10.805  16.232   4.210 -0.1853  0.1182  0.2454
28469W        W44653   2.873   2.543  16.080 -0.2691 -0.3181  0.0108
28470W        W44654   8.300  11.982   0.007  0.5244  0.2691  0.1240
28471W        W44655   4.817   2.976   5.621 -0.0653  0.0909  0.1980
28472W        W44656  15.057   0.077   2.103  0.1876  0.1369 -0.0747
28473W        W44657  18.100  13.947   0.859 -0.2005  0.1239  0.2435
28474W        W44658   3.092   1.644  15.952 -0.0273  0.0226  0.0664
28475W        W44659   6.678   1.004  15.562  0.3321  0.1946  0.3530
28476W        W44660  11.456   5.703  14.381  0.2889 -0.0358 -0.3117
28477W        W44661   1.212  17.369   3.180  0.2074  0.2217  0.2786
28478W        W44662  10.775   1.602   5.461  0.0252  0.0948 -0.0558
28479W        W44663  15.944  14.307   4.303  0.0802  0.3029 -0.1041
28480W        W44664  11.884   9.319   0.290 -0.1022 -0.4023  0.3836
28481W        W44665  11.490  15.713  15.301  0.0631 -0.1485 -0.0601
28482W        W44666   4.933  14.280  15.597 -0.3897 -0.2265 -0.0955
28483W        W44667  13.137  14.084  14.937  0.2041 -0.4205 -0.1615
28484W        W44668   8.735   5.922   4.455 -0.2374 -0.0207 -0.1159
28485W        W44669   5.024   3.551   4.734  0.1596  0.0681 -0.0776
28486W        W44670   9.824  14.406  15.453  0.1619  0.1189 -0.3072
28487W        W44671  10.051   0.305   2.442 -0.0327  0.4607  0.0703
28488W        W44672   2.082  10.121   4.457 -0.1185 -0.0169  0.4173
28489W        W44673   8.899   0.994  12.183  0.0395  0.2103  0.2229
28490W        W44674  14.061   0.288  12.997 -0.0341 -0.1748 -0.1558
28491W        W44675  12.467   9.611   0.978  0.0284  0.1201 -0.0110
28492W        W44676  17.438  12.127   1.924 -0.2583 -0.1276 -0.0889
28493W        W44677  12.521  13.585   2.960 -0.2221 -0.0498 -0.2079
28494W        W44678  10.983   0.532  14.333 -0.1778  0.3303  0.0506
28495W        W44679  14.055  18.283   2.027  0.1284 -0.0367  0.2089
28496W        W44680   8.843   0.512   5.358  0.1699 -0.1579  0.0873
28497W        W44681  15.374   9.598   0.400 -0.0393 -0.1090 -0.0018
28498W        W44682   5.929  14.420   4.425  0.3219  0.1500  0.1674
28499W        W44683  14.168   6.167  13.544  0.0745  0.1227 -0.0202
28500W        W44684   9.112   9.669  14.804  0.1446 -0.0069 -0.0827
28501W        W44685   2.368  16.775  13.705  0.0810 -0.1663  0.1605
28502W        W44686  13.642   5.778  12.840 -0.1307 -0.1627  0.2599
28503W        W44687  15.497   2.132   1.783  0.3654 -0.2522  0.0645
28504W        W44688  15.306   5.106  14.166  0.0473 -0.1629  0.0325
28505W        W44689  14.825   3.514  15.318  0.0950  0.1210 -0.0712
28506W        W44690  16.747   1.135  12.533  0.0630 -0.1155  0.0538
28507W        W44691  16.194   9.716   3.889 -0.1468 -0.3445  0.0834
28508W        W44692   0.656   0.071  13.871  0.0865 -0.2520  0.1611
28509W        W44693   2.348   8.584  14.944  0.0970  0.0579  0.2459
28510W        W44694  11.550   4.579   2.546 -0.0666  0.2729 -0.0824
28511W        W44695   9.876   1.060   3.563 -0.2149 -0.0733  0.0412
28512W        W44696   1.740  11.024   2.872 -0.1270 -0.0010  0.1025
28513W        W44697  17.041  15.667   2.846 -0.3151  0.2971 -0.2840
28514W        W44698  17.795   9.563  15.092  0.3505 -0.2588  0.4269
28515W        W44699  12.029  15.144   2.795 -0.1349  0.3130 -0.2476
28516W        W44700   4.715  13.263   5.730 -0.3366  0.0341  0.3206
28517W        W44701   8.569   5.498   2.848  0.0052 -0.0210  0.1589
28518W        W44702  13.179   5.259   3.083  0.3776 -0.1137 -0.1837
28519W        W44703  15.449  10.939  12.860  0.1160  0.3443 -0.1689
28520W        W44704  13.401   6.976   2.816 -0.0632 -0.1327  0.1403
28521W        W44705  16.058   9.418   1.527  0.0005 -0.1008  0.0915
28522W        W44706   7.848   4.039  11.931  0.1273 -0.1244 -0.1817
28523W        W44707   6.864  16.860   2.754  0.1989  0.2062 -0.0052
28524W        W44708   5.665   7.541   4.844  0.0625 -0.0429  0.3428
28525W        W44709  14.415  11.250  15.399  0.0300  0.0111 -0.1620
28526W        W44710   1.057  13.905   3.011 -0.1011 -0.1192  0.3134
28527W        W44711  13.030   3.137  11.792 -0.1002 -0.1656  0.1090
28528W        W44712  17.909  13.553   1.962  0.0903  0.1393 -0.1316
28529W        W44713   6.729   6.360   2.749 -0.0957  0.0423 -0.0037
28530W        W44714  14.635   5.695  14.634  0.0449 -0.0295 -0.0099
28531W        W44715  10.624   2.075   3.678 -0.1524 -0.0790 -0.1865
28532W        W44716  15.346   6.017  11.862 -0.1977 -0.2703  0.2622
28533W        W44717   5.727   4.961   5.949 -0.0400 -0.3696 -0.1370
28534W        W44718  13.806   9.862   3.269 -0.3057  0.1160 -0.1865
28535W        W44719   2.581  17.657  11.179 -0.1317  0.0966 -0.0316
28536W        W44720  10.988  15.661   1.892  0.2158  0.0079 -0.3466
28537W        W44721  11.638   0.609  13.062 -0.1220  0.1010  0.0590
28538W        W44722   0.750   7.126  16.148 -0.1953  0.3058 -0.1354
28539W        W44723   7.526  11.106  14.457 -0.0172 -0.0667  0.0119
28540W        W44724   2.475   8.435   3.778  0.1539 -0.2418 -0.1469
28541W        W44725   0.620  18.434   3.728 -0.3343 -0.0795  0.1403
28542W        W44726  14.304   3.214  12.809  0.2833  0.0641 -0.0741
28543W        W44727  14.218  13.244   3.375  0.4336  0.4419  0.0001
28544W        W44728  10.014  13.657  14.799  0.3966 -0.2474  0.0647
28545W        W44729   5.863  13.034   3.625 -0.1334  0.0161 -0.1334
28546W        W44730   5.910  12.125   2.695 -0.0400  0.0969 -0.1202
28547W        W44731   2.970  14.607   4.549  0.2046 -0.2042  0.0067
28548W        W44732   2.302   4.199  13.735 -0.0234 -0.1057  0.4231
28549W        W44733  12.288  10.789  15.226  0.2654 -0.2130 -0.0041
28550W        W44734   2.715  13.986   3.207  0.3846 -0.3476  0.0923
28551W        W44735  11.144   8.834  12.637  0.2687 -0.2356 -0.1797
28552W        W44736   5.597   6.896  16.112 -0.1743  0.2449  0.3091
28553W        W44737  16.227   8.118  11.970  0.1665 -0.1107 -0.2465
28554W        W44738   3.222   6.639  15.161  0.0135  0.0710 -0.0268
28555W        W44739  11.653  12.735   3.101 -0.0478 -0.1280 -0.0537
28556W        W44740   3.500   8.222  13.417 -0.1479  0.1297 -0.0270
28557W        W44741  14.953   8.127  13.742  0.3101 -0.1442 -0.3000
28558W        W44742   7.383   0.816   2.284  0.2455 -0.1136 -0.2814
28559W        W44743   1.576  17.007  16.084 -0.1019 -0.0682 -0.2199
28560W        W44744   1.242   9.050   2.174  0.6165  0.1724  0.1420
28561W        W44745   4.061   3.229   1.161 -0.1194 -0.2832 -0.2123
28562W        W44746  12.909  10.788   2.887  0.0133  0.0475 -0.0703
28563W        W44747   4.194  18.365  10.956  0.0546 -0.0478  0.1113
28564W        W44748   6.847   1.362   5.138 -0.2179 -0.0772  0.2133
28565W        W44749  10.916   8.378  12.961 -0.0544 -0.0101 -0.2042
28566W        W44750  11.503   3.049   2.340  0.2049 -0.0638 -0.0478
28567W        W44751  18.007  17.619   2.549  0.1524  0.1032 -0.1805
28568W        W44752   9.172   3.431   2.989 -0.1681  0.1317  0.2162
28569W        W44753  10.612  11.909  13.872  0.0574  0.0659  0.1620
28570W        W44754   7.667   7.987  14.246  0.1904  0.0049 -0.2542
28571W        W44755  18.223  15.136   2.611 -0.1778  0.1523 -0.3052
28572W        W44756   1.181   0.240  14.074 -0.0236 -0.1059  0.0263
28573W        W44757  14.418   5.871   5.003  0.3798 -0.2472  0.1988
28574W        W44758  13.396   7.030   3.350 -0.1651  0.3618  0.4564
28575W        W44759  13.105   4.414  13.456 -0.3732 -0.0321  0.0479
28576W        W44760   1.520   6.759  13.885 -0.1451  0.1429 -0.1228
28577W        W44761  18.224   5.901  13.057 -0.1345 -0.0928  0.3190
28578W        W44762   5.280  11.626   3.945 -0.1539  0.0694  0.2421
28579W        W44763  14.614  14.350  12.363 -0.2609  0.2105 -0.5074
28580W        W44764  12.580  11.009   4.647 -0.1320  0.1522 -0.3047
28581W        W44765   9.418  12.486  14.404 -0.1870  0.1270  0.1429
28582W        W44766  17.102   6.608  14.395 -0.2336 -0.2213  0.0881
28583W        W44767   0.310  18.262   5.842 -0.0988  0.0177 -0.0451
28584W        W44768   1.854  14.899  15.320  0.1273  0.0337 -0.1227
28585W        W44769   5.478   9.854   3.413  0.0149  0.1346  0.3020
28586W        W44770   7.195   1.740  11.479 -0.0316 -0.1752 -0.0399
28587W        W44771  13.507  14.087   1.275 -0.1789 -0.0370 -0.1306
28588W        W44772   1.272   4.537   1.942  0.0372 -0.0131 -0.0664
28589W        W44773  16.851   6.987  12.728 -0.1162 -0.1059  0.0326
28590W        W44774  12.470  18.423   4.805  0.0478  0.0148  0.1321
28591W        W44775   3.669   0.670   2.685 -0.0253  0.3721  0.4009
28592W        W44776  13.021  10.677  12.722  0.0463 -0.0958  0.3660
28593W        W44777   8.098   8.641  14.753  0.3930 -0.0746  0.2266
28594W        W44778   3.397  13.940   2.424 -0.2255 -0.1302 -0.1855
28595W        W44779  17.422   3.052  13.158 -0.1326  0.0911 -0.0803
28596W        W44780   0.081  15.648   6.151  0.0179  0.0823  0.0149
28597W        W44781  15.769  16.842  12.032  0.1129  0.0111 -0.0925
28598W        W44782   5.045  12.632   0.515 -0.2047 -0.0145 -0.2668
28599W        W44783  13.233  15.850   2.540  0.1132  0.1628 -0.0470
28600W        W44784  10.630  16.353   2.999 -0.3360 -0.1309  0.2147
28601W        W44785   2.302  15.651  14.265 -0.1986 -0.2396 -0.0660
28602W        W44786  17.331  10.498  13.377 -0.0762 -0.0273  0.0370
28603W        W44787   1.157   0.927   2.104 -0.0660 -0.0951  0.0981
28604W        W44788   4.965   2.790  12.735  0.1037 -0.2342 -0.2729
28605W        W44789   5.745   5.154  15.649  0.0540 -0.2336  0.0780
28606W        W44790  14.036  13.020   5.305  0.1395  0.1491 -0.0770
28607W        W44791   6.195   1.609  12.554  0.2304  0.0336 -0.0051
28608W        W44792  15.343  12.031  16.109  0.0428  0.2198 -0.0496
28609W        W44793  11.291  16.046   1.848 -0.3957 -0.1899  0.1802
28610W        W44794   9.965   7.822   3.669  0.1348 -0.0448  0.2238
28611W        W44795   7.649   7.251  15.048 -0.0187  0.3246 -0.1753
28612W        W44796  17.990   1.534  14.894  0.0159 -0.1302 -0.2747
28613W        W44797   4.013   1.373   2.031 -0.3519 -0.0708  0.1480
28614W        W44798   0.641  11.023   4.023 -0.7901 -0.0008 -0.3303
28615W        W44799  10.268   6.415   0.088  0.3753  0.2647 -0.1641
28616W        W44800  15.602  10.918  12.388 -0.0695 -0.0888 -0.3739
28617W        W44801  11.966  11.582   0.800  0.2905  0.0080 -0.0041
28618W        W44802   7.506   4.742  14.519  0.0846 -0.1903 -0.1259
28619W        W44803   8.734  15.244  13.693  0.0515 -0.0762  0.3203
28620W        W44804   3.585   9.474  15.184  0.1446 -0.0668 -0.1099
28621W        W44805   0.677  14.322   0.134 -0.2015  0.0333  0.1728
28622W        W44806   1.999  12.668  13.523  0.0195  0.2067 -0.1026
28623W        W44807  14.222  15.036   1.361 -0.1298  0.0366 -0.0529
28624W        W44808   9.081  17.176   1.487 -0.0164  0.2578 -0.4047
28625W        W44809   1.574   6.668   1.524 -0.0119  0.0382  0.0623
28626W        W44810   9.672   9.879  15.880  0.1359  0.1443  0.1794
28627W        W44811   7.558  16.270  14.469 -0.0080  0.1677 -0.2334
28628W        W44812  15.566   5.139   1.024 -0.2907  0.4817 -0.1695
28629W        W44813   8.088  12.488   0.084  0.3092  0.0333 -0.1443
28630W        W44814   6.805   4.277  11.901 -0.0520  0.0033 -0.2492
28631W        W44815   3.220  17.619   4.616  0.0792 -0.0193 -0.2055
28632W        W44816  10.728  12.385   2.230 -0.0270 -0.3268  0.0713
28633W        W44817   5.556  11.523   6.135 -0.1621 -0.1571 -0.0637
28634W        W44818  16.669   9.550   3.705 -0.2904 -0.0712 -0.2219
28635W        W44819  14.430   3.167  10.646  0.1635  0.1111 -0.3626
28636W        W44820  15.808   1.101  14.179  0.1184  0.0310  0.3873
28637W        W44821   3.942  12.928   4.509 -0.0787 -0.2243  0.0815
28638W        W44822  15.895  10.394  14.945  0.3790 -0.1869 -0.1609
28639W        W44823  12.389  13.448   0.105  0.0429  0.1522 -0.2112
28640W        W44824   7.306   4.131   2.272 -0.2381  0.0379 -0.0758
28641W        W44825   8.747  18.203   4.172 -0.2450  0.1633  0.0368
28642W        W44826  16.661  10.759   0.413 -0.0102  0.0213 -0.1705
28643W        W44827  10.801   1.351  12.653  0.0730 -0.2135  0.0444
28644W        W44828   7.262   9.984  15.797  0.2156 -0.0171 -0.0356
28645W        W44829   5.979   7.122   2.899  0.2571  0.2498  0.1350
28646W        W44830  14.644   0.075   2.515  0.0564  0.0387  0.0790
28647W        W44831  17.858  16.402  15.635 -0.1237 -0.1052 -0.0709
28648W        W44832   3.057   1.798  14.975  0.0209  0.1313 -0.0826
28649W        W44833   5.085   8.961   2.667 -0.1235 -0.0699 -0.0127
28650W        W44834  10.277   6.029  12.467  0.0956  0.0948 -0.1576
28651W        W44835  11.651   3.011  16.045  0.1978  0.0415  0.1319
28652W        W44836   9.178   8.708  16.013  0.1659  0.1073  0.2636
28653W        W44837   9.356   1.460   1.100 -0.1617 -0.1081  0.3542
28654W        W44838  15.682  15.036   5.033  0.0484 -0.1146 -0.0350
28655W        W44839  14.458  12.865   1.199  0.0580 -0.0083 -0.0783
28656W        W44840   9.183   2.046   4.440  0.1443 -0.0822  0.0171
28657W        W44841   8.503  10.119   5.509 -0.0733 -0.0336 -0.0325
28658W        W44842  10.545   0.925  15.827 -0.4292  0.1801  0.4963
28659W        W44843   8.919   9.206   2.856  0.0233 -0.4524 -0.2706
28660W        W44844   1.150  16.179  11.723 -0.0953  0.0455  0.1329
28661W        W44845   3.089   1.245  14.438 -0.1486 -0.0374  0.2015
28662W        W44846  12.678  15.841   2.825 -0.1586  0.1287  0.1214
28663W        W44847   8.717  12.610  12.727  0.0644  0.1517 -0.0282
28664W        W44848  11.181   8.191   2.099  0.1451  0.0205 -0.1024
28665W        W44849  10.649   2.016   0.562 -0.0068 -0.2829 -0.2765
28666W        W44850   4.903  15.897  13.129  0.3840 -0.3838  0.1353
28667W        W44851   5.071   1.635   1.076  0.1505  0.0483  0.2171
28668W        W44852   7.893   7.601  13.980 -0.1629 -0.3048  0.0779
28669W        W44853   0.861   5.169  14.621  0.0660 -0.1106  0.0633
28670W        W44854   0.045   4.528  11.752  0.0057 -0.2650  0.2619
28671W        W44855   0.523   8.889   0.816  0.0415  0.1200  0.0837
28672W        W44856   8.494  10.410   4.925 -0.0427  0.2074  0.1356
28673W        W44857  12.752   8.315  14.273 -0.0115  0.0114  0.0480
28674W        W44858   9.190  15.377   4.268  0.2364 -0.3156 -0.0134
28675W        W44859   7.928  10.917   5.511  0.0213 -0.2072 -0.0841
28676W        W44860  15.039   1.441   1.025  0.0617  0.3772  0.1339
28677W        W44861  10.159   7.355  13.338  0.1651  0.1030  0.2170
28678W        W44862  15.432  17.213   5.304  0.1714 -0.2091  0.1786
28679W        W44863  13.332   2.091   6.105 -0.0638 -0.0733  0.2125
28680W        W44864   5.175  13.438  12.465 -0.0720  0.0703  0.1603
28681W        W44865  10.364  10.873  15.336 -0.2865 -0.5254  0.1728
28682W        W44866   3.398   1.176   4.399 -0.0945 -0.1478 -0.4193
28683W        W44867  10.527  10.842   4.903  0.2012  0.0405 -0.1865
28684W        W44868   4.602   4.383  14.406  0.3624  0.2462 -0.1169
28685W        W44869   1.075   3.280   4.849 -0.2486  0.2117 -0.1037
28686W        W44870  15.375  18.071  10.646  0.1440 -0.0334  0.1495
28687W        W44871   2.485  10.582   3.702 -0.1876  0.2749  0.4020
28688W        W44872   6.255   2.235  12.094 -0.1410  0.0620 -0.2514
28689W        W44873   9.793  12.496  13.970 -0.2314 -0.0105  0.3926
28690W        W44874   6.453   6.007   4.089 -0.0065 -0.2717 -0.1688
28691W        W44875   2.603   2.954  15.542 -0.0420  0.0779 -0.0189
28692W        W44876  15.287   7.968  13.266 -0.1652  0.3675  0.0365
28693W        W44877  13.385   4.054  12.585 -0.0488 -0.2324 -0.0147
28694W        W44878   5.232  17.979   0.026  0.1591 -0.3573 -0.0634
28695W        W44879   0.872  15.385  11.906  0.0129  0.4835 -0.0053
28696W        W44880  18.471  11.973   2.959 -0.1795  0.0929  0.0007
28697W        W44881  11.725   7.081  15.754 -0.0764  0.5128  0.3270
28698W        W44882   6.916   0.932   2.052 -0.0676 -0.1453 -0.1203
28699W        W44883  14.418   8.495   0.322 -0.0078 -0.0052 -0.1662
28700W        W44884   3.580   5.606   4.881 -0.1671  0.1313  0.3698
28701W        W44885  12.589   3.233  13.568  0.0074 -0.2196  0.0929
28702W        W44886  14.958  13.201  16.082  0.1984 -0.3525 -0.0645
28703W        W44887   9.885  16.324  12.693  0.2043 -0.1688 -0.0980
28704W        W44888   2.774  18.363   0.178 -0.0974  0.2938  0.4893
28705W        W44889  17.032   7.106  14.596  0.0223  0.2412 -0.3060
28706W        W44890  11.869  17.204  11.901 -0.0373  0.0575 -0.1287
28707W        W44891  11.539   9.726   1.983  0.0277  0.2710 -0.0767
28708W        W44892   4.733   8.545   2.244  0.1032 -0.0905  0.1306
28709W        W44893   0.927   0.310   3.011  0.1328  0.3276  0.1516
28710W        W44894  18.124  15.825   0.695 -0.0113 -0.0861  0.0981
28711W        W44895   1.133   4.509   3.887 -0.1644 -0.1235 -0.0111
28712W        W44896   4.498   3.641   4.993 -0.1578 -0.3056 -0.4464
28713W        W44897   4.233   5.565   2.755 -0.3565 -0.1118 -0.0763
28714W        W44898   7.795   4.592  12.844 -0.0710 -0.3648 -0.1354
28715W        W44899  14.254   5.999  12.086  0.1490  0.1868  0.1891
28716W        W44900   6.029  13.619  14.438 -0.1000 -0.2441  0.0573
28717W        W44901  14.509  13.675  14.931  0.1657 -0.2116 -0.2221
28718W        W44902   7.652   4.135   1.386  0.2650 -0.0342 -0.1640
28719W        W44903   2.156   3.910  13.271 -0.2819  0.1217 -0.0143
28720W        W44904   4.205  17.392  12.006  0.0714 -0.2379  0.1703
28721W        W44905  14.767  10.343   3.921 -0.0439 -0.1985 -0.2719
28722W        W44906  11.545  18.251  12.761 -0.0638  0.1097 -0.0326
28723W        W44907  18.161  14.210   0.370  0.1166  0.0090  0.1110
28724W        W44908   4.697  11.903   5.192  0.2063  0.1324 -0.1489
28725W        W44909   7.219  17.866  12.986 -0.0677 -0.0192  0.0363
28726W        W44910  18.284  11.188   4.404 -0.3531  0.1115 -0.1992
28727W        W44911   8.375  13.079  11.125 -0.1207  0.1656 -0.3934
28728W        W44912  10.722  13.588  14.739 -0.0521 -0.0499 -0.1809
28729W        W44913  16.117  12.054   4.448  0.1209  0.0620  0.0127
28730W        W44914  13.713   8.564   3.898 -0.0663  0.0096  0.0937
28731W        W44915   9.693   0.086   2.730 -0.3301  0.0725 -0.1598
28732W        W44916  18.343  13.188  15.095  0.1906  0.0015  0.2156
28733W        W44917   6.827  10.687   2.167 -0.0873  0.1205 -0.0115
28734W        W44918   8.061  10.587   2.344 -0.0318  0.1221  0.1082
28735W        W44919  10.596   7.098  13.302 -0.1466 -0.1417  0.0282
28736W        W44920  13.637   7.021  13.182 -0.0852 -0.1143 -0.0326
28737W        W44921  10.177   1.166   4.984  0.0423 -0.2134 -0.2296
28738W        W44922  10.122   0.570   2.024  0.2597 -0.0848 -0.0018
28739W        W44923  18.028   3.366  15.674  0.2672 -0.1017  0.1947
28740W        W44924  10.490  10.783  14.384 -0.1730  0.2326  0.2592
28741W        W44925   6.931   2.318  15.299  0.0628  0.0637 -0.0165
28742W        W44926  13.943   4.422  13.540 -0.0486  0.3344  0.1072
28743W        W44927   1.437  10.692  15.747 -0.0579  0.1315 -0.4341
28744W        W44928  11.283  12.336  13.328 -0.0238  0.0854 -0.0772
28745W        W44929  12.227  16.122   3.905  0.1753  0.0828 -0.3517
28746W        W44930  15.521   1.963  13.847 -0.0067 -0.0257 -0.0821
28747W        W44931  18.032   0.500   3.271 -0.0671  0.0873 -0.1611
28748W        W44932  10.809  11.297  11.947  0.2118 -0.1127 -0.4002
28749W        W44933   9.329   3.516   3.523 -0.2130  0.2346 -0.0609
28750W        W44934   7.233   3.169   0.077 -0.2226  0.2741 -0.2260
28751W        W44935   0.501  16.860   4.177  0.1539 -0.1962  0.0440
28752W        W44936  14.327   0.195  14.414  0.0544 -0.5222  0.0626
28753W        W44937  11.281   9.292   4.281 -0.3301  0.1421 -0.4458
28754W        W44938   1.289   8.639   6.089  0.4278 -0.0343  0.2695
28755W        W44939  10.954  11.322   5.254 -0.0297 -0.1159 -0.3024
28756W        W44940   9.385   9.953  11.501 -0.1746  0.0428  0.1718
28757W        W44941   3.035   6.408   2.734 -0.2528 -0.4063 -0.2934
28758W        W44942  17.837   0.982  13.216 -0.2749 -0.1144 -0.0452
28759W        W44943   8.408  12.438   3.196  0.4257 -0.2099 -0.0839
28760W        W44944   8.330  12.203   3.660 -0.0426  0.0705 -0.0545
28761W        W44945   3.973  14.182  16.082  0.1971  0.0504  0.0822
28762W        W44946   1.252   2.992  12.371  0.0044  0.1271  0.0706
28763W        W44947   9.109  12.761   3.737  0.2323 -0.0778 -0.1400
28764W        W44948  11.467  14.375   2.024 -0.1439 -0.0591 -0.4973
28765W        W44949  11.902  15.413   5.505  0.1695 -0.1781 -0.1438
28766W        W44950   2.131   6.266   4.073 -0.4335  0.0363 -0.0109
28767W        W44951  10.953   1.382   1.321 -0.1816 -0.1574  0.2498
28768W        W44952  10.853  13.163   4.471  0.2585  0.0570 -0.1423
28769W        W44953  10.408  11.573  14.167 -0.2612 -0.1536 -0.2509
28770W        W44954  14.259  11.231  13.220 -0.1776  0.2990  0.1392
28771W        W44955   1.137  17.955  14.366 -0.0923 -0.1650 -0.0597
28772W        W44956   1.691   3.228   2.449 -0.0791 -0.0029 -0.0663
28773W        W44957   7.539  12.015  12.844  0.0103  0.1247 -0.4296
28774W        W44958   5.512   6.606   1.155 -0.0231 -0.0400  0.0149
28775W        W44959   0.384  13.500   2.324 -0.2366  0.0594  0.3114
28776W        W44960   7.129  11.507   2.823 -0.1723  0.4585  0.4593
28777W        W44961   4.580   1.494  14.355  0.1957  0.1136 -0.0887
28778W        W44962  11.591   7.866  15.305  0.1845  0.2922  0.0016
28779W        W44963  14.359   7.109   2.512 -0.2182  0.4441  0.0587
28780W        W44964   3.268  10.474  13.793  0.0382  0.0772 -0.0195
28781W        W44965   6.275   7.974  14.813  0.0095  0.2858  0.0260
28782W        W44966   6.754   4.563   2.802  0.2724  0.0048  0.0261
28783W        W44967   2.088  12.621   5.503  0.0156 -0.0434  0.2657
28784W        W44968  17.341  14.477   0.071 -0.1986  0.0956  0.0050
28785W        W44969  15.603  12.982  14.654  0.1619 -0.1992 -0.2063
28786W        W44970   5.137   1.907  15.777 -0.0714 -0.0976 -0.0628
28787W        W44971  17.089  10.520  12.004  0.0404  0.3437 -0.0353
28788W        W44972   5.150  16.966   0.086  0.0329  0.3541  0.1192
28789W        W44973   6.544   5.019   3.772  0.0362 -0.1073 -0.0624
28790W        W44974   8.724  11.094   2.909 -0.1617  0.0680 -0.2236
28791W        W44975  11.888  11.188   5.751 -0.1312  0.0780 -0.2581
28792W        W44976   4.099  15.803   2.722 -0.0942 -0.1570  0.1196
28793W        W44977   6.204   9.004   4.261 -0.2216 -0.1605 -0.1037
28794W        W44978  10.595   6.317  11.880  0.1346  0.2149  0.3148
28795W        W44979  16.600  11.165  12.816 -0.3125 -0.0126 -0.1099
28796W        W44980  13.229   4.219   3.268 -0.3207  0.0070  0.2078
28797W        W44981   1.293  10.258   3.344  0.1633  0.1123 -0.0957
28798W        W44982   8.251   6.021   1.843  0.1078 -0.0386  0.3861
28799W        W44983   0.100  15.650   4.423  0.0765 -0.2756 -0.0414
28800W        W44984   4.574   8.373   4.000 -0.0562  0.0631  0.1961
28801W        W44985   6.684  12.831   0.437 -0.1323  0.2498 -0.1005
28802W        W44986  14.082  13.467   5.842 -0.0483 -0.2431 -0.4271
28803W        W44987   7.153   0.849  14.752  0.0930  0.1226 -0.0366
28804W        W44988   1.277   3.758  15.106 -0.1335 -0.1818  0.3006
28805W        W44989  13.691  15.168  15.580  0.2727 -0.1177 -0.0082
28806W        W44990  14.816  12.347  11.777 -0.2238  0.3381 -0.1252
28807W        W44991  12.508  14.827   1.966  0.4010 -0.0360  0.0260
28808W        W44992   8.414  12.839   2.333 -0.4544 -0.1208 -0.0329
28809W        W44993  17.235   7.560   0.142 -0.0233 -0.2309 -0.1214
28810W        W44994   5.367  18.381  11.567  0.1224 -0.2402 -0.1152
28811W        W44995  10.165  16.902  12.856 -0.0927 -0.1574 -0.0333
28812W        W44996   7.372   2.016  12.880  0.2496  0.0302  0.3324
28813W        W44997   8.544   7.764  14.703  0.2067 -0.2256 -0.2610
28814W        W44998   3.283  11.565  14.505 -0.0873 -0.0981 -0.2237
28815W        W44999  17.019  15.950   4.872  0.3146 -0.1993 -0.1216
28816W        W45000   6.663   4.485   4.493  0.5422 -0.0446 -0.0615
28817W        W45001  11.825  15.618  15.726  0.0736  0.1748 -0.0964
28818W        W45002  11.323  13.707   3.278  0.1193  0.0981  0.0933
28819W        W45003   4.594   0.155   4.561 -0.3254 -0.0380 -0.1183
28820W        W45004   8.118  16.897  11.987 -0.0330 -0.2009 -0.2037
28821W        W45005  14.393  11.854  10.555 -0.0136 -0.1578 -0.2236
28822W        W45006   3.673  17.172  11.826  0.2198  0.0529 -0.1411
28823W        W45007  12.488   0.087  15.568 -0.2015  0.4320  0.0214
28824W        W45008  15.172   0.465   4.080 -0.1784  0.3535 -0.1201
28825W        W45009  11.954  17.109  13.567  0.0316 -0.0318  0.2540
28826W        W45010   3.431   6.827   1.874 -0.0320 -0.1110  0.0090
28827W        W45011   0.212   7.148   6.126  0.1460 -0.0048  0.1879
28828W        W45012   9.221   9.006  15.317 -0.1331  0.1494  0.3242
28829W        W45013   7.639  17.300   1.520 -0.0319  0.1050  0.0520
28830W        W45014   2.970   6.235  14.056  0.1798  0.0467  0.2504
28831W        W45015  13.341  16.514  11.759 -0.1330 -0.0354 -0.2236
28832W        W45016   3.506   3.527  10.995  0.3218 -0.1071 -0.1581
28833W        W45017   9.523  18.462  11.778 -0.3248 -0.1080  0.1402
28834W        W45018   4.144  11.194   5.240  0.0958 -0.1902  0.2636
28835W        W45019   7.134  12.752   2.939  0.1632 -0.2353  0.0205
28836W        W45020   7.481   6.658  15.757  0.1321 -0.1139  0.0488
28837W        W45021  10.781   8.566  14.259 -0.0599  0.0578  0.3875
28838W        W45022  11.060  16.002  12.372  0.1240 -0.2648 -0.0857
28839W        W45023  17.148   8.981   0.314 -0.0284  0.3627 -0.4871
28840W        W45024  13.568  10.453   1.347 -0.1317  0.0483 -0.1028
28841W        W45025   2.262  10.163   0.004  0.0237  0.0865 -0.0729
28842W        W45026  13.867   5.964  13.942 -0.0104  0.2911  0.2113
28843W        W45027   4.224  12.582   2.289 -0.1911 -0.2901 -0.2033
28844W        W45028   2.599   5.133  12.470  0.0561  0.2139 -0.3293
28845W        W45029  16.322   0.335  14.055  0.2092 -0.1772 -0.2141
28846W        W45030  12.472  18.117  14.657 -0.0470  0.0364  0.0065
28847W        W45031   1.617   8.914  14.181 -0.0408  0.1198  0.0182
28848W        W45032   2.656  10.189   3.419 -0.0125 -0.2020  0.0953
28849W        W45033   4.965   3.942   2.941  0.0007 -0.1315 -0.1197
28850W        W45034  13.785  17.046   2.273 -0.0573 -0.0505  0.0486
28851W        W45035   9.458   6.554   1.680 -0.0038  0.0251  0.0061
28852W        W45036   6.549  14.313   0.883 -0.2154  0.5569 -0.3620
28853W        W45037   1.828   6.593  11.691 -0.0049  0.0654 -0.0297
28854W        W45038  13.266   8.546  12.501 -0.1792  0.0340 -0.2381
28855W        W45039   5.993  12.753  12.158  0.0290  0.2340  0.2399
28856W        W45040   0.747   1.709   4.497 -0.2147 -0.0688  0.1416
28857W        W45041   9.252   9.518  13.161  0.0862 -0.0108 -0.0976
28858W        W45042   2.554   7.418  15.647  0.1168 -0.0170  0.1581
28859W        W45043   3.283   8.082  12.913 -0.0039  0.0528  0.2538
28860W        W45044   8.422   3.451  11.633 -0.2830 -0.1216  0.2916
28861W        W45045  16.769   9.732  15.904 -0.1618 -0.4861 -0.0914
28862W        W45046  16.891  12.419   0.458 -0.0978  0.2735 -0.1203
28863W        W45047  11.996   2.404  12.003  0.1562  0.0583  0.0794
28864W        W45048   6.799   9.652   1.970 -0.3187 -0.0845 -0.2280
28865W        W45049  12.378  11.183  13.362 -0.3260  0.2119 -0.0118
28866W        W45050  12.140  17.688  15.292 -0.0662 -0.0470 -0.1121
28867W        W45051   5.442  18.404   1.246 -0.2119 -0.0660  0.1668
28868W        W45052  13.558   8.427   4.690  0.0027  0.2799 -0.3198
28869W        W45053  17.876  16.893  11.378  0.0015 -0.1455  0.2462
28870W        W45054   7.044   0.193   0.563 -0.1008 -0.2079  0.0044
28871W        W45055  18.176   4.509   5.052 -0.0627 -0.0046 -0.0389
28872W        W45056   7.613   5.011   4.732 -0.1934 -0.0273 -0.0193
28873W        W45057  14.067   2.670   0.267 -0.2962  0.2090  0.0391
28874W        W45058  17.625  12.092  13.381  0.0609  0.2466 -0.0719
28875W        W45059  12.856  12.809  13.982 -0.2441 -0.0877 -0.0291
28876W        W45060  10.069  15.836  12.500 -0.2183 -0.0148 -0.1766
28877W        W45061  13.684   1.760   1.754 -0.1281  0.2634  0.1750
28878W        W45062   7.124  11.622   0.489  0.0151  0.0057  0.1080
28879W        W45063   8.330  18.094  11.407 -0.1467 -0.1626  0.1857
28880W        W45064   6.212  13.130  14.374  0.0921 -0.2032  0.2980
28881W        W45065   4.441  12.066   2.359 -0.1740 -0.0971  0.1244
28882W        W45066  10.256  16.806   1.717  0.1470  0.0307  0.1888
28883W        W45067  14.382   1.295   1.718 -0.1081 -0.3473  0.0739
28884W        W45068   4.436  14.548  12.456 -0.1614  0.2814 -0.1593
28885W        W45069  16.991   3.375   1.522  0.0951  0.0145 -0.0432
28886W        W45070   6.238   3.236   5.277  0.0353 -0.1669 -0.1449
28887W        W45071   6.597   9.196  13.409  0.0446  0.2730  0.1172
28888W        W45072  17.488   5.455  13.535  0.3074  0.1128  0.0716
28889W        W45073  17.069   4.577   2.027 -0.2514 -0.0366  0.0748
28890W        W45074  13.017   1.528   0.545 -0.0891 -0.0453  0.4362
28891W        W45075   1.990  16.054  11.596 -0.0333 -0.1738  0.1591
28892W        W45076   1.810  13.907   4.366 -0.4276  0.0059  0.1871
28893W        W45077  17.722  10.373  14.525 -0.0526 -0.1146  0.0113
28894W        W45078   8.693   3.725   2.023 -0.0474 -0.0118  0.1327
28895W        W45079   7.405   7.728   2.564 -0.1794 -0.1459 -0.2258
28896W        W45080  10.632  15.906   5.576 -0.0330  0.0903 -0.2324
28897W        W45081   8.602  12.675   1.830 -0.0355  0.2742 -0.1502
28898W        W45082   1.163  14.692   5.725  0.1711  0.1685 -0.0560
28899W        W45083   0.491   9.421   5.663 -0.1542  0.0802 -0.1163
28900W        W45084  13.034   7.224  11.828  0.3495  0.2973 -0.1155
28901W        W45085   2.227   7.822   1.605  0.1022  0.3704  0.1143
28902W        W45086   4.267  10.028   4.154  0.2264 -0.3402  0.2296
28903W        W45087   0.649  15.334   4.163 -0.2514  0.0276  0.1143
28904W        W45088   4.473  17.251   4.937  0.1006  0.2224  0.1317
28905W        W45089   6.991   4.933  13.147  0.3737  0.3304  0.1007
28906W        W45090  16.279   7.439  12.281  0.0816 -0.2033 -0.0074
28907W        W45091  13.754   2.600  12.809 -0.1184  0.0219  0.0623
28908W        W45092   9.179  10.895   4.230  0.2065 -0.2626 -0.2043
28909W        W45093   2.040  17.931  12.056  0.0153 -0.0954 -0.1463
28910W        W45094  18.516  14.120  15.295 -0.1202 -0.1410  0.0840
28911W        W45095  12.819   6.492   5.342  0.1483 -0.0823  0.0582
28912W        W45096  16.036  11.167   0.116  0.0113 -0.2164  0.4570
28913W        W45097  11.033   0.759  12.349 -0.1124  0.0522 -0.1177
28914W        W45098  16.212  11.271  14.762 -0.1397 -0.0720 -0.3845
28915W        W45099  10.020  17.425  13.020 -0.0571  0.1113 -0.0216
28916W        W45100   2.643  15.769  12.209 -0.3141  0.1687 -0.0243
28917W        W45101   7.985  10.326  12.486  0.0224  0.3435 -0.0875
28918W        W45102  12.767  14.436   0.358 -0.1538  0.1375 -0.2121
28919W        W45103   5.022   6.741   1.968  0.1419 -0.0501 -0.0244
28920W        W45104   4.712   7.144   2.051 -0.0474 -0.0883 -0.0499
28921W        W45105  14.010   3.036   4.394 -0.0689  0.0829  0.3753
28922W        W45106   6.764   6.403  13.480  0.0414 -0.0650 -0.0671
28923W        W45107  13.643  10.115  13.006 -0.6148  0.1836 -0.2037
28924W        W45108  15.039  16.364  11.027  0.0153 -0.1775  0.1070
28925W        W45109  17.483   4.880   3.959  0.0466  0.2054  0.1208
28926W        W45110   6.675   8.747   1.531 -0.0148  0.2423  0.0052
28927W        W45111   5.529   8.216   0.338 -0.0601  0.0288  0.0038
28928W        W45112  13.502   6.081  13.581  0.3767 -0.2456  0.2789
28929W        W45113   8.166   1.223  10.532  0.0436 -0.0941  0.1930
28930W        W45114  10.210   0.403   2.895  0.1955 -0.0165  0.3470
28931W        W45115   6.472  12.345   5.274  0.0818  0.0789  0.1469
28932W        W45116   2.282   1.399   2.873  0.2170 -0.2531 -0.1928
28933W        W45117  12.852  14.431  12.890 -0.1041  0.2029  0.1130
28934W        W45118   1.613  15.747   3.391 -0.1395 -0.3594 -0.3085
28935W        W45119   4.029  15.669  14.600  0.3074  0.2245 -0.0084
28936W        W45120   0.194   6.327  15.391  0.1042 -0.2416  0.1375
28937W        W45121  10.276  11.331  11.758  0.1304 -0.3693  0.1838
28938W        W45122  11.615   1.402  12.522  0.1399 -0.1654  0.2039
28939W        W45123  10.851   3.779   3.899  0.1857 -0.4794 -0.2290
28940W        W45124  13.638  11.515  14.666  0.1705 -0.0680 -0.0864
28941W        W45125   0.064   9.190  11.596  0.0782 -0.2376  0.0577
28942W        W45126  15.986   1.058  14.794  0.1682  0.4937  0.1080
28943W        W45127   5.869   0.573  14.517 -0.1802 -0.1174 -0.2326
28944W        W45128   3.682  10.338   0.063  0.0129  0.2353 -0.1922
28945W        W45129  16.474   0.941  14.864 -0.2422 -0.2851 -0.1655
28946W        W45130   1.811   1.984   0.201  0.4193  0.2604 -0.2270
28947W        W45131   2.333  12.587   3.833 -0.1239 -0.1334  0.2222
28948W        W45132  13.522   8.283  13.432 -0.5246  0.0225  0.0698
28949W        W45133  12.996   2.420   5.793  0.1187 -0.0631  0.0700
28950W        W45134  10.458   7.341   2.752 -0.3464  0.2206  0.4285
28951W        W45135   9.494  18.160   3.709  0.0146 -0.2315 -0.2033
28952W        W45136  11.253   1.630  15.937 -0.1870  0.1744  0.0677
28953W        W45137  16.463  10.483   4.611 -0.2317  0.1711 -0.1439
28954W        W45138  13.947  10.923   1.338  0.1353 -0.1605  0.1467
28955W        W45139  18.513  10.135   4.632  0.2441 -0.0087 -0.1243
28956W        W45140  10.754   2.350  11.875 -0.0756  0.1381 -0.1991
28957W        W45141   8.763   1.062   5.556  0.3453 -0.0751  0.0770
28958W        W45142  14.384   7.339   4.658  0.0067 -0.0788  0.1669
28959W        W45143   8.454  11.083  11.394  0.0470  0.0712  0.1052
28960W        W45144   0.003   0.207  13.160  0.2285 -0.1595  0.1777
28961W        W45145  10.540   1.826  12.709 -0.1895 -0.1221  0.0911
28962W        W45146  10.119  13.890   0.968 -0.3167  0.1366  0.0447
28963W        W45147  16.697   7.956  15.764  0.1065 -0.0614 -0.0415
28964W        W45148   7.433   6.055  14.031  0.3009  0.0659 -0.0407
28965W        W45149  13.562   9.299   3.422  0.2576 -0.2042  0.1842
28966W        W45150   8.670  13.933  10.962 -0.1260 -0.0883 -0.0572
28967W        W45151   7.337   9.496  16.026 -0.1021  0.0688  0.2982
28968W        W45152  13.115  10.319   2.172 -0.1301 -0.0176 -0.2221
28969W        W45153   0.851  16.516   4.680 -0.0655  0.0897 -0.0436
28970W        W45154  17.475  11.788   5.234  0.1571 -0.0894  0.1076
28971W        W45155   1.383   2.584  12.013  0.0591  0.4319  0.0663
28972W        W45156   8.832  18.425   3.149 -0.0578  0.1504 -0.0563
28973W        W45157   8.443  12.120   5.201  0.0644  0.0278 -0.1884
28974W        W45158   3.815  10.082   1.888  0.3072 -0.4608 -0.1561
28975W        W45159  18.394  11.710   1.840  0.2471 -0.1235  0.0399
28976W        W45160   0.094   8.495   4.365  0.2173 -0.1667  0.1592
28977W        W45161   9.149  11.606  12.208  0.2382 -0.1266  0.0343
28978W        W45162   6.344  13.824  13.358 -0.2183  0.0564 -0.1245
28979W        W45163  14.884   6.478   5.947 -0.2395  0.2861 -0.1875
28980W        W45164   0.899  10.551   5.410  0.1394 -0.1797  0.2123
28981W        W45165  12.143  11.560  14.762 -0.5576 -0.0569 -0.2393
28982W        W45166   0.113   3.443  15.668 -0.2521 -0.4183 -0.4884
28983W        W45167   3.847   5.363  15.158 -0.0737 -0.1148 -0.0758
28984W        W45168   4.866   4.920  12.885 -0.2977 -0.1719  0.1564
28985W        W45169   1.815   1.955  15.214  0.1098 -0.0597  0.1057
28986W        W45170   2.556   1.176   4.042 -0.0238 -0.4950 -0.3715
28987W        W45171   9.404  12.380   3.410 -0.6330 -0.1516  0.2267
28988W        W45172  12.777   3.018  15.206  0.0629 -0.2924 -0.0849
28989W        W45173   4.273   0.354  13.738  0.0713 -0.1442  0.3322
28990W        W45174   0.346  16.931   2.039 -0.2165  0.0391  0.4990
28991W        W45175   1.362   4.203   0.430  0.1669 -0.2293 -0.2623
28992W        W45176  11.454   6.620  12.765  0.3428  0.3237 -0.0506
28993W        W45177   9.161   3.881   3.867 -0.1143  0.1959  0.0846
28994W        W45178   9.428   8.187   5.325 -0.4851  0.2896  0.0748
28995W        W45179  10.780   1.199  14.111  0.4360 -0.1458  0.0114
28996W        W45180   8.792   8.898   2.326  0.0604 -0.0082 -0.2047
28997W        W45181  12.765   6.834   4.583 -0.0752 -0.1290 -0.0291
28998W        W45182  12.127   8.902   0.218 -0.0577 -0.0439  0.0682
28999W        W45183   6.871   9.109   5.017 -0.0972 -0.0887 -0.3661
29000W        W45184  17.783   3.665   1.229 -0.2559 -0.2469  0.0800
29001W        W45185  15.878   0.885   0.631  0.2749 -0.0361  0.0726
29002W        W45186   8.009   9.296   0.392  0.0086  0.0750  0.1728
29003W        W45187   5.893  16.936   0.582 -0.0792 -0.1631 -0.1859
29004W        W45188   2.110   3.156   2.640  0.2039  0.0291 -0.1915
29005W        W45189  13.847   8.562   1.114 -0.1948 -0.2536  0.1163
29006W        W45190  18.107   6.411   1.611 -0.0952  0.1043 -0.1290
29007W        W45191   2.510   7.660  16.144  0.3200  0.0561  0.2983
29008W        W45192  12.058  15.852  13.454  0.2615 -0.5206 -0.0828
29009W        W45193   2.004   6.853  12.119  0.0032 -0.3548 -0.0041
29010W        W45194   6.244   2.900  13.624 -0.1711  0.3628 -0.0273
29011W        W45195   0.355   6.554  14.908  0.0104 -0.0983  0.3305
29012W        W45196  12.919   9.687  12.325  0.1174 -0.1174  0.0579
29013W        W45197  12.662   0.249   5.250  0.0705  0.0064  0.1861
29014W        W45198  13.681   5.810   1.504 -0.0639  0.5505 -0.0564
29015W        W45199   4.416   6.797  11.072 -0.2431 -0.0587  0.1623
29016W        W45200   5.177  18.024   1.011  0.1701 -0.2451  0.0047
29017W        W45201  15.501  17.489   4.894  0.0238  0.2163  0.0378
29018W        W45202   3.650  14.954   1.030  0.0352  0.2791 -0.2355
29019W        W45203   4.715  13.168  15.557  0.2198 -0.0456 -0.0374
29020W        W45204  13.434   4.053  14.234 -0.2416  0.1070 -0.0266
29021W        W45205   9.001  10.522   5.038 -0.2020  0.2717  0.2319
29022W        W45206  13.903  11.214  15.485 -0.0852 -0.0465  0.1895
29023W        W45207  13.989  16.099   1.528 -0.1913 -0.0205  0.2330
29024W        W45208   0.294  14.350   2.338  0.3460  0.1248  0.4828
29025W        W45209  12.966   0.732   1.820 -0.1954 -0.1409  0.0706
29026W        W45210   0.644   3.236  15.591 -0.0227  0.1282 -0.0140
29027W        W45211   1.804   4.437   0.434 -0.1355  0.2761 -0.0539
29028W        W45212   9.043   3.990  15.126  0.3759  0.0660  0.1062
29029W        W45213   2.536   8.734  12.742 -0.1818 -0.3152  0.0561
29030W        W45214  15.099  10.909   0.303 -0.1263  0.0832  0.0954
29031W        W45215   9.031   6.042  13.503 -0.2428  0.2726  0.2995
29032W        W45216   0.905   0.907   1.635  0.0426  0.3046  0.1718
29033W        W45217  12.311   8.323   3.519 -0.1145  0.1718  0.5980
29034W        W45218   9.980  12.152   4.709 -0.3473 -0.0344  0.0264
29035W        W45219  17.810   7.698  14.597  0.2856 -0.0528 -0.2083
29036W        W45220  16.227   2.662   1.932 -0.1640  0.1452 -0.2105
29037W        W45221  13.939  14.334  15.907  0.1546 -0.0616 -0.1126
29038W        W45222   9.267  15.057  15.553 -0.1146  0.0929  0.1173
29039W        W45223  16.314   3.239  12.574  0.1002  0.0078 -0.0079
29040W        W45224   7.016   5.737  12.143 -0.2715  0.1179 -0.0880
29041W        W45225  12.665   9.323   2.652  0.1775 -0.1583 -0.1816
29042W        W45226   3.525   0.651   3.601 -0.0808  0.1166 -0.0673
29043W        W45227  16.313  14.179  15.778  0.0055 -0.0548  0.0683
29044W        W45228  16.823   1.607   1.693 -0.3536  0.0158 -0.1885
29045W        W45229   9.534  15.496   0.732 -0.0451 -0.0127 -0.0244
29046W        W45230   8.184  14.905  14.525  0.1134 -0.0539 -0.0744
29047W        W45231   3.501   8.843  16.020 -0.0201  0.2002  0.0157
29048W        W45232   0.245  12.554  11.419  0.0601 -0.2314 -0.1166
29049W        W45233   5.345  17.473  12.762 -0.4445  0.0381  0.1885
29050W        W45234   4.380   7.918   3.984 -0.0077  0.2566 -0.1044
29051W        W45235  11.055  12.847   3.465 -0.5277  0.1391 -0.0401
29052W        W45236  11.859   0.589   0.654 -0.0146  0.0265  0.0088
29053W        W45237  12.686  11.962   4.971 -0.1062  0.0287  0.3518
29054W        W45238   0.288  11.911   5.669  0.1411 -0.1523  0.0441
29055W        W45239   1.020  16.051   1.122  0.2192 -0.3667 -0.0246
29056W        W45240   8.484   8.527  15.064 -0.2466 -0.1609 -0.0182
29057W        W45241  10.968  10.238  13.113  0.0520 -0.2857 -0.2912
29058W        W45242  13.874  16.648  12.020 -0.0288  0.2043  0.1911
29059W        W45243  10.979   4.971   6.365  0.1452  0.0257 -0.1531
29060W        W45244   1.409   0.474   2.076  0.1558 -0.3090  0.1251
29061W        W45245   3.915   6.099   3.616  0.2513 -0.0287  0.3965
29062W        W45246   6.226   5.279   1.726 -0.2348 -0.3273  0.1618
29063W        W45247  11.780   5.477  13.500 -0.3708  0.0989  0.0681
29064W        W45248   6.712  10.198  13.094 -0.1373  0.2064  0.4264
29065W        W45249   6.792   2.846  15.370 -0.0781  0.0970 -0.1972
29066W        W45250  11.622  16.436  15.635 -0.0599 -0.1767 -0.1987
29067W        W45251   5.492  18.061   4.679  0.1719 -0.0100 -0.0435
29068W        W45252   0.339  11.779  11.813 -0.0996  0.2886 -0.0287
29069W        W45253   6.922   0.602   2.489 -0.2653  0.1576 -0.1467
29070W        W45254  17.152  11.114   4.101  0.3090  0.4578  0.0483
29071W        W45255  16.368   5.916   3.130 -0.1379 -0.0009 -0.0465
29072W        W45256   9.070   6.617  15.533  0.0302  0.1309 -0.0869
29073W        W45257   9.948   6.553  11.682  0.1127  0.2162  0.1090
29074W        W45258   5.273  13.477  14.213  0.3091  0.1399 -0.5890
29075W        W45259  14.823   9.741   5.064 -0.1893  0.1496  0.2227
29076W        W45260   8.132  17.150   3.510  0.3495  0.0349 -0.0710
29077W        W45261  16.263  16.867  14.415  0.0254  0.1195  0.1728
29078W        W45262   6.013  14.096  14.050  0.0568  0.1990 -0.0561
29079W        W45263  12.550  14.079  13.870 -0.2785  0.1323 -0.0358
29080W        W45264   8.624   7.155  13.926  0.3777  0.0240  0.2732
29081W        W45265   7.281  17.879  13.567  0.2274 -0.0949 -0.2168
29082W        W45266   8.541   8.364   1.821 -0.1313 -0.0865 -0.2075
29083W        W45267  11.685   4.523  10.658 -0.2694  0.0223  0.0500
29084W        W45268  16.989   2.783  15.186  0.2126  0.0508 -0.1637
29085W        W45269   0.732   7.560  12.380 -0.0084  0.0447  0.1903
29086W        W45270  16.730  17.228   0.760 -0.0002 -0.2489  0.0782
29087W        W45271  16.438   3.427   5.154 -0.4074 -0.1220  0.1587
29088W        W45272   8.101  10.643   0.479  0.0155 -0.1218  0.0502
29089W        W45273   6.620   2.612   0.721 -0.2939  0.0946 -0.2237
29090W        W45274   8.807   2.167  14.439 -0.0390 -0.2033 -0.0468
29091W        W45275  14.282  10.579   1.553 -0.0836  0.0477  0.2714
29092W        W45276   7.570   3.640   3.280 -0.2797  0.2886  0.1084
29093W        W45277   2.365   5.016   2.312 -0.5222  0.1805  0.1484
29094W        W45278   2.639  17.227   2.757  0.2234  0.0767 -0.1784
29095W        W45279   0.020  16.981  11.661 -0.1327 -0.1631 -0.0821
29096W        W45280   6.689  11.901   0.746 -0.2087 -0.0511  0.4058
29097W        W45281   3.713   8.128   1.525  0.0475  0.1588 -0.2118
29098W        W45282  11.346  13.371  13.646  0.0302 -0.1297  0.0922
29099W        W45283  18.053  16.954  15.579  0.2789  0.1663 -0.2898
29100W        W45284   5.809   5.622   1.871 -0.0088 -0.0799 -0.0343
29101W        W45285  12.396   4.435  11.750 -0.1341  0.1094  0.1245
29102W        W45286  15.218   0.015  10.424  0.4215 -0.2408 -0.0037
29103W        W45287  15.002  12.866  13.162 -0.2960 -0.1329  0.0037
29104W        W45288  15.617  11.238   2.604 -0.2990  0.2160 -0.1829
29105W        W45289   8.401  13.663   2.338 -0.1416  0.2237  0.0063
29106W        W45290   3.972  18.388  14.911  0.0722 -0.2326 -0.2519
29107W        W45291   1.843   7.869   4.135 -0.1060 -0.1743 -0.1195
29108W        W45292  14.740   8.344   1.984 -0.1194  0.0792  0.1181
29109W        W45293   8.361  16.776  15.963  0.0029 -0.0660  0.0451
29110W        W45294   7.087  12.722   1.214  0.0029 -0.0150 -0.1334
29111W        W45295   3.587  11.962  15.104  0.2137 -0.0975 -0.2274
29112W        W45296   0.461   1.189   2.339  0.1374  0.0262 -0.0538
29113W        W45297  16.111   4.086  14.258 -0.3548 -0.2340  0.2255
29114W        W45298  14.362  12.401   1.014 -0.2433 -0.2069 -0.1648
29115W        W45299  14.597   0.089   1.514 -0.0065  0.0851 -0.3785
29116W        W45300  14.773   1.551  11.408  0.0375 -0.1006 -0.0480
29117W        W45301  15.020  15.110   3.638 -0.2424  0.2017 -0.1678
29118W        W45302   9.166   9.656   2.650 -0.0717 -0.0634  0.2777
29119W        W45303   1.081   9.188   5.711 -0.5274  0.0749 -0.1971
29120W        W45304   0.832   0.188   1.496 -0.0805  0.1081 -0.0382
29121W        W45305   5.234  17.084  11.601  0.0502 -0.2633 -0.0127
29122W        W45306  13.977   3.776   2.279 -0.2457  0.1878  0.0210
29123W        W45307  12.841   6.582  14.213  0.1029  0.3803  0.1631
29124W        W45308  11.736   1.101  14.417  0.0539  0.1214  0.2522
29125W        W45309  12.463   4.954   0.914 -0.2193 -0.1613 -0.0625
29126W        W45310   6.484   8.436  15.569 -0.3886 -0.2621 -0.0728
29127W        W45311  16.539  15.197  13.431  0.0317 -0.1734 -0.3546
29128W        W45312   2.312  10.986   2.688  0.0308 -0.4252 -0.1929
29129W        W45313   7.669   6.080  11.917  0.1637 -0.3003 -0.0223
29130W        W45314   1.549   2.201  15.965 -0.1008 -0.0424 -0.0255
29131W        W45315  16.695   9.554  12.099  0.0238  0.3499 -0.2050
29132W        W45316  15.404  15.365  12.823  0.1337  0.5179 -0.0006
29133W        W45317   5.383   6.830  12.178 -0.2501 -0.0201 -0.2168
29134W        W45318   1.362   3.113  14.128  0.1554  0.0312 -0.1011
29135W        W45319   5.729  16.182  12.786 -0.1630 -0.1179 -0.1654
29136W        W45320  10.694  18.235  13.901  0.1781 -0.4682 -0.0858
29137W        W45321   8.973  14.526   2.229 -0.0530  0.3586  0.0567
29138W        W45322   2.758   9.913   1.404  0.0402  0.3214  0.1130
29139W        W45323  15.548  12.039  11.389  0.3037 -0.0825 -0.1647
29140W        W45324  11.330   2.536  16.121 -0.3030  0.0870 -0.0090
29141W        W45325  15.668   2.218   1.313 -0.3521  0.1173  0.0907
29142W        W45326  10.444   5.672   6.121  0.0642  0.1704  0.2731
29143W        W45327  12.817   8.108  12.685 -0.2288  0.0440  0.1228
29144W        W45328  10.505   1.576   0.270 -0.1800 -0.3087 -0.3228
29145W        W45329  14.118  14.463  14.866 -0.0412 -0.1563 -0.1342
29146W        W45330  14.999   8.564   3.436  0.1979 -0.7190  0.2425
29147W        W45331  10.019   6.028   3.785 -0.0559  0.0775 -0.1097
29148W        W45332   1.914  11.577  13.861  0.1181  0.1549  0.1930
29149W        W45333   6.726  16.459   0.824 -0.1049  0.3808  0.1014
29150W        W45334   5.778   1.296   1.511  0.0155  0.4394  0.4131
29151W        W45335   7.411  10.005   2.527 -0.1598  0.5345 -0.2499
29152W        W45336   3.447   0.794   0.583 -0.2313 -0.0764  0.0410
29153W        W45337   8.765   4.545   1.008  0.2052  0.1573 -0.0446
29154W        W45338   8.122   0.606  11.498 -0.0542  0.0143 -0.1607
29155W        W45339   4.654  16.137   1.580  0.1775 -0.0551 -0.0809
29156W        W45340  11.309   7.908  15.722 -0.0831  0.1872 -0.3643
29157W        W45341  15.412   4.203  15.557  0.0444 -0.1106  0.2089
29158W        W45342  12.828   0.914   2.869 -0.0317 -0.2009 -0.0211
29159W        W45343  12.609   6.904  12.972 -0.0063 -0.0440  0.0120
29160W        W45344  13.307   3.123  16.123 -0.0725  0.2460  0.1945
29161W        W45345  11.759  13.839   0.048  0.1197 -0.2382  0.2764
29162W        W45346  12.114   6.068  13.863 -0.1188  0.0819  0.1501
29163W        W45347   1.494   7.799   0.920  0.0071 -0.2701 -0.0608
29164W        W45348  17.068   3.011   1.162  0.2540 -0.1231 -0.1504
29165W        W45349  14.162  10.847  11.820  0.0083 -0.1519  0.0469
29166W        W45350  10.585   6.076   4.738  0.1493 -0.0934 -0.1710
29167W        W45351   6.475   9.843  10.397 -0.0945  0.1709  0.1899
29168W        W45352  10.237  15.238   5.085 -0.0968 -0.1381 -0.2213
29169W        W45353   3.639   2.552  15.699  0.3255 -0.0460  0.1631
29170W        W45354  12.328   2.834  13.777  0.1286 -0.0883 -0.0294
29171W        W45355  16.803   1.277   4.067  0.0126  0.2689  0.0784
29172W        W45356   0.022  17.594  12.399  0.1715 -0.1457  0.0035
29173W        W45357   6.207  18.306  15.632 -0.0198  0.0647 -0.2862
29174W        W45358  14.842   8.091   3.603  0.0098 -0.0762  0.3531
29175W        W45359  16.671   0.465  14.728 -0.5074 -0.1839 -0.2633
29176W        W45360   7.265   7.596   5.897  0.1855 -0.0108  0.0117
29177W        W45361   8.586   0.566  12.296  0.1274 -0.1619 -0.0443
29178W        W45362  16.646  17.968   1.320 -0.1618  0.4873 -0.1378
29179W        W45363   5.113   0.124  10.656 -0.3309 -0.0240 -0.0704
29180W        W45364  10.276  18.192   0.242 -0.1729 -0.2683 -0.5402
29181W        W45365   2.202  13.092   5.289  0.1319  0.1182 -0.1054
29182W        W45366  13.215   3.866  13.022 -0.1297 -0.0111  0.0109
29183W        W45367  16.865   3.594  12.392  0.0090 -0.0065  0.1983
29184W        W45368  15.825   7.680  12.306  0.1121 -0.2673 -0.2737
29185W        W45369   9.187  14.117  15.953  0.1463 -0.1955 -0.1130
29186W        W45370  14.066  16.455  13.303  0.0976  0.0405 -0.1556
29187W        W45371   4.000   7.315  14.688  0.1381 -0.1180  0.3220
29188W        W45372  17.699  12.803   0.216 -0.0632 -0.1767  0.1678
29189W        W45373   2.197  12.860  12.410  0.1509  0.0115 -0.1907
29190W        W45374   9.207   5.890  15.922  0.3559  0.2581  0.1075
29191W        W45375   7.640  18.309  14.832  0.5022 -0.1189 -0.2886
29192W        W45376   5.044  10.165   2.587  0.0153 -0.0424  0.2447
29193W        W45377   9.353  11.591  15.646 -0.1451  0.2895 -0.0023
29194W        W45378   2.628   4.927   4.049 -0.1083  0.1917  0.1927
29195W        W45379   3.852  11.223   2.925  0.0570 -0.0883  0.1398
29196W        W45380   4.547  15.815   3.021 -0.0513  0.1132  0.2173
29197W        W45381   9.475   6.387  11.726  0.0433 -0.3080  0.1474
29198W        W45382   8.511   3.906  15.983 -0.1811  0.0988  0.1013
29199W        W45383  16.564   1.658   4.231  0.0235 -0.4977 -0.0661
29200W        W45384  13.985  14.098   2.955  0.2357  0.1412  0.0644
29201W        W45385  14.961  16.037  11.835  0.1940  0.1314  0.2097
29202W        W45386  11.491   7.050   4.545 -0.1139  0.2260  0.1515
29203W        W45387   8.623  10.578   0.619  0.2806 -0.0706 -0.2729
29204W        W45388  12.321   2.827  12.114  0.0299 -0.0744 -0.1029
29205W        W45389  14.888   2.589  10.659 -0.2906 -0.0612 -0.1037
29206W        W45390   5.735   3.788   0.686  0.0947  0.0496  0.3551
29207W        W45391   7.131  14.782   0.283  0.0424 -0.2246 -0.0928
29208W        W45392  11.468   5.999  13.426  0.1091 -0.0067 -0.2154
29209W        W45393   4.405   1.587  14.871  0.1735 -0.1771  0.1329
29210W        W45394   9.581   5.415   3.643 -0.1570  0.0940 -0.1166
29211W        W45395   6.225  12.263   4.465 -0.0126  0.2322 -0.0552
29212W        W45396   7.883   7.314   1.609  0.1251 -0.0441 -0.3008
29213W        W45397   1.673  16.570  14.302 -0.0056  0.0780 -0.4128
29214W        W45398   2.121   8.476  12.633 -0.2528 -0.2731  0.0121
29215W        W45399   6.808  14.196   6.114  0.1020  0.3581 -0.0371
29216W        W45400  10.691   1.688  15.257 -0.2061 -0.2876 -0.1513
29217W        W45401   3.012   5.137   3.095 -0.3698 -0.1853 -0.0768
29218W        W45402  15.532   5.743  13.930  0.0745 -0.3123 -0.0439
29219W        W45403  12.856   5.989  11.452  0.0170  0.1869 -0.2234
29220W        W45404  13.439   8.943   3.046 -0.2188  0.0150  0.4224
29221W        W45405  11.209  10.094   1.146  0.2525 -0.1355 -0.0857
29222W        W45406   4.907  17.256   4.099  0.1409 -0.0533  0.1156
29223W        W45407  18.255  15.587  11.688 -0.2019  0.0377  0.0535
29224W        W45408   6.345  10.771   3.587  0.1812  0.0017  0.0290
29225W        W45409   4.450   9.239   1.637  0.1140 -0.2974  0.1808
29226W        W45410   6.575   6.316  16.056 -0.0338  0.0921  0.1030
29227W        W45411  13.889  16.658  16.115  0.0340 -0.1644  0.0125
29228W        W45412  11.131  13.570  11.642 -0.1733 -0.0228 -0.1239
29229W        W45413   5.662   5.274   0.042  0.2409 -0.1877  0.2291
29230W        W45414   7.538  12.982   1.051 -0.2822 -0.1823 -0.0502
29231W        W45415   6.402  16.211   4.096 -0.0467 -0.2139  0.0932
29232W        W45416   6.427  15.267  13.506  0.0483  0.3037 -0.4994
29233W        W45417  13.907   6.203   0.059 -0.0840  0.1384 -0.2534
29234W        W45418  10.115  10.415   5.077 -0.1107 -0.0108  0.2112
29235W        W45419   9.911  15.921   3.569  0.0725  0.0468 -0.0735
29236W        W45420   5.931  16.243   1.974  0.1967 -0.1304  0.1852
29237W        W45421  17.803   4.269  15.945 -0.0160 -0.2340  0.2288
29238W        W45422   7.131   1.323  11.230 -0.0419  0.2038  0.2490
29239W        W45423   4.782  11.302   1.645 -0.0571 -0.2665  0.1307
29240W        W45424   6.336   8.601   3.525 -0.0829  0.1093 -0.0660
29241W        W45425  16.125  10.779  14.572 -0.1418 -0.2712 -0.2176
29242W        W45426   8.669   0.715   1.738  0.1723  0.1182 -0.0961
29243W        W45427   1.585  10.303  12.618  0.1119 -0.0098  0.1180
29244W        W45428  15.334  11.668   4.036 -0.3528 -0.2885  0.2379
29245W        W45429   1.657  17.003   0.874 -0.3708  0.1237 -0.1770
29246W        W45430  13.427  16.103  13.059 -0.1656  0.5786  0.0738
29247W        W45431   6.279   4.246  12.955 -0.1501  0.1250 -0.3208
29248W        W45432  13.423  12.142   4.421  0.1101  0.1410 -0.0410
29249W        W45433   0.154   8.078  11.446 -0.0682 -0.2332  0.4063
29250W        W45434   9.560   5.729   4.572  0.0968 -0.0583  0.1800
29251W        W45435  15.909  12.929   3.833 -0.2281 -0.4729  0.0359
29252W        W45436  13.825   0.475   0.992  0.1102 -0.2161  0.1926
29253W        W45437   9.796   0.504   0.073  0.1071 -0.2658  0.0143
29254W        W45438  13.125   7.707   1.565 -0.0180  0.3292  0.0895
29255W        W45439   7.599  11.555   2.572  0.0576  0.3172  0.4733
29256W        W45440   7.189   5.140  14.141  0.1702 -0.0155 -0.0065
29257W        W45441   8.436  10.592  15.680 -0.1719 -0.0911  0.4207
29258W        W45442   0.791  13.435   1.980 -0.3068  0.1170 -0.2153
29259W        W45443  12.548  12.405   2.368  0.1710  0.3129 -0.2441
29260W        W45444   6.235   4.325  15.748  0.3468  0.2602 -0.0354
29261W        W45445   0.559   0.129   4.578 -0.1610  0.0761  0.2498
29262W        W45446   6.928  15.090   2.473 -0.1000  0.1870 -0.0340
29263W        W45447   0.805   5.711  14.726 -0.2065 -0.2470  0.3788
29264W        W45448   0.326   0.063  14.261  0.2051  0.0200 -0.0374
29265W        W45449   2.398  18.478  13.716  0.1475 -0.1981 -0.1284
29266W        W45450  11.548  11.740   3.607  0.0940 -0.0492  0.3566
29267W        W45451  10.261  16.402  14.008 -0.1462 -0.0804 -0.3373
29268W        W45452  10.737  11.305  13.145  0.2059 -0.1634 -0.1659
29269W        W45453  18.127  11.598   4.026  0.2250  0.5488 -0.0718
29270W        W45454   7.045   8.979   5.866  0.3425 -0.4948 -0.0182
29271W        W45455  17.278  10.293  15.754  0.1712  0.1700  0.0419
29272W        W45456   1.795   5.678   2.988 -0.4768 -0.1099  0.0046
29273W        W45457  16.308   1.946  13.296  0.0802  0.1826  0.0547
29274W        W45458  15.356   9.005  14.995  0.1937 -0.1727 -0.3779
29275W        W45459  15.145   3.377  13.019 -0.2383  0.0160  0.2099
29276W        W45460   2.704   1.912   0.545 -0.0751 -0.3721 -0.1875
29277W        W45461   5.708  15.140   1.669 -0.0458 -0.0484 -0.0466
29278W        W45462   7.576  13.161  13.123 -0.0613 -0.3314  0.0497
29279W        W45463  12.004   8.539  13.801  0.0473 -0.0136  0.0237
29280W        W45464   4.035  18.017  13.133 -0.1017  0.3061  0.1129
29281W        W45465   7.008   7.080   0.712  0.1023  0.0148  0.1026
29282W        W45466   1.743   3.045   1.066  0.3035 -0.0171  0.1552
29283W        W45467   7.210   9.838   6.166 -0.2510  0.2257  0.0520
29284W        W45468  15.846  13.364   4.239  0.1273 -0.2454  0.3360
29285W        W45469  18.005  11.178  12.228 -0.1020  0.4851 -0.2716
29286W        W45470   4.973  15.895   0.252  0.1052  0.1001  0.1810
29287W        W45471  12.174   7.909  13.594 -0.3539 -0.3341 -0.0125
29288W        W45472  13.207   5.343  10.903 -0.0914  0.0457 -0.2911
29289W        W45473  17.184   8.002  15.593 -0.1613 -0.0466 -0.2385
29290W        W45474  11.758   7.965  15.929  0.0840  0.0435  0.0860
29291W        W45475  14.954  10.628  13.891 -0.1097 -0.2984 -0.2292
29292W        W45476   7.050   1.262  13.773 -0.1210  0.1232  0.1925
29293W        W45477   3.286  12.726   6.166 -0.2843 -0.2955 -0.2743
29294W        W45478  14.361   2.584  12.100 -0.3050 -0.0702  0.0464
29295W        W45479   7.958   0.079  14.574 -0.2776 -0.1726 -0.0356
29296W        W45480  15.072   3.300  15.720 -0.0636 -0.3744  0.2404
29297W        W45481  11.458   0.132   1.578 -0.1201 -0.4640  0.0376
29298W        W45482  14.110   4.226   0.637  0.0170  0.0630 -0.0466
29299W        W45483   4.181  10.330  12.475 -0.2824 -0.3889 -0.0574
29300W        W45484  13.012  16.141   0.708  0.0999 -0.0499  0.0012
29301W        W45485  10.799   9.350  15.433  0.3897 -0.4222  0.0373
29302W        W45486  10.076   9.324   1.311  0.2377 -0.1347 -0.3013
29303W        W45487   9.867  17.049   1.771 -0.1073  0.2607 -0.0469
29304W        W45488   4.862   8.269   3.212 -0.1828  0.1146 -0.1221
29305W        W45489  18.311  11.210   0.366  0.0203  0.4908 -0.2508
29306W        W45490   7.579   2.840  11.193 -0.0887  0.2786 -0.0228
29307W        W45491  16.884  16.245  14.195  0.0538 -0.0343 -0.0246
29308W        W45492   1.165  13.048   5.577  0.1657  0.0387  0.1410
29309W        W45493  11.137  12.409   1.812  0.1877 -0.1172  0.3878
29310W        W45494  12.626   0.581  15.527  0.0845 -0.2080 -0.4291
29311W        W45495  18.313  14.263   4.508  0.0548  0.2110 -0.0355
29312W        W45496   5.587  14.919  11.572  0.4220  0.0386  0.1336
29313W        W45497   8.649   8.533   5.139 -0.2160  0.1717  0.1450
29314W        W45498  14.038  17.686  14.908 -0.3256  0.3514  0.1523
29315W        W45499  16.042   7.254  14.602 -0.0712  0.2165  0.3249
29316W        W45500  15.001  12.444   5.898  0.2477  0.0818 -0.0091
29317W        W45501  16.009   9.273   4.146  0.0357  0.1640  0.1388
29318W        W45502   8.541   7.395   3.366  0.1658 -0.1763  0.0018
29319W        W45503   4.653   9.026  12.924  0.0822  0.0522  0.1282
29320W        W45504   6.129   9.440  13.356  0.3271 -0.2772 -0.0241
29321W        W45505   4.083  10.265   1.452  0.1602 -0.2256  0.4431
29322W        W45506   1.482  11.901   0.141  0.1845  0.0707  0.2269
29323W        W45507   4.381  11.157  12.729 -0.1350 -0.0398  0.1943
29324W        W45508   8.563   4.741   2.753 -0.1328  0.0049 -0.1662
29325W        W45509  10.886   9.158   2.931 -0.1537  0.0918  0.1360
29326W        W45510  12.179  12.674   0.935 -0.0432 -0.1224  0.0634
29327W        W45511  15.839   7.187  12.506 -0.0792  0.0718 -0.1956
29328W        W45512   4.690   9.988  11.833 -0.0805 -0.1088 -0.0163
29329W        W45513  13.955   9.383   3.707  0.1766  0.0742  0.0644
29330W        W45514   1.391  14.635  15.216 -0.2207 -0.2105 -0.1710
29331W        W45515  17.643  14.857   0.786 -0.2849  0.2629  0.0905
29332W        W45516  16.794  14.582   0.744 -0.1261  0.0745 -0.0236
29333W        W45517   6.378  11.497   4.013 -0.0636  0.2071  0.2317
29334W        W45518   8.416   4.093   0.741 -0.2451 -0.1386  0.0373
29335W        W45519   2.822  12.668   0.629 -0.0904  0.0292 -0.1286
29336W        W45520   0.707  12.327   1.490 -0.3379  0.2362  0.2321
29337W        W45521  10.466  12.630   2.585  0.1958  0.2099 -0.0987
29338W        W45522   7.218  14.771   1.624  0.0878  0.4323 -0.4150
29339W        W45523  18.032  11.259  13.555  0.1132 -0.0828  0.2092
29340W        W45524  16.144   3.730  15.673 -0.2912 -0.0565 -0.1123
29341W        W45525  12.465   0.843   0.222  0.1601  0.0732 -0.0006
29342W        W45526  11.400   9.686   3.439 -0.0803 -0.0834  0.1592
29343W        W45527  14.307   6.755   2.940 -0.3862 -0.2433 -0.0940
29344W        W45528  10.197   5.891  15.079 -0.1056  0.0806  0.1307
29345W        W45529   4.879   5.369   3.590 -0.1031  0.0193 -0.2496
29346W        W45530  13.403  13.554  11.329  0.0083  0.1197  0.0327
29347W        W45531   7.874   0.762   5.318  0.1581  0.3559  0.1397
29348W        W45532   0.426   1.251   3.255 -0.1083  0.0924  0.2270
29349W        W45533  12.390  18.410   0.219  0.2757 -0.3078 -0.3610
29350W        W45534   9.008   7.536   0.325  0.0784  0.0124  0.1439
29351W        W45535  14.275  13.017  15.895  0.2300  0.0334 -0.1037
29352W        W45536  18.272  12.235  14.916  0.0911  0.5190 -0.3598
29353W        W45537   5.634  12.256  14.954 -0.1620 -0.0501 -0.2989
29354W        W45538  10.249  13.039   5.769  0.0483  0.0904 -0.0360
29355W        W45539   7.295  17.332  14.228 -0.0228  0.0225  0.2211
29356W        W45540   6.474   8.730   2.724  0.1822 -0.4403  0.1105
29357W        W45541  12.792  17.170  11.594 -0.2062  0.1629  0.2586
29358W        W45542   1.330  16.751   2.364 -0.2279 -0.0072 -0.1898
29359W        W45543  15.654   4.096  14.580  0.0572 -0.1549  0.0826
29360W        W45544   3.423   3.663   5.224 -0.2530  0.0254  0.2338
29361W        W45545  10.787  16.160  13.950  0.1707  0.0092 -0.3604
29362W        W45546   0.506  16.459  13.640 -0.1806 -0.0438 -0.0010
29363W        W45547  18.334   3.535   4.412  0.2580 -0.0056  0.0685
29364W        W45548   9.275   2.096  14.665  0.1542 -0.0828  0.0513
29365W        W45549   9.652  12.140   4.205 -0.0500 -0.4116  0.0210
29366W        W45550   5.036   0.399  15.840  0.1713  0.0588  0.3899
29367W        W45551  16.750   9.056  12.412  0.1083  0.0814  0.0701
29368W        W45552   9.402  16.026  15.501  0.1461 -0.2056  0.2160
29369W        W45553  14.996   6.746   1.897  0.4468 -0.0030 -0.0920
29370W        W45554   4.557  17.040   3.010 -0.1627 -0.1486 -0.0608
29371W        W45555   1.059   5.581  11.661  0.1569 -0.2120  0.1540
29372W        W45556   2.835  14.502   3.351  0.0093 -0.1753  0.0040
29373W        W45557  10.513   9.723   0.733 -0.2362 -0.0110 -0.1059
29374W        W45558  13.609  13.119  14.661 -0.1229 -0.2817  0.0904
29375W        W45559   6.043  12.426   5.033 -0.0453  0.2212 -0.0994
29376W        W45560   3.798   8.994   2.422 -0.1131  0.1078  0.2043
29377W        W45561   6.570   9.850   5.498 -0.3360  0.5037  0.3756
29378W        W45562  10.341  14.035  15.578 -0.0312 -0.0469  0.0433
29379W        W45563   0.554   1.729   3.338  0.2805 -0.2477 -0.0433
29380W        W45564  15.712  18.025   4.978 -0.0126 -0.3233 -0.4409
29381W        W45565   1.065   0.273  15.787 -0.0331 -0.1553  0.1487
29382W        W45566  14.500   4.881   5.003  0.1712 -0.1689  0.0274
29383W        W45567  16.100   4.781  14.906  0.1172 -0.0036  0.0839
29384W        W45568   1.613  18.500  13.628 -0.1072 -0.0767  0.1725
29385W        W45569   9.276   3.105   5.896  0.0756  0.0451 -0.3636
29386W        W45570  15.744  15.536  15.564 -0.0087  0.2879  0.4494
29387W        W45571  10.428  14.141   1.285  0.0346  0.0893  0.1078
29388W        W45572   6.421   5.426  14.404 -0.2362 -0.1353  0.0029
29389W        W45573  17.826  12.021   0.199  0.0075 -0.0899  0.1804
29390W        W45574  11.158  14.024  16.084  0.1900  0.2490  0.3368
29391W        W45575  10.006   7.863   0.267 -0.2032 -0.1375 -0.0844
29392W        W45576  11.146  11.105   5.681 -0.0179 -0.5035 -0.1135
29393W        W45577  12.264  15.675   1.032 -0.1073 -0.0289  0.1633
29394W        W45578  17.285  15.446  13.843 -0.1616  0.2136 -0.1916
29395W        W45579  17.730   1.403  12.240  0.1054  0.0844 -0.0555
29396W        W45580   4.798  10.860   1.483  0.2287  0.1174  0.0339
29397W        W45581  15.594   4.680   2.414  0.0326 -0.0873 -0.1020
29398W        W45582   6.286  10.433  13.035 -0.2769 -0.1362 -0.5294
29399W        W45583  11.913  13.119   2.471  0.1902  0.1439  0.1689
29400W        W45584  12.879  10.252  13.345  0.4246 -0.0823  0.4135
29401W        W45585  17.767   3.812   4.227  0.4624  0.0845  0.2924
29402W        W45586  15.286   1.166   3.678  0.0676 -0.0128  0.0720
29403W        W45587  17.031  17.877   3.464 -0.0089 -0.0185 -0.0212
29404W        W45588   1.319   4.004  15.664  0.0532 -0.2577 -0.0199
29405W        W45589  17.054   8.002  11.671  0.2913  0.1110  0.0229
29406W        W45590   9.578  13.368   0.237  0.1381  0.0505  0.1837
29407W        W45591   2.370   5.492  12.154 -0.0604  0.0672 -0.0163
29408W        W45592  17.982   7.696  15.561 -0.1961 -0.1382  0.2432
29409W        W45593  17.372   8.457  12.540 -0.0749 -0.1133 -0.0746
29410W        W45594   5.087  10.663   2.509 -0.1958 -0.3746 -0.7289
29411W        W45595   8.595  12.191  15.598 -0.0770  0.1425  0.0655
29412W        W45596   2.715  18.389   0.792 -0.0691 -0.1638  0.0047
29413W        W45597   0.839  13.747   2.521 -0.0669 -0.1543  0.0627
29414W        W45598   6.699  16.379  11.093 -0.0321  0.1590  0.1600
29415W        W45599   3.268  11.794   3.437  0.0236 -0.1405 -0.4135
29416W        W45600   0.887   2.803  15.059 -0.1922  0.1289  0.1185
29417W        W45601   5.840   3.602   2.568 -0.0442  0.0820 -0.0881
29418W        W45602   9.522  16.177  14.604  0.2850  0.2874 -0.1407
29419W        W45603  12.714   6.009  15.421  0.1567  0.0570  0.1093
29420W        W45604  17.820  14.763   6.090  0.0743 -0.0111  0.1730
29421W        W45605  17.049  12.158  11.759  0.0194  0.0253 -0.1442
29422W        W45606  16.070  12.451   4.060  0.2213  0.0652  0.0379
29423W        W45607  16.532  15.567   3.507 -0.0593  0.0831  0.0378
29424W        W45608  10.293  14.027   2.187  0.3759  0.0326 -0.0724
29425W        W45609  14.016  14.191  15.417 -0.5890  0.1740 -0.2165
29426W        W45610  16.042  13.041  14.504  0.0819  0.0444  0.2410
29427W        W45611   7.396  10.865  16.035 -0.3905 -0.0447  0.1246
29428W        W45612   3.189  12.348   4.822 -0.2191  0.1427 -0.3451
29429W        W45613  16.105   8.906   3.565 -0.1837 -0.1948 -0.0135
29430W        W45614  16.191   4.524   2.301  0.0251 -0.0691 -0.3984
29431W        W45615   0.325   3.999   4.099  0.4885 -0.1819 -0.0555
29432W        W45616   2.526   3.923  12.929 -0.1716 -0.1101  0.0074
29433W        W45617   1.108   6.798   4.628 -0.0046  0.0666 -0.3055
29434W        W45618   6.123   1.557   1.768  0.0357  0.1871 -0.1522
29435W        W45619  12.171   9.985  13.997 -0.0050 -0.3437 -0.0364
29436W        W45620  11.672  15.704   1.072  0.0210  0.1215  0.1005
29437W        W45621  10.193   1.796  15.452 -0.1329  0.1122  0.0045
29438W        W45622   0.408   1.427   0.640  0.0561 -0.2584 -0.0126
29439W        W45623  17.229   0.109   1.070 -0.1859 -0.0263 -0.0329
29440W        W45624   3.701   1.159  15.247 -0.0310  0.2328 -0.2979
29441W        W45625  12.188  10.298  14.824 -0.0709  0.0856 -0.0731
29442W        W45626  11.092  15.712   0.070  0.2539  0.0115 -0.1263
29443W        W45627  16.718  16.595  13.238  0.1146 -0.1808 -0.2809
29444W        W45628   3.258   8.932  11.537 -0.0236  0.0362 -0.1626
29445W        W45629   5.419  13.776   4.984 -0.0429 -0.0747  0.1951
29446W        W45630  18.223  14.296  12.892 -0.0746 -0.6027  0.2832
29447W        W45631  14.930   0.916   0.795  0.1809 -0.1811 -0.2812
29448W        W45632  15.711  10.988   4.294 -0.0579 -0.1343  0.0345
29449W        W45633  13.271  12.122   1.610 -0.0560 -0.3042 -0.1867
29450W        W45634   2.835   0.266   4.679 -0.2159 -0.0374 -0.1273
29451W        W45635   4.786  14.136  15.105 -0.3774  0.0641 -0.0913
29452W        W45636   8.975   2.218   5.490  0.0104 -0.1082  0.2465
29453W        W45637   9.163   7.862   2.038  0.0638  0.2557  0.4068
29454W        W45638  13.622  17.983   4.011  0.0170  0.1018  0.0145
29455W        W45639   6.615  11.409  13.903 -0.1603  0.1849  0.3660
29456W        W45640   3.023   4.803  15.122 -0.0803 -0.1705 -0.1592
29457W        W45641   6.811   6.846  15.219  0.0132  0.1103  0.0281
29458W        W45642   4.019  15.051   2.943  0.3719 -0.0812  0.2790
29459W        W45643   6.546   1.866  12.823 -0.3115  0.1627 -0.1516
29460W        W45644   5.025  17.951   2.336  0.1280 -0.3270  0.0887
29461W        W45645   8.035   9.696   4.620  0.0340 -0.3121 -0.1098
29462W        W45646  17.335  10.597   0.249 -0.0113  0.0379  0.1908
29463W        W45647   8.682  16.905  11.978  0.1928  0.0958 -0.4078
29464W        W45648   5.704   9.470   0.106 -0.2337  0.1622 -0.3100
29465W        W45649  14.947  11.060   9.957  0.0024  0.0346  0.1530
29466W        W45650   7.590   2.761  13.260 -0.0001 -0.0076 -0.1388
29467W        W45651   7.753  16.032  11.966  0.1140 -0.1508  0.2212
29468W        W45652   9.154  13.183   2.450 -0.0057  0.2329 -0.0927
29469W        W45653   0.488  15.014   0.897  0.2541  0.1348 -0.1030
29470W        W45654  14.374   8.357  14.078  0.0350  0.0680  0.3437
29471W        W45655   2.994  16.917   1.237 -0.0725  0.1866  0.0454
29472W        W45656  13.430   5.721   5.303 -0.2755 -0.0623  0.0117
29473W        W45657  15.480   7.461  11.914  0.0710  0.1224 -0.1298
29474W        W45658  18.467  14.733   4.658 -0.0414 -0.0409  0.1804
29475W        W45659  14.216  17.861  12.343  0.2766  0.0648  0.3283
29476W        W45660   7.652  12.764  11.795  0.1572  0.0513 -0.1057
29477W        W45661  15.174  15.853   0.718 -0.2907 -0.3054 -0.1184
29478W        W45662  10.749   0.261  14.730  0.1959 -0.1430 -0.1831
29479W        W45663  13.979  18.297   3.878 -0.0597  0.0020  0.0489
29480W        W45664   9.996   8.292  14.354  0.1800  0.6010  0.2216
29481W        W45665  15.825  17.024   3.979 -0.1635 -0.0611  0.3750
29482W        W45666   0.390  11.116   1.187 -0.1303 -0.0505  0.2363
29483W        W45667   1.028   7.965  12.336 -0.3273  0.1100 -0.1920
29484W        W45668   6.297   2.232  12.601  0.0066 -0.0055  0.0149
29485W        W45669  11.499  11.949   1.966 -0.1911 -0.0397 -0.1670
29486W        W45670   9.112   3.678  10.875  0.0767  0.2005  0.0010
29487W        W45671   9.343   0.562   4.016 -0.2073 -0.1420  0.0325
29488W        W45672  15.491  16.648  12.360  0.1333  0.2606  0.0493
29489W        W45673   5.014   2.972   2.836  0.0066 -0.0392  0.1301
29490W        W45674   6.323  15.112  12.124 -0.0048  0.2135 -0.0951
29491W        W45675  14.268  10.749  12.939  0.1039 -0.3283  0.2493
29492W        W45676  12.757  15.201   3.424  0.2404 -0.0381  0.0823
29493W        W45677  13.973   9.887   0.101 -0.0836  0.2182 -0.0563
29494W        W45678  12.271  11.657   0.379 -0.0231 -0.3178  0.3084
29495W        W45679  17.228   5.085  15.634  0.1150 -0.1708 -0.0024
29496W        W45680   4.564   8.527  13.560  0.0242  0.2479  0.0952
29497W        W45681   5.525   8.925   5.301 -0.1141  0.0159  0.0594
29498W        W45682   4.264   2.037  16.062  0.2497  0.4853 -0.4057
29499W        W45683   2.188   7.339  15.165  0.2982  0.4896  0.2619
29500W        W45684   2.457   1.442  11.546  0.0726 -0.0626  0.5266
29501W        W45685   7.609   8.197  12.220  0.2341 -0.3924  0.2488
29502W        W45686  17.999  13.262  12.394  0.1333  0.0355 -0.2007
29503W        W45687  14.125   6.027  14.962 -0.0436  0.1405 -0.2194
29504W        W45688  10.986  14.408  13.250 -0.1648  0.1538  0.0159
29505W        W45689   2.417  10.059   1.019 -0.0041  0.3570 -0.0882
29506W        W45690   9.952  17.583  15.947 -0.0884  0.1080 -0.0429
29507W        W45691  10.457   4.053   4.035 -0.0241  0.0443  0.1585
29508W        W45692  17.100  13.769   2.869  0.3838 -0.0267 -0.1747
29509W        W45693  14.060  12.768  12.350 -0.0105 -0.4756  0.1108
29510W        W45694   5.580   1.244  12.240  0.1749  0.2302  0.0608
29511W        W45695  15.830   5.884  13.523 -0.2162  0.0763 -0.0282
29512W        W45696  13.809   0.252  15.096 -0.1163 -0.0369  0.1594
29513W        W45697   4.020   5.650   4.635 -0.1934 -0.2323  0.3079
29514W        W45698  13.087   7.243   1.753 -0.0776 -0.0311  0.1559
29515W        W45699  13.417  12.576   3.515  0.0491 -0.2355  0.2525
29516W        W45700  18.504  12.684   0.823 -0.1308 -0.0903  0.2170
29517W        W45701  10.285   0.331   1.588  0.1384 -0.2045  0.0857
29518W        W45702   5.653  12.201   3.238  0.0686 -0.0820  0.0422
29519W        W45703   8.578  10.616  11.288  0.1206 -0.0400  0.5278
29520W        W45704  13.825   3.204   2.641  0.1088 -0.0579 -0.2110
29521W        W45705   6.302   0.609  12.576 -0.0109 -0.1051  0.3221
29522W        W45706   0.107   3.029   3.957 -0.1254 -0.1845  0.0636
29523W        W45707   1.636  13.657   2.136 -0.0726  0.1930  0.1064
29524W        W45708   8.180   8.362   4.195 -0.0611 -0.2263  0.2137
29525W        W45709  13.156  12.552  11.970 -0.1660 -0.1718  0.0352
29526W        W45710   3.608  13.139   3.851 -0.1946  0.1401 -0.4360
29527W        W45711   5.094  15.581  11.005 -0.2034 -0.0324  0.1713
29528W        W45712   2.559   0.250  12.973 -0.1028 -0.1055 -0.1473
29529W        W45713  13.923  17.160  12.241 -0.1070 -0.0669 -0.1404
29530W        W45714   3.950  12.917  13.438 -0.0090  0.2973 -0.3474
29531W        W45715   5.474   2.481  10.257 -0.0919 -0.0205 -0.3886
29532W        W45716  13.521  13.352   0.718 -0.0414 -0.0272  0.0975
29533W        W45717   2.934   5.620   3.705 -0.0814 -0.3708 -0.0169
29534W        W45718  14.480   5.936   0.920  0.1354 -0.1179 -0.1152
29535W        W45719  11.630   4.191   5.176  0.0042 -0.2713 -0.0276
29536W        W45720   2.936   8.512   1.029  0.3336 -0.0204 -0.0726
29537W        W45721   6.881  16.031   2.217 -0.1662  0.0262  0.2078
29538W        W45722  16.298   2.012  14.220  0.1204  0.1110  0.0150
29539W        W45723   7.121  16.041  12.681 -0.2197 -0.4480 -0.0852
29540W        W45724  14.185  16.208   0.095  0.0293 -0.1205 -0.2620
29541W        W45725   1.626  12.020   3.944  0.2583 -0.0634 -0.1607
29542W        W45726   4.647  16.748  15.074 -0.2053  0.1507  0.0138
29543W        W45727  13.468  14.995  14.498 -0.2626  0.2211  0.2874
29544W        W45728  18.374   7.142   2.670 -0.2764 -0.1521 -0.1659
29545W        W45729  11.945  12.028  12.077 -0.0292 -0.0799 -0.3277
29546W        W45730   4.627   1.091  10.934  0.1156  0.0378 -0.2648
29547W        W45731  14.313  14.713   2.052 -0.0851 -0.4720  0.4071
29548W        W45732  15.733   9.364  15.594  0.1580  0.0037  0.2753
29549W        W45733   1.695   1.501   4.575  0.0950 -0.2556 -0.1381
29550W        W45734  10.228   1.087  14.010 -0.0068  0.1156  0.1010
29551W        W45735  15.215   6.201   0.289  0.0545 -0.1221 -0.2699
29552W        W45736   4.809   0.718  12.751  0.0082 -0.0465  0.0376
29553W        W45737  16.498  16.252  13.677  0.0522 -0.4340  0.1986
29554W        W45738  13.589  18.485  15.997  0.0527 -0.0890  0.0270
29555W        W45739  18.170   5.012   2.095 -0.0523  0.2479 -0.0298
29556W        W45740  12.302   6.548   5.389  0.0828  0.0889 -0.1144
29557W        W45741   7.701   3.480  15.552  0.0508 -0.1680  0.1310
29558W        W45742  10.590  12.101  11.381  0.1623 -0.0577 -0.3730
29559W        W45743   8.387   6.613   2.558  0.1043  0.2235  0.0720
29560W        W45744  13.813   2.037  13.293  0.2744 -0.1180  0.0495
29561W        W45745  13.313   6.340  14.329 -0.0158  0.0466  0.2441
29562W        W45746  11.838  10.779  12.039 -0.2043 -0.1381  0.0143
29563W        W45747  13.832   3.315   3.999  0.1414  0.0026  0.1316
29564W        W45748   6.096  16.367  15.139 -0.0506 -0.2115  0.3988
29565W        W45749  15.728   2.028   4.666  0.1823 -0.2658  0.0789
29566W        W45750   3.773   1.700  11.189 -0.3921 -0.1813 -0.2656
29567W        W45751   9.897   0.859  13.249  0.0715  0.3066 -0.1069
29568W        W45752  17.976   9.714  14.493  0.1389  0.0334 -0.0000
29569W        W45753   7.072   1.810   1.319 -0.0521 -0.0908 -0.0258
29570W        W45754   0.730   7.634  11.432 -0.1274  0.3196  0.3250
29571W        W45755   9.868   7.932   1.561  0.0972  0.0116  0.1695
29572W        W45756   0.568   9.946  15.960  0.0538 -0.1118  0.0500
29573W        W45757   4.505  18.171  14.615 -0.0859 -0.1001  0.0133
29574W        W45758   0.541   1.947   0.845 -0.1426 -0.0924 -0.0899
29575W        W45759   3.171  15.045   3.142 -0.0056  0.0931  0.1956
29576W        W45760  17.221  14.927   3.361  0.1242 -0.0179  0.0938
29577W        W45761  14.531  18.113   2.155 -0.0213  0.0903  0.1328
29578W        W45762   5.204   7.273   2.965 -0.0028 -0.0628  0.0582
29579W        W45763   2.048  18.190   3.681 -0.0679 -0.0417 -0.1272
29580W        W45764  17.047   4.583   0.228 -0.0366  0.1275  0.0508
29581W        W45765  17.305   1.651   1.494  0.0845 -0.1614  0.1228
29582W        W45766  13.076   8.441  13.696  0.1452  0.0840 -0.1021
29583W        W45767   6.854  16.257   4.690  0.1026 -0.0720 -0.1183
29584W        W45768   1.946  10.769   3.484 -0.1668 -0.1408 -0.2130
29585W        W45769  12.664   2.041   1.810  0.0972 -0.1051 -0.0277
29586W        W45770  17.321   3.879   2.480 -0.0273 -0.2162  0.1156
29587W        W45771  17.349  14.208   3.011  0.1343 -0.1523 -0.2754
29588W        W45772   8.737  17.987   1.312  0.0253  0.3749  0.0793
29589W        W45773  15.901  15.914  14.761  0.2186 -0.2935 -0.0997
29590W        W45774   4.368  16.229   2.733  0.1650 -0.0029  0.0058
29591W        W45775   3.975   7.737   3.644  0.1162 -0.0618  0.0808
29592W        W45776  10.762  16.997   4.885  0.0011  0.0659  0.0666
29593W        W45777   8.816   7.876   5.583  0.1832  0.2016  0.4224
29594W        W45778  16.961  12.011   2.055  0.2615 -0.1592  0.2257
29595W        W45779  16.525   2.746   2.387 -0.2296 -0.4387 -0.0403
29596W        W45780  10.270  15.330   2.433 -0.0087 -0.0698 -0.0300
29597W        W45781   1.731   1.674   5.475  0.1720  0.1640  0.2512
29598W        W45782  13.143   2.480  11.239  0.2403 -0.0981  0.1340
29599W        W45783  12.038   9.062   5.151  0.1439 -0.1660 -0.1101
29600W        W45784  10.043   5.478   2.165 -0.0235  0.2220 -0.3238
29601W        W45785   4.073  16.520   4.498  0.0033  0.3745 -0.1281
29602W        W45786   6.054   8.116  15.448 -0.1586  0.0237  0.0047
29603W        W45787  12.107  14.047   2.201 -0.1200 -0.1471 -0.0289
29604W        W45788  13.388  11.085  14.555 -0.0138 -0.5733 -0.6008
29605W        W45789  17.653   3.396  12.840 -0.2290 -0.0400 -0.5792
29606W        W45790  12.104   0.094  11.851  0.0873  0.1507 -0.0140
29607W        W45791  16.638   0.248   3.527 -0.1486  0.0833  0.0673
29608W        W45792  14.785   7.716   4.355 -0.0247 -0.2040  0.3634
29609W        W45793  12.876  13.050  15.375  0.1677  0.0912  0.0754
29610W        W45794  13.734  16.719   3.169 -0.0160 -0.1034  0.0657
29611W        W45795   1.499  15.438   4.448  0.1240  0.0440  0.2934
29612W        W45796  17.589  15.233   1.120  0.0745  0.2160  0.0670
29613W        W45797  14.745   2.926  14.658  0.0379 -0.0439 -0.6456
29614W        W45798  17.373   6.527  11.334 -0.1415 -0.0261  0.2020
29615W        W45799   1.960  16.087  15.856  0.1325 -0.0897 -0.1249
29616W        W45800   7.928   9.335  15.521 -0.0461  0.3009  0.0909
29617W        W45801   8.036  13.234   4.868 -0.0853  0.2671 -0.1005
29618W        W45802   6.192  14.228  12.539 -0.1341 -0.3290 -0.4998
29619W        W45803   6.209  10.297   3.934  0.0151  0.1258  0.0423
29620W        W45804  12.333   9.641   4.051  0.1748 -0.2506 -0.1135
29621W        W45805   9.519   0.110  12.643  0.1384  0.0467 -0.3013
29622W        W45806  15.396   3.778   3.875  0.3240  0.0927  0.0070
29623W        W45807   5.142  14.251  13.043 -0.1194 -0.2462 -0.0126
29624W        W45808   3.553   9.184   0.392  0.0891 -0.0213  0.3875
29625W        W45809   6.700  13.053   2.345  0.0489 -0.0959  0.2936
29626W        W45810  10.825  10.954  13.499 -0.3241 -0.5613 -0.0378
29627W        W45811   8.100   1.142  13.174 -0.0563 -0.2420 -0.2016
29628W        W45812  16.176  15.338  11.613  0.0577 -0.2019 -0.3830
29629W        W45813   8.915  14.318   0.284 -0.4201 -0.2979  0.2088
29630W        W45814   1.024   7.261   0.447  0.2923  0.2772  0.0577
29631W        W45815   8.351   4.291   0.223 -0.3351  0.3461  0.0312
29632W        W45816  12.123  15.518  11.607  0.1454 -0.0277  0.1068
29633W        W45817   6.862  17.575   2.655 -0.1938  0.0954  0.2244
29634W        W45818   1.437   0.611  15.577 -0.0995  0.0099  0.1321
29635W        W45819   3.558  11.812   4.249  0.1906 -0.0662  0.2061
29636W        W45820   2.404   4.961  15.012  0.1770 -0.2810  0.1191
29637W        W45821   1.004   2.430   2.473  0.0702  0.0986  0.1363
29638W        W45822   5.455  16.015  13.193  0.2708  0.0016 -0.5077
29639W        W45823   4.792   5.861  15.071 -0.5216  0.4322 -0.0717
29640W        W45824   6.556  15.136  15.436 -0.0014  0.0082 -0.1229
29641W        W45825   8.464  16.073   3.553  0.0119  0.1170 -0.3442
29642W        W45826   7.813   0.403   3.429  0.2308 -0.2463  0.1392
29643W        W45827   9.834   8.926   4.347 -0.0713  0.0537 -0.1842
29644W        W45828   4.666   7.963   1.338 -0.3747 -0.0805 -0.2026
29645W        W45829  15.267   1.551   4.068  0.2402 -0.0698 -0.1275
29646W        W45830   1.866  14.774   4.567  0.2306 -0.1717 -0.0240
29647W        W45831  16.554  12.283   2.037 -0.0933  0.3403  0.6557
29648W        W45832   4.881  17.714   5.074  0.3856  0.0894 -0.3649
29649W        W45833   5.373  10.620   4.797  0.0492 -0.0353  0.6412
29650W        W45834  11.760   9.144   4.146 -0.1843 -0.1535  0.1857
29651W        W45835   2.648  10.789   1.768  0.2603 -0.1373 -0.0514
29652W        W45836  14.547   8.746  13.627  0.1888 -0.0764  0.1470
29653W        W45837  15.575   2.972  14.059  0.4084  0.0632 -0.0127
29654W        W45838   9.930  13.389   2.830  0.0623  0.4696 -0.1188
29655W        W45839  17.996   9.140   3.387  0.2400  0.1674  0.0415
29656W        W45840   8.693  18.502   2.501 -0.0493 -0.0357  0.0427
29657W        W45841  17.685  15.134   2.541 -0.0102  0.2596 -0.0215
29658W        W45842   2.682  13.512  15.002 -0.4021 -0.2652 -0.0876
29659W        W45843  17.809   0.349  15.315  0.0750 -0.3256 -0.0698
29660W        W45844  16.139   0.106  10.840 -0.1074 -0.2260 -0.1305
29661W        W45845  18.157   0.044   3.551  0.1231  0.0445 -0.3549
29662W        W45846  16.486   6.536   0.648 -0.3057 -0.0995 -0.2821
29663W        W45847   8.810   4.983   3.591  0.0151  0.3718 -0.1346
29664W        W45848  17.510   4.097   0.553  0.2159 -0.2533  0.1553
29665W        W45849  13.388  13.458   1.960 -0.3850 -0.0067  0.0232
29666W        W45850  15.831   2.238   4.209  0.0125 -0.0295 -0.1145
29667W        W45851  18.478  10.255   2.168 -0.2160  0.0397  0.1882
29668W        W45852  14.163   7.972  11.584 -0.3811  0.0460  0.1208
29669W        W45853   8.027   1.109  14.538 -0.0482  0.0433 -0.0667
29670W        W45854   8.381   4.997  14.194  0.2211  0.0150  0.1748
29671W        W45855   6.603   6.097  14.248  0.1908  0.4122 -0.0054
29672W        W45856   9.527   2.363   4.229  0.1532 -0.1583  0.2234
29673W        W45857   0.912   1.582  11.500  0.0013  0.1401  0.3600
29674W        W45858   7.831   6.441   1.280 -0.1288  0.0229  0.2074
29675W        W45859  10.416  11.542   4.094 -0.2274  0.2062  0.1135
29676W        W45860   6.845   4.506   3.559 -0.1655 -0.0566 -0.1336
29677W        W45861   9.798   7.329   2.674 -0.0754 -0.2396 -0.1326
29678W        W45862  13.617  11.518   4.822 -0.1894 -0.0214 -0.1679
29679W        W45863   7.451  17.429  12.667  0.1032  0.0890  0.0713
29680W        W45864   3.681  10.803   5.493  0.1145 -0.0349  0.1011
29681W        W45865   2.727   3.664   3.436  0.2222 -0.0001 -0.1329
29682W        W45866  16.013  10.944  12.652 -0.4800 -0.1891 -0.1542
29683W        W45867   2.778  11.832  15.768  0.1765 -0.0652  0.0663
29684W        W45868  16.519  10.824   0.912  0.3613  0.0185  0.1861
29685W        W45869   1.140  17.406  13.557  0.2894 -0.0206 -0.2516
29686W        W45870  17.460  12.593  13.531 -0.1473  0.4124 -0.0592
29687W        W45871  14.111   9.656  13.824 -0.0666 -0.3717 -0.1851
29688W        W45872  14.054   9.419   0.306 -0.1280  0.0253  0.0886
29689W        W45873   7.252   8.886  14.565  0.0041 -0.3421 -0.1374
29690W        W45874   9.829  14.496  14.225  0.4143  0.0473 -0.0321
29691W        W45875   9.933  12.553  14.514  0.0473 -0.0367 -0.0633
29692W        W45876   8.838   8.383   3.333  0.3966  0.1755  0.4006
29693W        W45877   0.208   6.672  12.009 -0.0693  0.1169 -0.1180
29694W        W45878  10.356   8.920   2.053 -0.1053  0.0392 -0.0319
29695W        W45879   7.097   1.227  14.341 -0.0089  0.0094 -0.0597
29696W        W45880   7.736   5.552   2.453  0.0765 -0.0019 -0.1057
29697W        W45881  15.248  15.427   4.002 -0.2604  0.1546 -0.0638
29698W        W45882   2.701  14.623   1.473 -0.0933 -0.0835  0.1026
29699W        W45883  18.367   4.744  14.309 -0.1415 -0.1779  0.1900
29700W        W45884   2.237   1.483   4.280  0.0162 -0.2256 -0.0402
29701W        W45885  17.456   9.190  13.116 -0.0945  0.0760 -0.2554
29702W        W45886  11.158  13.097  11.858  0.0227  0.0706 -0.2367
29703W        W45887   7.073  12.968   5.452 -0.1956 -0.0393 -0.1675
29704W        W45888  17.871   7.852   0.791 -0.0858 -0.1423  0.0260
29705W        W45889  10.138   2.493   5.216  0.0799  0.1918 -0.1462
29706W        W45890   3.501   6.160   1.104 -0.0890  0.0045 -0.1073
29707W        W45891  16.908   1.590   0.895 -0.1651  0.2995  0.0783
29708W        W45892   7.496   2.913   0.440  0.1179 -0.2477 -0.0676
29709W        W45893  13.549  11.578   5.312  0.0871 -0.1416 -0.0533
29710W        W45894  15.492   1.165  13.019 -0.0950 -0.1068 -0.4163
29711W        W45895   8.583  18.290   0.137  0.0803 -0.2835 -0.1309
29712W        W45896  11.389  17.843  15.495 -0.1480  0.1571  0.0600
29713W        W45897   0.978   9.026  12.901 -0.0594  0.0268 -0.0632
29714W        W45898   9.561   5.530  11.327 -0.4830 -0.2023 -0.0916
29715W        W45899   6.756  14.756   3.041 -0.1769 -0.1386 -0.4285
29716W        W45900   0.611   8.035  13.097 -0.0373 -0.0787 -0.0011
29717W        W45901  12.806  14.876   0.007 -0.1557  0.0096 -0.1611
29718W        W45902  11.406  17.859   3.211 -0.2565  0.1185 -0.3899
29719W        W45903  10.378  17.345   4.900  0.3611 -0.0615 -0.2243
29720W        W45904   9.515   4.615  12.278 -0.1135 -0.3373  0.1210
29721W        W45905  17.157   9.206   5.609 -0.0447  0.2315  0.0177
29722W        W45906   2.563  16.157  12.546 -0.0765 -0.1074  0.1009
29723W        W45907   2.583   6.713  11.314 -0.0992  0.1468  0.1540
29724W        W45908   8.934  17.950   2.927  0.1988 -0.1247  0.0220
29725W        W45909  16.230   6.419  11.491  0.2897 -0.3439 -0.0353
29726W        W45910  14.839   6.026   5.772  0.0107  0.3678  0.2697
29727W        W45911  11.482   3.411  12.232  0.0302 -0.1349 -0.1061
29728W        W45912  18.072  15.406   2.227  0.3406 -0.2003  0.0792
29729W        W45913   8.064   4.829   4.871 -0.0189 -0.1765 -0.0256
29730W        W45914   9.330  14.662   4.947  0.1720  0.1197 -0.1863
29731W        W45915  14.675   5.047  14.899  0.2451  0.2198  0.4087
29732W        W45916   6.836   3.354   2.862 -0.3085  0.0397  0.2108
29733W        W45917  15.781  14.192   2.316  0.1418 -0.1671 -0.1443
29734W        W45918  12.552  14.726  14.142 -0.2938  0.1278  0.0518
29735W        W45919  13.264  13.607   2.385 -0.0616 -0.0341 -0.1248
29736W        W45920  17.068  10.922  13.521 -0.1580 -0.0954  0.0680
29737W        W45921   8.131   0.363  14.148  0.0071 -0.2685  0.1259
29738W        W45922  15.463  18.052  11.261 -0.0493 -0.2908  0.3111
29739W        W45923   7.103  10.963  15.158 -0.0019  0.2321 -0.1855
29740W        W45924   6.278   0.649  11.906 -0.1366 -0.0970  0.1307
29741W        W45925   9.319  16.941  12.395 -0.0083 -0.1825  0.2266
29742W        W45926  15.040  17.935   2.222  0.1615 -0.0591  0.0419
29743W        W45927   2.057   9.505  11.282 -0.0149 -0.2040 -0.1773
29744W        W45928   4.037   5.300  13.364  0.1533 -0.0946  0.0891
29745W        W45929  12.830   4.614  15.567 -0.0218 -0.0932  0.3728
29746W        W45930  10.811  15.447   3.787 -0.0836  0.0645 -0.3277
29747W        W45931   3.981   4.832   0.118  0.4239 -0.1686 -0.0583
29748W        W45932   3.188   1.728   2.355  0.1060 -0.2144  0.0800
29749W        W45933   3.939  13.369  10.632 -0.0961 -0.0415  0.4428
29750W        W45934  14.699  12.093  14.055  0.2825 -0.0837 -0.2573
29751W        W45935  14.104  10.308   1.191 -0.1694  0.0399  0.2119
29752W        W45936   7.879   6.835   2.605  0.2151 -0.1258  0.1321
29753W        W45937   2.930  10.383  15.128 -0.3366  0.0681  0.0864
29754W        W45938  12.157   0.050   5.184  0.0559  0.1320 -0.1008
29755W        W45939   2.377  17.938   4.587  0.0555 -0.0039 -0.1026
29756W        W45940   1.797   1.390  14.862  0.1338 -0.1767  0.1566
29757W        W45941  14.014  13.381   0.487  0.3980  0.0360 -0.4478
29758W        W45942  16.199   4.237  15.688  0.0027  0.2085  0.0980
29759W        W45943  14.173   4.498   4.335 -0.0548  0.2171  0.0007
29760W        W45944   0.834  14.399  10.665  0.0603  0.3186  0.0552
29761W        W45945  18.481  18.256   4.355 -0.3376  0.0149  0.1421
29762W        W45946   0.072   7.206   1.209  0.1774 -0.1749 -0.0257
29763W        W45947   3.877   9.464  15.632  0.2018  0.0918 -0.0599
29764W        W45948  16.701  18.495  13.840  0.1903  0.1520  0.0971
29765W        W45949  10.298   0.145  12.313 -0.0627  0.1413  0.0854
29766W        W45950   8.389  15.252   1.167 -0.1942  0.2495  0.1035
29767W        W45951  14.801  10.247   3.033  0.3163 -0.0170 -0.0195
29768W        W45952   2.924   3.766   4.229  0.0773 -0.0119 -0.1543
29769W        W45953   4.325  10.914  15.929 -0.0814  0.3383  0.1097
29770W        W45954   7.527  17.464   0.380  0.0522 -0.1658  0.2352
29771W        W45955  15.288   1.058   2.068  0.2120  0.1473  0.0231
29772W        W45956   9.756   0.309  12.270 -0.2538 -0.2795 -0.1390
29773W        W45957   0.216   7.831  15.008 -0.1245  0.3774  0.2564
29774W        W45958  17.171  18.482   3.602  0.0834  0.0085 -0.3189
29775W        W45959  12.540   3.467   3.221  0.2183 -0.1070  0.2763
29776W        W45960  15.507   4.083   0.888  0.1541 -0.2412  0.1758
29777W        W45961  13.328   3.114   2.620  0.0925  0.1466  0.0465
29778W        W45962  10.924  12.743  14.812  0.0343 -0.1493  0.3450
29779W        W45963  15.513  16.265   4.097  0.0709 -0.2684 -0.0118
29780W        W45964   4.794   6.219   0.005 -0.0638  0.0264  0.1447
29781W        W45965   2.760   1.621   4.219  0.0596  0.1650  0.2146
29782W        W45966  13.445  14.959   4.064 -0.2738  0.0186  0.0275
29783W        W45967   5.476  18.408   1.960  0.1314 -0.3411 -0.3684
29784W        W45968   9.811   1.016  15.031 -0.0329 -0.0302 -0.0780
29785W        W45969  12.821   3.523  15.124 -0.0602  0.1451 -0.0162
29786W        W45970   1.616   1.460   3.599  0.1021  0.0018  0.0705
29787W        W45971   9.659   3.302   2.291  0.0132 -0.1130  0.0098
29788W        W45972   2.304  18.480  16.055  0.1214 -0.2088 -0.1343
29789W        W45973   9.239   0.266   0.853  0.0082  0.0124 -0.0460
29790W        W45974  17.803  14.382  12.561  0.0784  0.1590 -0.0600
29791W        W45975   6.383  14.236  12.007  0.0355  0.1700  0.0445
29792W        W45976  15.698  13.308   3.573 -0.1148 -0.1496  0.1788
29793W        W45977  11.166  14.367  15.587  0.1709 -0.1333  0.0162
29794W        W45978   5.513   4.338   3.117 -0.2879  0.1522  0.1186
29795W        W45979  17.415  15.876  14.082 -0.1165 -0.0680 -0.0564
29796W        W45980  13.237  15.180   3.390  0.0964 -0.2420 -0.1198
29797W        W45981   0.510  10.423  14.263 -0.0746  0.2255  0.1682
29798W        W45982   9.019  10.387   4.530 -0.1979  0.3249  0.1191
29799W        W45983  13.685   4.048  14.750 -0.1655  0.1298 -0.1102
29800W        W45984  16.579  13.781   1.899 -0.0085  0.1357 -0.0210
29801W        W45985  11.570   2.672  12.827 -0.1630  0.1208  0.3164
29802W        W45986  18.373   8.763  14.044  0.3854 -0.1351 -0.1898
29803W        W45987   4.331   4.506  11.836 -0.2226  0.1033 -0.2111
29804W        W45988   6.920   4.846  15.740  0.1643  0.1593  0.0832
29805W        W45989  12.901  17.505   0.192 -0.0946  0.2404  0.0976
29806W        W45990   1.406  12.363  13.492 -0.0841 -0.0112 -0.0150
29807W        W45991   6.167  14.500   5.250  0.1126  0.1265  0.0793
29808W        W45992   0.428   9.874  14.339  0.1769 -0.1910 -0.0616
29809W        W45993  11.366   6.260  11.544 -0.2643 -0.2771  0.0793
29810W        W45994  12.724  15.102   5.153 -0.4071 -0.4545 -0.1724
29811W        W45995  13.624   2.519   0.039  0.0137 -0.1760  0.0225
29812W        W45996   4.008   3.392  14.372  0.1114 -0.1038 -0.2423
29813W        W45997   6.604  17.841  11.533 -0.1656  0.1081  0.1714
29814W        W45998  16.427   9.876  14.456  0.0167 -0.0717 -0.3461
29815W        W45999  14.395  16.158  12.706 -0.0381  0.2197  0.0751
29816W        W46000   1.265   3.734   3.788  0.0027 -0.0717  0.2974
29817W        W46001   7.699   3.146   3.433 -0.0184  0.2487  0.1230
29818W        W46002   2.019  14.254  14.177  0.1409 -0.1989  0.0737
29819W        W46003  13.066  11.290   4.674 -0.1505 -0.0321  0.1280
29820W        W46004   1.522   9.439  13.479  0.1637 -0.1803 -0.3710
29821W        W46005  11.226   2.176  12.140  0.4816 -0.0211 -0.2576
29822W        W46006   9.411  13.250  13.992  0.1729 -0.0475 -0.2819
29823W        W46007   5.809   4.671  15.505  0.0745  0.0551  0.2739
29824W        W46008   2.804  18.475  11.483  0.0091 -0.1597 -0.0816
29825W        W46009  12.568  12.409  12.801 -0.0119  0.1434  0.1652
29826W        W46010   5.433   9.029  12.476 -0.0896  0.1025  0.0441
29827W        W46011  15.170   7.248   0.921 -0.0669 -0.1542 -0.0436
29828W        W46012   3.940   1.421  14.854 -0.0165 -0.0337  0.4604
29829W        W46013   7.761  12.385   1.757  0.2004 -0.2245  0.1440
29830W        W46014   8.974  13.853   0.169  0.0569 -0.0267  0.1497
29831W        W46015  11.313  11.198   4.392 -0.0597 -0.0478 -0.5341
29832W        W46016   8.609   2.616   4.925  0.2727 -0.1981 -0.1221
29833W        W46017  11.834   9.932  13.128  0.2505 -0.2133  0.2779
29834W        W46018   5.504  13.108   1.415  0.0597  0.1148  0.1131
29835W        W46019  10.373  10.466   4.025  0.0576  0.0276  0.0687
29836W        W46020  11.459  16.451  13.979  0.1132 -0.1928 -0.2491
29837W        W46021  10.054   0.417   0.529  0.0555  0.0086  0.1658
29838W        W46022   0.125   1.622  14.785 -0.1259  0.2926 -0.2666
29839W        W46023  15.006  13.612  15.767  0.2333 -0.1367 -0.1202
29840W        W46024  11.448  17.743  13.229  0.1992 -0.2784 -0.1978
29841W        W46025   8.328   1.505   5.608 -0.2473 -0.1655 -0.0808
29842W        W46026   2.465  10.970   6.065  0.0220 -0.0925 -0.2143
29843W        W46027  14.561  15.693   4.901  0.0205 -0.2875 -0.0034
29844W        W46028  16.763   4.234  13.162 -0.3684 -0.3645 -0.0855
29845W        W46029  18.192  12.409   1.182  0.0538  0.3538 -0.2656
29846W        W46030   8.333  13.800  11.327 -0.1723  0.1147 -0.2915
29847W        W46031   6.921   8.508  14.292  0.0269 -0.2065  0.1248
29848W        W46032   3.826   6.209  11.156 -0.0655 -0.0380 -0.1145
29849W        W46033   5.839  10.972   1.418  0.2696  0.0359  0.4536
29850W        W46034  14.536  10.414  13.206 -0.0670 -0.0104  0.1472
29851W        W46035   3.086  12.066  13.418  0.0743  0.4358  0.0332
29852W        W46036  17.021  10.631   4.780 -0.2147 -0.1014  0.2742
29853W        W46037  13.871   8.503  12.473 -0.2644  0.0549  0.0389
29854W        W46038  18.166  10.628  12.116 -0.0715 -0.1249 -0.2252
29855W        W46039  14.808   0.514   2.249 -0.0461  0.0416  0.1350
29856W        W46040  12.462   8.187  11.958 -0.5003  0.0316  0.1730
29857W        W46041   4.469   8.880   2.516 -0.1909  0.0345  0.2014
29858W        W46042   8.182  12.001  12.356 -0.1529 -0.0429 -0.0126
29859W        W46043   9.472   0.019   1.819  0.0494 -0.1957  0.0403
29860W        W46044  18.391   1.563  12.989 -0.2714 -0.2365  0.1847
29861W        W46045   8.657   1.971  11.458 -0.0981 -0.1684 -0.1149
29862W        W46046   2.604  17.948   5.064  0.3840 -0.0274  0.2032
29863W        W46047  15.075   2.594  11.996 -0.2846 -0.1800 -0.0321
29864W        W46048   2.846   1.161   4.973  0.0097  0.1469  0.0214
29865W        W46049   8.088   2.909   0.691 -0.4525  0.1676  0.2039
29866W        W46050  12.891   3.523   0.447  0.1926 -0.0747 -0.0298
29867W        W46051   0.530  11.671   4.462 -0.2399  0.1046  0.2064
29868W        W46052   8.563  17.231  15.035 -0.1841 -0.3790  0.0270
29869W        W46053  14.534   5.122   3.286  0.1892  0.0102  0.2072
29870W        W46054   9.791   7.908   5.051  0.1170  0.1895  0.1173
29871W        W46055   4.007  11.420  16.122 -0.1015  0.1818 -0.1393
29872W        W46056   8.135  15.186   5.856  0.0446 -0.0242  0.2678
29873W        W46057   5.006  12.945  12.395 -0.1173  0.0471  0.2047
29874W        W46058  14.348   1.571   1.317 -0.1002  0.1562  0.2114
29875W        W46059   3.041  16.629  14.900  0.2598  0.1879  0.1017
29876W        W46060  16.530  17.548   1.660  0.1245 -0.1456 -0.1475
29877W        W46061  18.352  18.083  15.208  0.0273  0.0079  0.0897
29878W        W46062  15.685  18.481  10.603  0.2221 -0.2892 -0.0687
29879W        W46063   2.401  16.296   3.953 -0.3133 -0.0368  0.3095
29880W        W46064   2.468   5.598  12.786  0.0618 -0.2809  0.3287
29881W        W46065  13.342  12.638   4.523 -0.1443 -0.0677  0.1939
29882W        W46066   9.353   4.060   4.819 -0.2349 -0.2400  0.0158
29883W        W46067   1.634   3.814  12.521  0.1369 -0.1794 -0.1197
29884W        W46068  15.053  16.874   2.413  0.0484  0.2850  0.2110
29885W        W46069   1.727   6.858   5.995 -0.0028  0.0303 -0.0656
29886W        W46070  10.765  14.712   0.564 -0.2728 -0.0889 -0.0176
29887W        W46071   9.521   8.072  12.923  0.1241  0.0359  0.0338
29888W        W46072  17.754  16.066   4.623 -0.0527  0.1234  0.1237
29889W        W46073   2.223  15.649   3.049  0.2748 -0.0442  0.0574
29890W        W46074   7.821   6.453  15.972  0.0667 -0.4105  0.1959
29891W        W46075  10.674  17.304   1.843 -0.1173 -0.0249  0.0448
29892W        W46076  11.648   3.499   5.188  0.2862 -0.2879 -0.1227
29893W        W46077  11.988  16.439  14.002 -0.1969 -0.3039 -0.2242
29894W        W46078   9.357   9.628   0.081  0.0490  0.0024 -0.0177
29895W        W46079   5.855   6.266  11.154 -0.1866 -0.2926  0.0370
29896W        W46080  18.308   5.772  14.361 -0.0618 -0.0433 -0.1031
29897W        W46081  18.288   8.121   1.668  0.2397  0.2090  0.0169
29898W        W46082   9.089   8.587  15.080  0.1388  0.1208  0.1324
29899W        W46083  16.737  11.779   5.836 -0.2789  0.0563  0.0469
29900W        W46084   8.428   9.742  11.437 -0.0753 -0.1195  0.2854
29901W        W46085   1.889   1.844   4.150  0.1298 -0.2783  0.3442
29902W        W46086  15.707   8.241  12.345 -0.2796  0.0064 -0.0158
29903W        W46087   1.386  10.525  12.061 -0.0333  0.0846  0.1631
29904W        W46088  17.300  18.279   0.668 -0.1625 -0.0236  0.0843
29905W        W46089  16.915  10.602  16.032  0.1965  0.3432 -0.0357
29906W        W46090   8.146   1.499   1.574 -0.2015  0.0560 -0.0113
29907W        W46091  11.955  17.095   3.655  0.0168  0.2614 -0.0077
29908W        W46092  15.750   0.112   0.159 -0.1086 -0.1360 -0.1074
29909W        W46093  11.853  10.648   0.471 -0.0298 -0.0337 -0.2585
29910W        W46094  10.021   6.239  13.203  0.4478  0.0309  0.1133
29911W        W46095   4.389   0.571   0.895 -0.0170  0.0498 -0.1161
29912W        W46096   9.188  17.128   0.292 -0.1454  0.0367 -0.1305
29913W        W46097  12.004  14.768  12.392  0.0373 -0.0404 -0.1520
29914W        W46098  12.053  14.690  14.788  0.0081  0.2728  0.2138
29915W        W46099   8.632   6.811  16.015  0.0169 -0.0294 -0.3275
29916W        W46100  13.629   7.787   0.739 -0.2668 -0.3202 -0.1771
29917W        W46101  15.368   8.686   4.578 -0.2763  0.1832  0.1996
29918W        W46102  10.000   9.643   4.379 -0.2951 -0.0428  0.2130
29919W        W46103   3.259   7.663  14.268  0.1405  0.2466  0.0486
29920W        W46104  15.794   8.000  13.172  0.0211  0.0836 -0.1770
29921W        W46105   5.419  11.796  11.398 -0.0002 -0.1448 -0.2430
29922W        W46106  17.628   4.449   3.588  0.1571 -0.0841 -0.1144
29923W        W46107   1.683   2.981  11.965  0.1468 -0.2928 -0.1931
29924W        W46108   3.457  10.397  11.984  0.1761  0.1244  0.3704
29925W        W46109  14.422  14.406  15.722  0.0748 -0.0820 -0.1320
29926W        W46110   5.426   9.021   2.306 -0.1370 -0.3922 -0.1090
29927W        W46111  14.296   9.909  13.105 -0.0948  0.1199 -0.0510
29928W        W46112  18.082   0.634  10.516 -0.0192  0.2226 -0.0060
29929W        W46113   8.382  10.908   2.548  0.3121 -0.0291 -0.3868
29930W        W46114   6.486  11.717   2.057  0.1351  0.1676  0.0926
29931W        W46115  18.219  11.991   4.328 -0.1460 -0.0415 -0.2728
29932W        W46116   5.154   3.824  15.360 -0.2510  0.2178  0.0021
29933W        W46117   6.391  17.254  13.372 -0.1793 -0.3159  0.1626
29934W        W46118   2.579   4.259  12.017  0.0621  0.0361  0.0853
29935W        W46119  18.521  13.470   2.728  0.1650  0.0799  0.1280
29936W        W46120  10.429  12.129   2.675 -0.2508  0.2278 -0.0525
29937W        W46121  17.597   6.036  12.550  0.3062 -0.4093 -0.1734
29938W        W46122  13.873  17.903  13.220  0.0913  0.0353  0.1470
29939W        W46123   3.121   1.560   4.792 -0.0590 -0.0181 -0.1260
29940W        W46124  14.541  17.123  13.910  0.3628 -0.2853 -0.2185
29941W        W46125   4.006   7.019   4.732  0.2501 -0.1105  0.1585
29942W        W46126  17.507   5.425  11.701  0.0512 -0.1276 -0.1514
29943W        W46127   9.904  17.693  15.461  0.3028 -0.4176 -0.0043
29944W        W46128  15.522   0.872  12.049 -0.0702  0.0747  0.2602
29945W        W46129  18.056  13.125   3.425 -0.1300  0.1201  0.3487
29946W        W46130   9.725   3.798  15.266 -0.1569  0.0988 -0.3112
29947W        W46131   4.563   2.096  14.960 -0.1127 -0.2819 -0.4663
29948W        W46132   7.602  17.557  13.170 -0.2201  0.2676  0.1954
29949W        W46133   0.026  13.338   0.217  0.2102 -0.0417  0.0509
29950W        W46134   1.091  10.547   1.699 -0.3433  0.0248  0.0683
29951W        W46135  17.652  14.249  10.905  0.4261 -0.1851  0.1557
29952W        W46136  12.117  16.397  15.593 -0.0325 -0.4438  0.1761
29953W        W46137  16.746   6.047  13.636  0.3914  0.0238  0.0137
29954W        W46138  11.685   1.374   2.563  0.1088 -0.3931  0.0018
29955W        W46139  15.499   8.267   0.881  0.0385  0.1967  0.0628
29956W        W46140  14.012   6.679  15.803 -0.0607 -0.0936 -0.0554
29957W        W46141  15.209   6.800  14.505  0.1202  0.0014 -0.1026
29958W        W46142   6.402  14.785   5.570 -0.0080  0.3427  0.0966
29959W        W46143  15.812   0.483   4.766 -0.0968  0.2148 -0.0001
29960W        W46144   4.403  14.955  15.657 -0.2317 -0.2799  0.0197
29961W        W46145  18.493   0.680  12.235 -0.0927 -0.2469 -0.2565
29962W        W46146  17.203  16.603  12.091  0.0290 -0.1035  0.2509
29963W        W46147  15.388  15.277   5.870  0.0552 -0.0488 -0.0644
29964W        W46148  15.812  14.390  15.194  0.2800  0.0351  0.3262
29965W        W46149   3.538   5.660   5.405 -0.2024 -0.0421 -0.4708
29966W        W46150   5.003  11.331  11.945 -0.0566  0.0673 -0.0181
29967W        W46151   8.226  17.701   5.905  0.0145  0.0474  0.2585
29968W        W46152  12.960   6.444   6.478 -0.2180 -0.1252 -0.0267
29969W        W46153  11.425  13.846  11.923  0.2286  0.2992 -0.1619
29970W        W46154  15.043   9.366   0.078 -0.1175  0.3709 -0.1778
29971W        W46155  13.358   8.146   1.904 -0.3136 -0.4662 -0.0803
29972W        W46156   4.563   0.336   5.039 -0.0105 -0.0153  0.0315
29973W        W46157   5.536   2.674   0.894 -0.1680  0.0359 -0.1127
29974W        W46158  17.729  14.283  13.880 -0.1240  0.0882  0.0353
29975W        W46159  17.133   4.656  15.252  0.0112  0.1692 -0.0316
29976W        W46160   8.349  15.493   1.922 -0.3854  0.1738  0.0646
29977W        W46161  16.905  15.597  12.053 -0.1198 -0.1155  0.1650
29978W        W46162   7.943   3.810   1.608  0.0346  0.0901 -0.0649
29979W        W46163   9.257   2.389  13.622 -0.1950 -0.0426  0.0370
29980W        W46164   1.974  15.981   2.269  0.0717 -0.0315 -0.2098
29981W        W46165   6.800  17.455   4.679 -0.0979  0.1178 -0.2393
29982W        W46166   2.608   8.027   4.815  0.1044  0.0767 -0.1360
29983W        W46167   3.869  18.184  15.350  0.1129  0.1059 -0.1110
29984W        W46168  11.690  16.486   6.327  0.1318 -0.2158 -0.0770
29985W        W46169   0.639   4.536  15.344 -0.3254 -0.3418  0.2490
29986W        W46170  13.302   5.609   2.477  0.3099 -0.3473  0.0620
29987W        W46171   5.421   9.031   0.070 -0.0529 -0.0737  0.2889
29988W        W46172  12.145   3.746   1.211  0.0386 -0.1728  0.2477
29989W        W46173  10.752  15.835  15.881  0.0830 -0.1397  0.1683
29990W        W46174  16.181   2.937   2.700 -0.0546  0.1396  0.0407
29991W        W46175  17.145   4.680   3.464 -0.0591 -0.1746 -0.2945
29992W        W46176  11.557   5.828  13.902  0.1121  0.5410  0.0034
29993W        W46177  15.690  10.048  11.447  0.0400 -0.1981 -0.0681
29994W        W46178   7.833   6.603  11.988 -0.0298 -0.3201 -0.1845
29995W        W46179   8.505  10.078   2.575 -0.1459  0.3230  0.1375
29996W        W46180   6.561  16.218  16.085  0.4294  0.1130  0.0799
29997W        W46181   8.603  10.077  15.636 -0.0765  0.0516 -0.0067
29998W        W46182  11.059  16.433   0.509  0.2659 -0.1292  0.0624
29999W        W46183   3.954  17.008   2.259 -0.3564 -0.0469 -0.3973
30000W        W46184   9.261  14.995   1.478 -0.1086  0.0991  0.1894
30001W        W46185   8.186   9.891  14.757  0.0292  0.0102 -0.1604
30002W        W46186  15.380  12.145   1.645 -0.1991  0.2484  0.1109
30003W        W46187  14.214  17.451   0.304  0.2655 -0.1663 -0.1851
30004W        W46188   7.489   6.972   4.779 -0.1918  0.0151 -0.0998
30005W        W46189  17.258   7.031   1.852 -0.0429  0.0207 -0.0459
30006W        W46190   5.997  17.934   0.519 -0.2374 -0.2081 -0.1221
30007W        W46191   6.693   6.800   0.047 -0.0334 -0.2022  0.2992
30008W        W46192   1.298  14.073   4.086  0.0998  0.0610 -0.2483
30009W        W46193   2.504  15.444   4.787  0.2430  0.1857 -0.3843
30010W        W46194  16.726   9.523  14.546  0.1544  0.3068  0.2363
30011W        W46195   4.973   0.718  14.653  0.0094 -0.0874  0.1205
30012W        W46196   5.069   2.159   2.182  0.1086 -0.1982 -0.2579
30013W        W46197   1.836   2.122  12.419 -0.0459 -0.2667 -0.3005
30014W        W46198  17.516  13.368  10.189 -0.0401 -0.4926 -0.0024
30015W        W46199  15.108   1.757   1.616  0.1751  0.1270 -0.0851
30016W        W46200   4.235   7.060  15.068  0.0050  0.0117  0.0439
30017W        W46201  16.013   1.890   9.672 -0.3962  0.0019 -0.0026
30018W        W46202  16.678   8.531   1.350 -0.1035 -0.1767 -0.0356
30019W        W46203  11.397  14.834  15.058 -0.0371 -0.1060 -0.0734
30020W        W46204  16.699   3.746  13.205  0.1246  0.0183  0.3405
30021W        W46205   8.470   4.841   4.212 -0.3271 -0.1702 -0.1441
30022W        W46206   9.788  17.250   2.210  0.0838  0.2634  0.2787
30023W        W46207  10.884   6.975   1.091  0.0444 -0.3262 -0.0664
30024W        W46208  12.092  10.939  12.977  0.0511 -0.0851 -0.1987
30025W        W46209  11.711   2.157   2.988 -0.0593 -0.0910  0.2617
30026W        W46210   9.286  16.337  12.745 -0.1073 -0.1476 -0.0241
30027W        W46211  12.043   9.627   1.837  0.1569 -0.1429 -0.3110
30028W        W46212   0.296  12.930   0.020 -0.0589 -0.2212 -0.0204
30029W        W46213   1.124   3.639  14.621  0.1285  0.1253  0.0675
30030W        W46214   6.196   5.675   4.823  0.2131 -0.1088 -0.1816
30031W        W46215  13.648   6.182   5.340  0.2490 -0.2559  0.1801
30032W        W46216   9.360   1.068   0.588  0.0003 -0.0198  0.0218
30033W        W46217  12.553   9.330   5.066  0.3232  0.4351  0.1333
30034W        W46218   1.378   8.572  15.230 -0.0308  0.0747 -0.2140
30035W        W46219   8.962  15.111   0.701 -0.2146  0.0631 -0.0836
30036W        W46220   8.857   0.694  15.222  0.2169  0.4876  0.2940
30037W        W46221   7.542  11.135  15.040  0.3731  0.2286  0.0656
30038W        W46222  13.643   9.785   4.517 -0.2294 -0.3175  0.1546
30039W        W46223   8.419   2.684   2.207  0.0617 -0.2688 -0.0565
30040W        W46224  13.173  18.105   4.179 -0.4079  0.0340 -0.2296
30041W        W46225  17.858  14.316  13.172  0.0085 -0.3087 -0.3074
30042W        W46226  17.535   3.206  14.126  0.2227  0.1358 -0.0015
30043W        W46227   4.330   6.568  14.889 -0.0886 -0.2841 -0.1743
30044W        W46228   0.811   7.136  12.614  0.0008  0.0119 -0.1732
30045W        W46229   3.969   2.540  14.313  0.0688  0.1849  0.0308
30046W        W46230  17.509  15.025  14.863 -0.1373  0.0964 -0.2355
30047W        W46231  12.360   7.381  14.367  0.0521 -0.0371  0.2633
30048W        W46232   4.155   9.074   3.336  0.2891  0.1160  0.0750
30049W        W46233   0.888   1.474  13.798  0.0785 -0.1225 -0.3161
30050W        W46234  15.373  13.166   3.179 -0.1050  0.0521 -0.0029
30051W        W46235  11.669   2.572   1.524 -0.3807 -0.3238 -0.2271
30052W        W46236   8.611   5.011   0.982 -0.2139  0.1016 -0.3226
30053W        W46237   8.084   1.768  13.999  0.2560  0.2795 -0.1101
30054W        W46238  10.571  14.532  13.831  0.1082 -0.1013  0.1647
30055W        W46239   5.688  12.837   1.812  0.0851  0.0950  0.3956
30056W        W46240  16.620   2.531  13.986 -0.0602 -0.0585  0.3599
30057W        W46241   9.360   8.189  15.007 -0.3239 -0.1136  0.0300
30058W        W46242  11.171   9.899  12.404 -0.3199 -0.4391 -0.2216
30059W        W46243   6.012   5.919   3.551 -0.2373 -0.1104  0.1293
30060W        W46244  18.156  10.560   3.087  0.1613 -0.0529  0.0561
30061W        W46245  13.614  17.895  14.001 -0.0742  0.0684  0.0138
30062W        W46246   8.333  10.194   4.042 -0.2215 -0.2766 -0.1203
30063W        W46247  17.853  10.729   3.523  0.0052  0.0014  0.1392
30064W        W46248   8.805   8.749   4.692  0.1633  0.1706 -0.0086
30065W        W46249  14.218   8.321   3.860  0.1804 -0.2107  0.0551
30066W        W46250   3.229  10.424   4.375 -0.2180 -0.2508 -0.2986
30067W        W46251  15.446  16.604  11.393 -0.0465  0.1215 -0.1060
30068W        W46252  14.667  18.413  14.116  0.0216 -0.0178 -0.1846
30069W        W46253  14.885   3.636   5.990 -0.1397  0.0389  0.0766
30070W        W46254  15.710  13.328  12.604  0.2501 -0.0802  0.2731
30071W        W46255  11.713   4.082   3.380  0.3058 -0.3714 -0.0775
30072W        W46256   1.389  16.924   3.596  0.4370 -0.1128 -0.2607
30073W        W46257   5.617   8.530   1.360  0.1742 -0.1460  0.1253
30074W        W46258   3.594   2.917  11.773 -0.2139  0.1962  0.0190
30075W        W46259  14.345  14.448   3.808  0.0798  0.1799 -0.0601
30076W        W46260   5.297   2.416  13.596  0.1073 -0.1944  0.1288
30077W        W46261   7.998   3.590  11.875 -0.1101 -0.0672 -0.1404
30078W        W46262  17.620  17.118   5.187  0.3299  0.3843 -0.0111
30079W        W46263   0.777  14.877  11.684  0.0846 -0.0358  0.0706
30080W        W46264   7.323   7.147   3.823  0.3506  0.0437  0.1573
30081W        W46265  12.150   0.794   5.479  0.0284  0.3649 -0.1813
30082W        W46266  16.968   8.752   2.731 -0.0207  0.1622  0.2011
30083W        W46267   0.027  11.452  13.424 -0.0026  0.0804 -0.2921
30084W        W46268  18.463   4.038  15.533 -0.2050 -0.2018 -0.4376
30085W        W46269  10.496   7.333  13.739 -0.0339  0.0325 -0.0896
30086W        W46270  14.732   4.030  15.119 -0.0487 -0.0753  0.0285
30087W        W46271  14.911   1.284  14.145  0.2879  0.2981  0.0505
30088W        W46272  15.933   0.670  14.427 -0.1185 -0.0219 -0.1399
30089W        W46273  15.189  15.908   2.488  0.2148  0.3367 -0.0094
30090W        W46274  13.588   2.601  14.306 -0.0616 -0.1600 -0.1587
30091W        W46275  15.796   0.151   3.827  0.0186  0.3278  0.0620
30092W        W46276   8.001   2.005  14.883  0.2227 -0.0649  0.3420
30093W        W46277   9.065  12.491  15.651 -0.0733  0.1039 -0.2976
30094W        W46278  17.623  14.576  12.079 -0.0629 -0.0323 -0.1546
30095W        W46279   7.921  16.846  15.203 -0.0032  0.1587 -0.0655
30096W        W46280   6.537   0.642  11.433  0.0641  0.0453  0.0581
30097W        W46281  13.262   1.485   2.232 -0.1965  0.1422 -0.0041
30098W        W46282   4.903   5.725   4.022  0.2706 -0.0592 -0.2801
30099W        W46283   0.541   4.888  11.033  0.3069  0.0316 -0.0333
30100W        W46284   5.481   6.063  12.379 -0.0193  0.1033  0.1520
30101W        W46285   7.826  10.244   4.084  0.1730 -0.2119  0.0786
30102W        W46286   6.913  11.071  12.627  0.1118  0.1564 -0.3303
30103W        W46287  14.382   2.585  15.535 -0.1372  0.0487 -0.1822
30104W        W46288   6.829  15.056   4.004  0.0450  0.4871  0.1030
30105W        W46289  11.881  12.293   1.801  0.3518 -0.3036 -0.1056
30106W        W46290   3.176  14.962   1.382  0.3134  0.0997  0.0798
30107W        W46291   6.295  13.061  13.861 -0.0709 -0.1847  0.1006
30108W        W46292   3.865   1.954  14.064 -0.2253  0.0804  0.2392
30109W        W46293   7.614  14.495  14.583 -0.0421  0.0116 -0.2846
30110W        W46294   9.365  15.436   4.756  0.0763 -0.1519  0.0626
30111W        W46295  15.245   2.745   2.891  0.0415  0.2148  0.1520
30112W        W46296   3.320   0.324  15.957 -0.2701  0.2293 -0.3039
30113W        W46297   0.229  16.392  12.609  0.0310  0.2425  0.1878
30114W        W46298  17.126   7.566  14.833 -0.0830 -0.1367  0.2065
30115W        W46299  11.366   9.131  11.868 -0.0161 -0.2244 -0.2928
30116W        W46300  15.212   7.085  14.943  0.1219 -0.1749  0.0678
30117W        W46301  13.141   9.958  13.704  0.2004  0.2000 -0.1950
30118W        W46302  15.815  17.368   5.579 -0.3890  0.2940  0.0087
30119W        W46303  14.897   9.284  12.798 -0.1484 -0.0317  0.1011
30120W        W46304  17.947  14.823  13.520 -0.0834  0.4172 -0.0761
30121W        W46305   7.379  17.093  14.787 -0.1065  0.1484  0.3795
30122W        W46306   3.976  15.299  13.072  0.0588 -0.3312 -0.1256
30123W        W46307   9.348  18.218   0.536 -0.0740 -0.1310  0.2553
30124W        W46308   0.484  11.065   3.214  0.0391  0.1381  0.4948
30125W        W46309  17.182   4.472   4.859 -0.3899  0.1098  0.1073
30126W        W46310  12.071   1.294   5.462  0.0079  0.0645 -0.0423
30127W        W46311  12.406  16.297   3.453 -0.0680 -0.1359 -0.1686
30128W        W46312   2.600  11.158  13.317 -0.1257 -0.1553 -0.1735
30129W        W46313   4.778  17.445   1.030 -0.0084  0.2265 -0.1585
30130W        W46314  10.022   0.665   4.638  0.0321  0.1933 -0.0317
30131W        W46315  12.981   6.176  13.411 -0.2085  0.2753  0.0736
30132W        W46316   4.042   4.325   2.046 -0.0724 -0.0798  0.3488
30133W        W46317   2.427   7.995  14.543  0.3646  0.1612 -0.0845
30134W        W46318   1.238  10.623   2.190  0.1197  0.1557  0.1240
30135W        W46319  18.011  14.944   1.989 -0.1453 -0.0549 -0.2596
30136W        W46320   0.509   3.044  14.774  0.2961 -0.0470 -0.0972
30137W        W46321   9.743   7.450   3.952  0.1384 -0.0317  0.0696
30138W        W46322   8.882  16.095   1.050  0.1097 -0.0402 -0.0008
30139W        W46323   8.468  14.723   2.385  0.1303 -0.0312  0.1949
30140W        W46324   3.091   4.776  13.799 -0.0624  0.3601 -0.1519
30141W        W46325   0.764  11.798  13.505 -0.2835 -0.1969  0.0723
30142W        W46326   2.326  13.192   4.290  0.2069  0.0206  0.1640
30143W        W46327  15.380   0.582   1.903  0.1840  0.2253  0.1940
30144W        W46328   7.712  17.496   0.869  0.0506  0.2531  0.2138
30145W        W46329   0.485   2.072   4.256 -0.1403  0.2075  0.2419
30146W        W46330  12.395  14.116   4.779 -0.1766 -0.4177  0.2242
30147W        W46331  12.670  18.344  14.247 -0.1845  0.0155 -0.1863
30148W        W46332   7.438  18.460  15.329 -0.2432 -0.1106  0.0747
30149W        W46333  12.642   7.134   4.062 -0.0392  0.1401  0.3471
30150W        W46334  17.201   9.801   0.832  0.2794  0.0269 -0.2240
30151W        W46335   3.501  14.440   0.865 -0.2282 -0.0538  0.0415
30152W        W46336  15.265  12.694   4.702  0.1595 -0.3295 -0.1580
30153W        W46337   5.853   7.324   3.578  0.0902  0.3769 -0.0720
30154W        W46338   1.285  18.446   3.832 -0.2830  0.1796 -0.2417
30155W        W46339  10.817   1.381   3.632  0.1346  0.2477  0.1295
30156W        W46340   6.818   3.138   3.868  0.0147  0.0571 -0.1930
30157W        W46341   5.610   5.651  11.435  0.2376  0.2989  0.1254
30158W        W46342  16.649  17.247   2.079  0.0337  0.0610 -0.1822
30159W        W46343   2.966   8.277   4.449 -0.0701  0.0763  0.0457
30160W        W46344  13.557   2.971  14.690  0.0038  0.0369  0.1750
30161W        W46345   4.571   1.080   2.766 -0.0052  0.1554  0.4084
30162W        W46346   1.944  17.368  11.471 -0.3065 -0.3012  0.0167
30163W        W46347  10.853   0.737  13.283 -0.2236  0.2075  0.0689
30164W        W46348  10.208  14.184   5.153 -0.0990  0.4030 -0.1770
30165W        W46349   1.649   4.727  10.055  0.2260 -0.1206  0.0279
30166W        W46350  18.375  13.507   2.178  0.1586 -0.0598  0.1095
30167W        W46351  13.640   7.781  12.150 -0.0707  0.1898 -0.0892
30168W        W46352  10.866   7.829  12.966  0.0359  0.0974  0.1855
30169W        W46353   0.087  15.673   1.454  0.3607 -0.2811 -0.1846
30170W        W46354   5.928   2.148   4.614  0.0559 -0.0057 -0.0630
30171W        W46355  13.126  16.621   0.525  0.0678 -0.0210  0.5591
30172W        W46356   1.410   3.479  13.746  0.2984  0.1568 -0.0202
30173W        W46357  10.857   4.188  12.976 -0.0680 -0.2311  0.2324
30174W        W46358   8.061  18.179   4.397 -0.1120 -0.1684  0.1609
30175W        W46359   5.083   9.739   5.644 -0.0573  0.1657 -0.2632
30176W        W46360  17.856   9.000  13.921 -0.0610  0.0891  0.2326
30177W        W46361  13.107  10.999  14.080  0.5963  0.0757  0.1426
30178W        W46362   4.610   1.203   0.063 -0.0607 -0.1543 -0.1079
30179W        W46363   6.357   1.308   1.409  0.1863 -0.0321  0.3475
30180W        W46364  11.409  11.440   3.989  0.1181  0.1587  0.1248
30181W        W46365   7.281   0.276  11.028 -0.1677 -0.4015  0.1837
30182W        W46366  16.786  17.750  14.638 -0.1451  0.2373 -0.2636
30183W        W46367   1.303  14.991  11.736 -0.0297 -0.0951  0.0687
30184W        W46368   5.496  13.340   3.703  0.2454 -0.0333 -0.0113
30185W        W46369   3.531  11.333   4.010  0.3026 -0.1233  0.1294
30186W        W46370  17.760  15.951  11.008  0.0624  0.0151 -0.1089
30187W        W46371   8.643   3.508   5.014 -0.3840 -0.0097  0.0947
30188W        W46372   3.683   2.032  14.551  0.2813 -0.2118 -0.0506
30189W        W46373   0.998   4.847  10.918 -0.2690 -0.1765 -0.0586
30190W        W46374  12.240  12.438  11.890 -0.1575  0.0256  0.0424
30191W        W46375  15.447  11.525   0.730 -0.2612  0.3933  0.2362
30192W        W46376   5.506   0.329  12.208  0.3658 -0.0874 -0.0917
30193W        W46377  12.832  16.787   1.443  0.1146  0.3775 -0.0135
30194W        W46378   5.399   0.571   0.139 -0.1487  0.1135  0.1165
30195W        W46379   0.278   6.939  11.289  0.0207  0.2117 -0.0665
30196W        W46380   9.776  17.868   2.293  0.1492  0.0745 -0.0851
30197W        W46381   3.810  10.996  13.984 -0.0986  0.0676 -0.0164
30198W        W46382  17.938   3.072  11.476  0.2623 -0.0229 -0.0064
30199W        W46383  16.683   8.705   3.103  0.1632  0.0417  0.1865
30200W        W46384   2.305  15.586   4.362  0.0911 -0.0233  0.2344
30201W        W46385   1.359   2.425   4.459 -0.1006 -0.0441  0.2360
30202W        W46386  12.329   0.428   0.971 -0.5598 -0.1919  0.3484
30203W        W46387   4.876   6.834  12.274  0.0586  0.1652 -0.2605
30204W        W46388  14.442  16.722  10.380  0.1574 -0.0518  0.1216
30205W        W46389  11.882   4.473   2.956 -0.1440 -0.0952  0.0153
30206W        W46390  14.536   2.778  11.055 -0.0488  0.2001  0.1631
30207W        W46391  14.958  13.052  13.859  0.0050  0.2723 -0.0011
30208W        W46392  15.041  14.853   3.124  0.1795  0.1403  0.4457
30209W        W46393   6.405   6.005  12.279  0.0500  0.0766 -0.2806
30210W        W46394   2.739  17.864   1.384 -0.2621 -0.2839  0.0464
30211W        W46395  14.998  12.812  12.616 -0.1136 -0.0165 -0.0573
30212W        W46396   9.353   6.736   4.494 -0.3375 -0.1604 -0.0540
30213W        W46397  13.569  10.852  11.673 -0.0766  0.3240  0.2755
30214W        W46398   4.388   3.483   3.106 -0.0288 -0.0147  0.1026
30215W        W46399  11.519   8.182  12.944  0.1266 -0.0384  0.0298
30216W        W46400  12.054   0.709  14.395 -0.3942  0.0912  0.2414
30217W        W46401   1.186   6.712  13.014  0.1023 -0.1229 -0.0772
30218W        W46402   7.103   2.640  10.327  0.1771  0.2845  0.2057
30219W        W46403   6.614  14.143   4.977 -0.0140  0.0489 -0.4117
30220W        W46404   8.307  14.528  14.089  0.2923  0.0419 -0.2672
30221W        W46405   1.745  10.106  12.177  0.0417  0.0290 -0.1387
30222W        W46406   2.141  11.609   3.437  0.1236 -0.3480 -0.0365
30223W        W46407  11.270   7.144   2.017  0.0992 -0.3138 -0.1945
30224W        W46408  16.502  13.199   4.081 -0.0780  0.0506  0.2966
30225W        W46409   7.368  12.175  15.889  0.0305 -0.2713 -0.0272
30226W        W46410   2.952  11.162   0.546  0.1942  0.3727  0.0823
30227W        W46411  13.564   3.737   4.093  0.1882  0.1737 -0.1210
30228W        W46412  14.616   3.854   3.015 -0.6756  0.2100 -0.3605
30229W        W46413  17.776  18.065   2.364  0.1725  0.2195  0.0397
30230W        W46414  13.118  15.282   4.309 -0.4109  0.0202  0.0850
30231W        W46415  13.737   7.007   1.184  0.1265 -0.1348 -0.1588
30232W        W46416   7.265  16.015  11.682 -0.4824  0.0393 -0.0792
30233W        W46417   8.613  15.385   2.785  0.0161 -0.1268 -0.0291
30234W        W46418   9.902   2.983  11.958 -0.1606 -0.1562 -0.1618
30235W        W46419   1.616   2.072   2.876 -0.1161 -0.2921 -0.0863
30236W        W46420   0.416   6.766   5.919  0.0413 -0.0060 -0.0488
30237W        W46421  14.263   3.998  11.731  0.3108  0.5228  0.0055
30238W        W46422   7.759   2.428  11.564  0.0367  0.0276  0.0661
30239W        W46423   9.269  15.876   2.120 -0.1167  0.0641  0.3070
30240W        W46424  13.912   5.939  11.767 -0.0553  0.0469 -0.0934
30241W        W46425   4.792   7.878   0.848  0.2147  0.0734  0.2956
30242W        W46426   0.096   2.329  15.204 -0.0034 -0.0255 -0.0648
30243W        W46427  11.879  17.634   0.238  0.0137 -0.0228  0.1444
30244W        W46428   9.920  17.593   1.884 -0.2530 -0.1141 -0.2217
30245W        W46429   4.710  15.884   4.989 -0.1052 -0.0808  0.1676
30246W        W46430  15.392  13.923  13.588  0.1440  0.2840  0.2885
30247W        W46431  17.741  12.937  15.086 -0.4341  0.2035  0.4988
30248W        W46432  17.469   9.567   5.310  0.4638  0.0726 -0.1536
30249W        W46433  15.091  15.204   1.830  0.2161  0.0865 -0.0271
30250W        W46434  10.145   3.151  14.914  0.1417 -0.0100  0.1411
30251W        W46435   7.490   1.836  15.693  0.1937 -0.1441  0.1100
30252W        W46436   0.093   5.432   4.685 -0.2261  0.2128  0.2448
30253W        W46437   5.796  15.079   2.326 -0.3557 -0.0727 -0.5030
30254W        W46438  11.923  11.256   1.957 -0.4125  0.2051  0.3897
30255W        W46439   5.861   2.703   4.516 -0.1272 -0.0099  0.0763
30256W        W46440   0.067   8.510   2.159  0.3701  0.1184  0.0664
30257W        W46441  14.149   0.864   5.348  0.3697 -0.1073 -0.0017
30258W        W46442  16.423   1.361   2.594  0.0970 -0.2776  0.0758
30259W        W46443  10.943   4.876  14.195  0.1209 -0.2051  0.1452
30260W        W46444  10.820   8.357  15.842  0.1386  0.2514 -0.1698
30261W        W46445  18.202  16.702   4.736  0.0191 -0.2600 -0.2056
30262W        W46446  13.170   3.442   3.892 -0.2632 -0.0253 -0.0225
30263W        W46447   9.286   5.331   1.003 -0.2219 -0.1812  0.2057
30264W        W46448   0.183  16.297   1.282  0.3640 -0.0075  0.0331
30265W        W46449   9.449  12.174  12.126 -0.1105 -0.3522 -0.0538
30266W        W46450   2.277  17.359   3.967  0.3943  0.2022  0.0236
30267W        W46451   4.710   1.472   4.401 -0.0988 -0.0952 -0.0357
30268W        W46452  13.251  10.500  11.851  0.2331  0.0868 -0.0643
30269W        W46453   4.430  10.777   5.027 -0.3638 -0.0160  0.3111
30270W        W46454  14.177   4.791   2.454 -0.0416 -0.1236 -0.0700
30271W        W46455  18.296  16.228  12.429  0.1802 -0.2416  0.2807
30272W        W46456  18.444   8.152   5.913 -0.2758 -0.0440 -0.2587
30273W        W46457  10.359   8.948  16.086 -0.2515  0.4110  0.2304
30274W        W46458  10.602   3.004   4.543  0.1453  0.3720  0.3736
30275W        W46459  11.780   8.849  14.618  0.3419 -0.0800  0.1495
30276W        W46460   5.437   2.346  14.391 -0.2429  0.0962 -0.0772
30277W        W46461   4.552   3.070   0.054  0.0622  0.0535 -0.1742
30278W        W46462  10.203   1.639  16.056 -0.4260 -0.1310  0.1453
30279W        W46463  16.813   6.757   5.046 -0.1696 -0.1634 -0.0530
30280W        W46464  14.437   3.322   1.504 -0.1099 -0.1671  0.0711
30281W        W46465   9.963  11.565   1.818  0.0024 -0.0115 -0.0131
30282W        W46466   8.238   8.024  11.568 -0.0326 -0.0190 -0.3877
30283W        W46467   6.700   9.664   1.233  0.1366  0.0510  0.0437
30284W        W46468  13.942   6.966  11.995 -0.0813  0.0349  0.0043
30285W        W46469   2.298   2.848   1.051 -0.4235 -0.1727  0.2515
30286W        W46470  11.784  14.550   2.350  0.1481  0.2101  0.2065
30287W        W46471  14.422   1.429   3.186 -0.1330 -0.2712 -0.3856
30288W        W46472   2.974   5.057  13.258 -0.0377  0.0664  0.2554
30289W        W46473   5.304   8.271   0.831 -0.0048  0.2799 -0.2432
30290W        W46474   3.385  18.283   2.121 -0.1981 -0.3063 -0.2277
30291W        W46475   6.743  17.723   0.185 -0.0696 -0.0791 -0.1266
30292W        W46476   6.182   7.268   0.867 -0.0364 -0.1015  0.2196
30293W        W46477   9.399  14.968  13.020 -0.0327 -0.1422  0.3510
30294W        W46478  18.151   2.059   5.833  0.1135 -0.1564 -0.1180
30295W        W46479   2.040  11.132  15.259 -0.0835  0.1672  0.2598
30296W        W46480   4.644   3.570  15.263  0.0182  0.0035 -0.0867
30297W        W46481  14.435   7.197   0.616  0.1381 -0.1975 -0.0474
30298W        W46482   7.222   1.592   5.453 -0.1561 -0.1418 -0.0960
30299W        W46483  17.188   6.944  11.864 -0.0901  0.4831 -0.0464
30300W        W46484   1.778   2.915   0.012  0.0159  0.2060  0.1053
30301W        W46485  14.188   3.578  13.846  0.1004  0.2932 -0.0117
30302W        W46486  13.599   3.890   1.177 -0.0202 -0.0762  0.0117
30303W        W46487   2.826  13.039   0.120 -0.1827 -0.0266 -0.4617
30304W        W46488  11.432   9.938   2.983  0.1131 -0.0394  0.0102
30305W        W46489  15.831  16.244  12.893 -0.0187  0.0783  0.2471
30306W        W46490  18.292   5.031   0.246  0.1024 -0.1397  0.0753
30307W        W46491  14.112  13.077  14.367 -0.0878 -0.2583  0.0109
30308W        W46492   7.978   7.791   1.109  0.0564 -0.1971 -0.1906
30309W        W46493  14.003   1.603   2.928  0.1218  0.1896  0.0980
30310W        W46494  10.861   1.347   1.952  0.1095 -0.0038  0.1307
30311W        W46495  11.762   7.848   0.456 -0.2412  0.0988  0.0949
30312W        W46496  14.196  12.259  12.694 -0.0808 -0.6476 -0.1739
30313W        W46497   6.166  10.742  15.681 -0.1096 -0.1288  0.3557
30314W        W46498  13.037  11.481   5.561  0.0380  0.6211  0.0918
30315W        W46499   6.039   8.082   5.199 -0.1520  0.2800  0.2373
30316W        W46500   1.997  13.928   1.929  0.0345 -0.0437  0.0052
30317W        W46501   5.940   3.468   0.339  0.0882  0.4203  0.1607
30318W        W46502   5.894   7.373  16.114  0.0299  0.0812  0.0827
30319W        W46503  12.979  11.225   1.259 -0.2075  0.2653 -0.0875
30320W        W46504  10.795   5.687   4.305  0.0094  0.2161  0.2214
30321W        W46505  17.743   2.239   4.642  0.1189 -0.1475  0.2277
30322W        W46506  17.847  15.592  15.203 -0.2534  0.1795  0.1641
30323W        W46507   1.947   9.968  10.402  0.0837  0.1391  0.0776
30324W        W46508   5.842  14.371  15.046 -0.3538 -0.0848  0.1383
30325W        W46509   2.164  14.373   4.532 -0.0420 -0.0302  0.1179
30326W        W46510   7.666  13.441   4.638  0.2433 -0.1968  0.3288
30327W        W46511   5.237  10.812  12.118  0.1574  0.2110 -0.0752
30328W        W46512  10.727  17.672   4.398 -0.0547  0.0136  0.0491
30329W        W46513   0.572   3.245   4.862 -0.0452  0.0242  0.0474
30330W        W46514  10.556  18.006   3.500  0.2569  0.3921 -0.0600
30331W        W46515   8.752  13.766  14.956  0.0175 -0.5062  0.3135
30332W        W46516  15.550   0.489  14.693 -0.2342 -0.0187 -0.2751
30333W        W46517   0.938   4.683   2.310  0.0642 -0.0609 -0.1632
30334W        W46518   1.112  15.881  14.301  0.1149 -0.1981  0.2250
30335W        W46519  11.145  16.535  13.000  0.2327 -0.3182 -0.3277
30336W        W46520   1.717   8.580  13.436 -0.1902  0.2336  0.1611
30337W        W46521   2.697   4.664  11.688  0.3007  0.0257  0.1592
30338W        W46522   4.206  10.968   0.267 -0.2488  0.0352  0.0713
30339W        W46523  15.926   2.241   3.050 -0.0111  0.0843 -0.3119
30340W        W46524  15.509  15.985  15.356  0.0973 -0.0315 -0.0103
30341W        W46525   0.997  14.830   0.284  0.2282  0.3062 -0.0297
30342W        W46526   5.928   1.241  10.707  0.0786 -0.0348 -0.0287
30343W        W46527  17.287  16.973   2.366 -0.0425 -0.0537  0.5028
30344W        W46528   2.752   8.467  14.638 -0.3541  0.1329  0.1569
30345W        W46529   5.381   2.457  14.950 -0.0127  0.3149  0.0442
30346W        W46530  11.593   3.014   3.637 -0.2607 -0.0124  0.2099
30347W        W46531   6.136   0.452   1.533  0.0979  0.0039 -0.0592
30348W        W46532  14.747   2.112   4.655  0.1607 -0.1195  0.2622
30349W        W46533   4.845  16.538  13.957  0.0325  0.2248 -0.2120
30350W        W46534  12.344   6.404   0.617 -0.1153  0.1590 -0.0560
30351W        W46535   4.191   2.808  12.251  0.1650  0.0555  0.0202
30352W        W46536   0.410  11.951  14.177  0.0530 -0.0734  0.2581
30353W        W46537  14.138   2.398  11.673  0.1492  0.2790  0.2577
30354W        W46538   4.472   4.621  15.058  0.1086  0.0763 -0.2829
30355W        W46539   1.907  11.634   5.793 -0.1253 -0.1175  0.0750
30356W        W46540  13.770  12.851  12.743 -0.0196 -0.2578 -0.1436
30357W        W46541  13.754   5.528  14.489 -0.2611 -0.2406 -0.3533
30358W        W46542   8.706   9.041   1.172 -0.2348  0.0986 -0.0497
30359W        W46543  12.118   9.992   4.513  0.0220  0.0200 -0.1665
30360W        W46544   1.589   0.683   1.083 -0.0529  0.0801  0.0897
30361W        W46545  10.349   7.622  16.147 -0.1973  0.1562  0.0739
30362W        W46546  17.930   7.253   0.049  0.2599 -0.0168  0.0032
30363W        W46547   1.496  13.556   0.963 -0.2381 -0.0682 -0.1245
30364W        W46548   7.367   1.651   1.867 -0.0556 -0.0508 -0.1068
30365W        W46549  14.319   8.503  11.781 -0.1408 -0.0556  0.1212
30366W        W46550  18.003  17.677  13.857 -0.0372  0.2458 -0.2251
30367W        W46551   5.339   5.349  11.111 -0.0263 -0.2108  0.1318
30368W        W46552   4.309  12.592   4.525 -0.1190 -0.1587  0.0646
30369W        W46553  18.047   7.398   2.973 -0.2121  0.1176  0.2222
30370W        W46554  11.018  10.297  14.954  0.3264  0.1176 -0.3666
30371W        W46555  17.323   0.228  13.379 -0.2297 -0.0356 -0.2635
30372W        W46556   8.811   7.904   4.394 -0.3377 -0.0187  0.0118
30373W        W46557  15.767  18.095   2.666  0.0333  0.0636 -0.1935
30374W        W46558  13.314   9.463   1.299  0.2245  0.0973 -0.2284
30375W        W46559   6.756   7.451   3.276 -0.2579 -0.1768  0.0813
30376W        W46560   0.458  15.386  10.962  0.0119  0.0683  0.0326
30377W        W46561  13.065   1.298   1.671 -0.0833 -0.1195 -0.1646
30378W        W46562   9.984   5.852  11.233  0.1134  0.0674  0.0774
30379W        W46563  10.596  18.394   4.578 -0.2297  0.1613 -0.3148
30380W        W46564   4.192  10.307   0.862 -0.0973 -0.3830 -0.0135
30381W        W46565  12.123  15.241   4.308 -0.0997 -0.0896 -0.0907
30382W        W46566  18.362  15.261   4.684  0.0224 -0.1416  0.1609
30383W        W46567  17.408  17.123  14.658  0.1238 -0.1209 -0.0300
30384W        W46568  13.273  11.224  11.743 -0.0133 -0.2513 -0.0264
30385W        W46569   4.736   7.040  13.963  0.0727  0.1747 -0.1142
30386W        W46570  11.931  17.145   3.117  0.1477 -0.0408  0.0807
30387W        W46571   4.625   6.478   0.993 -0.1787  0.3082 -0.1563
30388W        W46572  17.394   0.164  12.442 -0.1304 -0.2229 -0.2672
30389W        W46573  13.720  13.299  15.143  0.1057 -0.0654  0.0155
30390W        W46574   2.854  11.043   2.694  0.1601  0.1419  0.0640
30391W        W46575   0.512   1.780  10.674 -0.2516  0.2215 -0.2072
30392W        W46576   8.277   9.277  11.317  0.0265  0.2734  0.1819
30393W        W46577   0.665   7.691   2.413 -0.2277  0.1628 -0.0274
30394W        W46578   7.493   3.492  14.598 -0.2663  0.1505  0.1829
30395W        W46579   7.765  17.023   1.029  0.0566 -0.0312  0.0829
30396W        W46580  16.362   8.512   5.359  0.2208 -0.1636  0.2549
30397W        W46581   5.819  17.874  13.505  0.0632 -0.0546  0.0787
30398W        W46582  14.358   1.663  14.143 -0.2211  0.0478  0.1479
30399W        W46583  15.184  14.041   3.774 -0.2291 -0.1220  0.2058
30400W        W46584   4.395   0.338  15.305 -0.2625 -0.0195  0.0996
30401W        W46585  11.042   7.581  12.423 -0.1551 -0.2462  0.1893
30402W        W46586  17.215   6.188  14.085 -0.0486 -0.2105 -0.0277
30403W        W46587   4.797  15.857  14.221 -0.0500  0.0178 -0.0386
30404W        W46588  11.646   3.678  12.851  0.1252 -0.0050  0.2573
30405W        W46589  16.767   2.163  14.323 -0.1710  0.1298  0.5349
30406W        W46590   0.529   8.836  12.171 -0.0123  0.1508  0.0351
30407W        W46591  18.209  16.529   1.582 -0.2108  0.3586 -0.0200
30408W        W46592   3.325  15.845   5.103 -0.2593 -0.1901 -0.3852
30409W        W46593   8.026   0.873   1.047 -0.3446 -0.0710 -0.0655
30410W        W46594   2.434   9.740   2.568  0.1318  0.0698 -0.0961
30411W        W46595  17.073   2.573   4.913 -0.3102 -0.4088  0.0265
30412W        W46596  12.211  10.916  14.199 -0.0317  0.0738  0.2741
30413W        W46597   7.443   8.400  13.929  0.0240 -0.2259  0.0186
30414W        W46598   3.787   1.164   1.497  0.0176 -0.2063 -0.1299
30415W        W46599   4.939  14.888   2.772  0.1475  0.2726 -0.2143
30416W        W46600   2.623   7.136   2.327 -0.4678  0.1646 -0.0664
30417W        W46601   3.187  15.848  15.858 -0.1193 -0.0010  0.2535
30418W        W46602  17.077   2.901   0.351 -0.0153 -0.0311 -0.1248
30419W        W46603  12.098   4.640  13.384 -0.2124  0.2139  0.1444
30420W        W46604   2.162  11.666   2.272 -0.0561 -0.0783 -0.0895
30421W        W46605  15.550  17.880  16.125  0.3512 -0.0309  0.3369
30422W        W46606  14.237  12.761  12.927 -0.2171  0.0211 -0.1262
30423W        W46607   3.799   4.870  11.242  0.1603 -0.0147 -0.2904
30424W        W46608   1.690   4.043  13.010  0.2391  0.0428 -0.1761
30425W        W46609  13.236   9.592   5.531  0.2022  0.1347 -0.0495
30426W        W46610  15.309  12.668  16.026  0.1277  0.1506 -0.0046
30427W        W46611   2.179   5.446   5.185  0.0874  0.3334 -0.1629
30428W        W46612   6.477   6.134   1.867 -0.0533 -0.0359  0.0745
30429W        W46613  14.100   7.237   0.239  0.1084 -0.2475 -0.1832
30430W        W46614  13.490   8.601  16.103 -0.2437 -0.3020 -0.0321
30431W        W46615   9.794   2.932   1.141  0.1712  0.0499 -0.0123
30432W        W46616   5.670  13.620  11.452  0.2789  0.3186 -0.0260
30433W        W46617  12.167  14.196  14.920  0.2693 -0.3792 -0.0808
30434W        W46618  17.777   9.608   0.834  0.0745  0.1146  0.2974
30435W        W46619  11.078  10.329  16.062  0.0650 -0.3187  0.0636
30436W        W46620  16.371  15.714   2.925 -0.1008 -0.3576 -0.3003
30437W        W46621   9.772   5.069  14.033  0.0143 -0.2044  0.2036
30438W        W46622  14.146  16.186  11.806 -0.1643 -0.1093 -0.0674
30439W        W46623  17.541  17.449   1.571  0.2486  0.2195 -0.0481
30440W        W46624   7.786  12.934  12.465  0.1588 -0.0269  0.0763
30441W        W46625   7.650   2.076  13.891 -0.1565 -0.3222 -0.0833
30442W        W46626   0.910   7.140   2.712  0.5430  0.1032  0.0472
30443W        W46627  14.165  12.045   1.798  0.0742  0.0455  0.4607
30444W        W46628   0.688  15.971  13.469  0.0756  0.1949  0.1107
30445W        W46629   4.035  13.035   1.167 -0.0646  0.2336  0.1956
30446W        W46630   3.307   9.965   0.070 -0.0862  0.0716  0.0245
30447W        W46631   9.901   4.872  15.595 -0.0167  0.0195 -0.1412
30448W        W46632   9.869  10.851   4.951  0.0194  0.1538 -0.3760
30449W        W46633  18.086  13.796   2.457 -0.0123  0.0104  0.1041
30450W        W46634  13.430   4.065   4.571  0.0513  0.1958  0.4652
30451W        W46635   0.813   0.628  14.883 -0.0316  0.0606  0.5338
30452W        W46636   3.861  15.929  13.782  0.0953 -0.3528 -0.3731
30453W        W46637   0.857  16.827  15.598  0.2422 -0.2068  0.0957
30454W        W46638   2.364   4.257  12.519 -0.1176 -0.3599  0.0911
30455W        W46639  13.797  12.912   4.248  0.1520 -0.1414  0.2372
30456W        W46640   8.189  13.943   0.547  0.2072  0.3091  0.2003
30457W        W46641   3.052   7.792   6.076 -0.1683 -0.0006 -0.1073
30458W        W46642   6.588  18.098   1.697  0.1117 -0.1863  0.0286
30459W        W46643  10.408  11.726  14.644 -0.1285  0.1423  0.3501
30460W        W46644  16.779  16.669  11.068 -0.1407  0.0872  0.1054
30461W        W46645   3.867   8.504  12.046 -0.0690  0.4370  0.1059
30462W        W46646  14.143  15.503   5.736 -0.1122 -0.1940 -0.4105
30463W        W46647   0.108   2.873  13.491 -0.1682  0.1811  0.1530
30464W        W46648  13.390   7.280   3.805  0.2989 -0.1265  0.2229
30465W        W46649  18.180   7.164  11.875  0.2249 -0.1212  0.0905
30466W        W46650  10.295   4.698  15.275  0.0053 -0.0628  0.0424
30467W        W46651  16.154  11.453   1.389  0.3896  0.2329 -0.3742
30468W        W46652  16.914   3.597   5.910  0.0542 -0.2013  0.0018
30469W        W46653   2.444   3.212   4.980  0.2144  0.1371  0.1413
30470W        W46654  12.098  15.323  14.337  0.0253  0.2431  0.3777
30471W        W46655   8.328  12.340   1.299 -0.1102 -0.2226  0.0958
30472W        W46656   6.737   4.897   3.186  0.1045 -0.2609  0.1545
30473W        W46657  10.025   7.745   3.074  0.1901 -0.0680  0.1967
30474W        W46658  13.146  15.845  15.593  0.0392 -0.4538  0.1609
30475W        W46659   8.201  10.363  12.964 -0.0470  0.0952 -0.2556
30476W        W46660  15.078  10.201   3.477 -0.0560 -0.0969 -0.0446
30477W        W46661   6.363  18.509   2.534  0.0866 -0.0512 -0.0997
30478W        W46662   8.560  18.091  12.634 -0.0269  0.3710  0.2263
30479W        W46663   9.657   8.924   3.805 -0.0677  0.1993  0.0045
30480W        W46664   5.653  10.861   2.826 -0.1548 -0.1385 -0.0702
30481W        W46665   7.262  13.816   1.510 -0.0767  0.0525 -0.1123
30482W        W46666   4.820   2.390   2.762  0.1734  0.2573 -0.1409
30483W        W46667   6.985   2.014  16.131  0.0644 -0.1549  0.1949
30484W        W46668  10.006  16.019  13.378  0.2164 -0.0089  0.3401
30485W        W46669  15.865   6.054   4.775 -0.0369  0.1395 -0.1489
30486W        W46670   9.113  12.341   4.401  0.1880  0.1680  0.2221
30487W        W46671   4.391  10.147  13.545 -0.1066 -0.2170  0.0756
30488W        W46672  14.121  17.851   1.006 -0.0516 -0.2895 -0.0272
30489W        W46673  17.033  16.738  15.412  0.3362 -0.3138 -0.1219
30490W        W46674  14.664   6.335   3.224  0.0659 -0.0398  0.2334
30491W        W46675   6.239   5.467  15.449  0.0760  0.0283 -0.0664
30492W        W46676   5.928   5.019   5.453  0.1093 -0.2466 -0.0909
30493W        W46677   1.715   5.850   3.515 -0.0362 -0.0885  0.2641
30494W        W46678  12.232   6.124   0.103  0.3779 -0.1432 -0.1811
30495W        W46679   3.335   5.704   2.842 -0.0502  0.4184 -0.2794
30496W        W46680   9.250  14.249   0.697 -0.3332 -0.2446  0.1470
30497W        W46681   3.661   6.517   3.574  0.0113  0.0270 -0.1352
30498W        W46682  14.081   4.899   4.647 -0.2405  0.0926  0.1290
30499W        W46683   1.245  17.637   2.375  0.2199  0.1887  0.0577
30500W        W46684  10.307   1.848  11.386  0.5217 -0.1521 -0.1376
30501W        W46685   7.310   9.730  14.240 -0.1252  0.0432 -0.2136
30502W        W46686  11.124  11.212   1.653 -0.1540  0.0390 -0.0318
30503W        W46687  12.923   8.102   4.261  0.1278 -0.6254  0.4534
30504W        W46688   3.756   0.874   1.914  0.4178 -0.0463  0.0451
30505W        W46689   8.048  12.263   0.508  0.0701  0.1062 -0.0752
30506W        W46690  14.500   1.779  13.330 -0.0328  0.0354 -0.3449
30507W        W46691   9.283   4.719   5.359  0.0651 -0.0473 -0.0910
30508W        W46692  16.785   6.078  14.992 -0.1202  0.0564  0.0609
30509W        W46693  10.427  11.425   5.256 -0.2984 -0.0496 -0.0982
30510W        W46694   9.747  10.432   4.730 -0.2165 -0.2321  0.3622
30511W        W46695  13.228  15.547  12.457 -0.2273  0.2021 -0.1554
30512W        W46696  18.394   4.631   1.703  0.0280  0.3730 -0.0484
30513W        W46697  11.156  10.685   1.825  0.1176  0.1659 -0.2497
30514W        W46698   2.657   2.184  12.153  0.3109  0.2567 -0.0505
30515W        W46699   1.584   6.261  11.213 -0.2079 -0.1503  0.1595
30516W        W46700   6.488  12.838   4.292  0.1863  0.3553 -0.4432
30517W        W46701  13.473  18.113  12.453 -0.1831 -0.0713 -0.1331
30518W        W46702   6.331   7.716   4.720  0.0965  0.0050  0.1260
30519W        W46703  11.541   9.656   2.461  0.1563 -0.8177  0.1419
30520W        W46704   4.062   2.955   2.512  0.1534 -0.3079  0.2613
30521W        W46705  12.523   3.166  11.138  0.0449 -0.1958  0.1950
30522W        W46706  11.866   3.347   2.054 -0.1724  0.2028 -0.2069
30523W        W46707   3.313  15.808   1.863 -0.1519  0.0409  0.1145
30524W        W46708   4.802  17.743  16.043 -0.3318 -0.0316  0.0529
30525W        W46709  13.153   4.086   2.078 -0.0387  0.0635  0.1435
30526W        W46710   7.962  18.311   0.786  0.0976  0.2041 -0.3474
30527W        W46711  17.746   7.009  14.203 -0.0570  0.2413 -0.2923
30528W        W46712   1.527  16.113   2.962 -0.2358 -0.0317 -0.0230
30529W        W46713  14.910  12.404  14.819  0.3101  0.2691 -0.0043
30530W        W46714  13.849  15.127   0.315  0.0413  0.0542 -0.1800
30531W        W46715  15.783   6.665  12.386  0.1429 -0.1416  0.1943
30532W        W46716  11.202  11.456   2.092 -0.1073  0.2681 -0.1077
30533W        W46717  14.089   5.578   1.171 -0.0149 -0.0981  0.1212
30534W        W46718  11.795  11.304  11.490 -0.1649 -0.1409  0.2195
30535W        W46719  10.444   2.991   1.964  0.2170 -0.1969  0.1974
30536W        W46720   8.232  11.840   6.001 -0.1637 -0.5092 -0.2102
30537W        W46721   6.129   1.033  13.852 -0.0759 -0.0145 -0.1184
30538W        W46722  16.677  11.340  15.998  0.1495 -0.0339 -0.0207
30539W        W46723   4.453   8.554   3.109  0.0905  0.1873 -0.2022
30540W        W46724  18.209  16.164  13.004  0.0176 -0.0912  0.2668
30541W        W46725  17.892  18.229  16.140  0.1658  0.0399  0.1530
30542W        W46726   6.415  12.045   4.893  0.1373  0.4965 -0.2417
30543W        W46727  15.831   9.359   4.976  0.0903 -0.0872 -0.5404
30544W        W46728   2.806   3.029  11.878  0.5429 -0.0216  0.1066
30545W        W46729   7.342  16.450   4.451 -0.0439 -0.0976 -0.0460
30546W        W46730   8.468   2.243  14.796 -0.0238  0.1928  0.2162
30547W        W46731  13.931  11.590   1.061  0.2082  0.2142 -0.1466
30548W        W46732   5.394  12.952  13.990 -0.0137 -0.6008  0.3150
30549W        W46733  11.454  17.748  11.037  0.0773  0.1764  0.0419
30550W        W46734   8.682   5.232  13.086  0.0527 -0.0063  0.1947
30551W        W46735  13.050  10.844   4.943  0.3559 -0.0994 -0.1461
30552W        W46736  14.969  12.355   0.185 -0.1054  0.0795 -0.1882
30553W        W46737   2.664  17.422   3.732  0.3322 -0.1050  0.1265
30554W        W46738   8.425   2.382  13.178  0.0904 -0.5310  0.1454
30555W        W46739   6.692   0.179  10.523  0.3402  0.3197 -0.1171
30556W        W46740  16.450   7.340   3.935  0.1218  0.1009 -0.2735
30557W        W46741   9.539   7.135   1.187  0.0297  0.0554  0.2773
30558W        W46742   1.397  18.109  11.304 -0.1285  0.0825 -0.1995
30559W        W46743  15.196  17.152   4.684 -0.3449  0.1002 -0.3929
30560W        W46744  10.194   6.827   0.976  0.2112  0.1932 -0.0357
30561W        W46745   3.413   1.995   1.946  0.1635  0.2757  0.1360
30562W        W46746   5.979  14.979  12.468  0.0430 -0.2275 -0.0881
30563W        W46747   0.634  13.529  11.098 -0.0073 -0.1401  0.0373
30564W        W46748   0.988  17.303  11.096 -0.2858  0.2257 -0.0736
30565W        W46749  15.920   3.416  16.005  0.0238 -0.1411  0.0046
30566W        W46750  16.223   2.576  11.662 -0.3383  0.2637 -0.2198
30567W        W46751  14.978   6.521  11.847 -0.1296  0.2705  0.2454
30568W        W46752  18.387   8.417  12.601 -0.4118 -0.0182  0.2165
30569W        W46753  10.123   4.670  11.706 -0.3902 -0.0018 -0.1645
30570W        W46754  14.370  12.508  14.752  0.1895 -0.1861 -0.0384
30571W        W46755  15.613   0.288   4.309  0.1573 -0.2236 -0.1536
30572W        W46756   4.950   3.256  14.725 -0.0683  0.1484 -0.0610
30573W        W46757   3.921  12.605  15.500 -0.2782  0.3222 -0.0807
30574W        W46758  12.399  10.613  11.984 -0.0518  0.4426  0.0953
30575W        W46759   9.124  17.214   4.709  0.0688 -0.2622  0.2398
30576W        W46760  15.958  13.520  14.921 -0.0192  0.2515  0.1543
30577W        W46761   7.950  18.358  12.330 -0.1034  0.2985 -0.1236
30578W        W46762   3.864   5.855   3.021 -0.1360 -0.2044  0.2021
30579W        W46763   5.781  13.163  13.156 -0.0445  0.1916  0.1739
30580W        W46764   4.372  10.757  12.379  0.3402 -0.0103 -0.1568
30581W        W46765  14.240   9.090  12.405 -0.4421 -0.2721  0.2059
30582W        W46766  17.123   2.575   3.549  0.2308 -0.2888  0.0619
30583W        W46767   2.065   3.921  12.167 -0.2913 -0.0550 -0.2545
30584W        W46768   9.721  16.624  15.695 -0.1912  0.0238 -0.1046
30585W        W46769  16.010   8.458  13.276 -0.0080  0.3218 -0.3116
30586W        W46770   7.050  16.261  16.135 -0.0973 -0.0317 -0.0841
30587W        W46771   1.714  13.854  15.287 -0.1958  0.2335 -0.2990
30588W        W46772   4.285   1.777   2.166  0.0965  0.0621  0.0429
30589W        W46773   9.414   6.348   2.556 -0.0363 -0.2441  0.0739
30590W        W46774  14.597  13.677  15.392  0.0449 -0.3403 -0.0149
30591W        W46775  17.414  14.512   4.706 -0.1389 -0.0854 -0.1785
30592W        W46776  16.944   2.827  10.535  0.1146 -0.1296 -0.0363
30593W        W46777  16.751  16.143  11.259  0.0810 -0.0796  0.0172
30594W        W46778   7.606  16.101   2.061 -0.1312  0.4278 -0.3253
30595W        W46779  13.603  16.167   3.696  0.4380 -0.2796 -0.0357
30596W        W46780   4.612   1.523   2.364  0.0645 -0.0922 -0.6329
30597W        W46781   1.471   9.597  12.323  0.0339  0.1738  0.4834
30598W        W46782   3.365   8.705   1.027 -0.2242  0.0399 -0.1238
30599W        W46783   6.584  17.831  12.626 -0.3837 -0.0162  0.2280
30600W        W46784  14.767  10.667  11.920  0.3659 -0.1885  0.4720
30601W        W46785  15.713  14.677   1.074 -0.1254  0.0276  0.1566
30602W        W46786   3.797  15.332   1.971  0.1679  0.0369 -0.1106
30603W        W46787   5.008   4.306  14.051 -0.2090  0.1374  0.1972
30604W        W46788  14.771   8.575   1.061 -0.2230 -0.3661 -0.2827
30605W        W46789  15.503  12.022   0.529  0.0613  0.3169  0.2418
30606W        W46790   9.192   4.381   1.329  0.3937 -0.0935  0.0960
30607W        W46791  17.916  13.193  15.451  0.2879 -0.0898  0.0376
30608W        W46792   6.794   9.427  16.133 -0.1460  0.1761  0.0877
30609W        W46793   8.727   0.332   0.852 -0.0235 -0.1289 -0.1706
30610W        W46794  13.805   2.805  11.700  0.2219  0.2200  0.2894
30611W        W46795  16.344   1.390   4.912 -0.2025  0.0511 -0.1345
30612W        W46796   9.299  15.209  13.610  0.1662 -0.1933 -0.0438
30613W        W46797   3.790  17.218   3.751 -0.2520  0.0613  0.2138
30614W        W46798   3.748   3.978  12.838 -0.0477  0.1744 -0.0359
30615W        W46799   4.903   7.093   5.291  0.0056 -0.1497 -0.4403
30616W        W46800   3.364   9.821   2.773  0.2024  0.1509 -0.0837
30617W        W46801  10.267  18.289   1.308  0.0247 -0.0508  0.0518
30618W        W46802  18.117   8.830  12.236 -0.0288  0.1991  0.1806
30619W        W46803  17.761   5.201  14.502 -0.0276  0.0679 -0.1431
30620W        W46804   1.408   4.169  13.363 -0.0156 -0.0200 -0.2363
30621W        W46805  10.402  11.963   4.354 -0.0099 -0.0653 -0.0687
30622W        W46806   1.419  13.047   4.054  0.1831  0.0888  0.1357
30623W        W46807  10.706   1.991  13.737  0.0084 -0.1158  0.0049
30624W        W46808  14.565  13.532  11.343 -0.3655 -0.1223 -0.2435
30625W        W46809   6.696   3.732  14.993 -0.3142 -0.1753 -0.0336
30626W        W46810   0.764  17.000  13.798 -0.3285 -0.1807 -0.0707
30627W        W46811   4.859  11.021  12.896  0.1448  0.0205  0.1084
30628W        W46812  14.456  13.442  14.473  0.2964 -0.2380  0.1578
30629W        W46813  13.513   8.414   2.962  0.1639 -0.0938  0.2701
30630W        W46814  14.300  15.170   1.865 -0.2660 -0.1584  0.1451
30631W        W46815  12.859   7.204  10.434  0.1344 -0.0273  0.0423
30632W        W46816  18.069  12.069  12.042  0.1231  0.0809 -0.0256
30633W        W46817  16.781  11.852   4.480 -0.3214 -0.0123  0.1966
30634W        W46818   9.505  17.878   4.710 -0.0210  0.1243 -0.0212
30635W        W46819  16.132  18.513   1.962 -0.0073 -0.0544  0.4732
30636W        W46820   6.922  16.671   5.242 -0.1870  0.0976  0.0533
30637W        W46821   7.134   5.500   1.983  0.1302 -0.0782 -0.4197
30638W        W46822  15.326  12.470   3.155 -0.3026 -0.1242 -0.0391
30639W        W46823   5.765   4.631  13.711  0.3015  0.0300 -0.0510
30640W        W46824   6.332  12.541  13.802 -0.0105 -0.2712 -0.0589
30641W        W46825  18.044  12.452   0.103  0.0458 -0.0935  0.1857
30642W        W46826  11.364  17.741  16.008 -0.4438 -0.3126  0.0100
30643W        W46827  15.828   2.872  11.844 -0.0090  0.1949  0.0850
30644W        W46828  11.915   6.605   1.041 -0.1072 -0.0943 -0.0158
30645W        W46829  18.166   5.662   1.785  0.0939 -0.0041 -0.0253
30646W        W46830   6.133  10.694  11.761 -0.1438 -0.2654 -0.0934
30647W        W46831   4.010  13.474   0.673 -0.0679 -0.0394 -0.0975
30648W        W46832  16.196   4.644  13.664  0.0927  0.2530  0.0520
30649W        W46833  14.229  11.895  12.420  0.0729 -0.0363  0.2487
30650W        W46834   6.590   2.011   2.603 -0.2873 -0.2363  0.0418
30651W        W46835   6.258   9.496   5.600 -0.0850  0.1064  0.0905
30652W        W46836  17.143  10.459   1.413 -0.0536 -0.1810  0.0325
30653W        W46837  13.349  11.881  12.585  0.2287 -0.3033  0.1292
30654W        W46838  16.792   3.819   1.756  0.1487 -0.1187  0.1785
30655W        W46839   5.570  13.328  12.750 -0.0979 -0.0717  0.0663
30656W        W46840   1.708  13.258  14.568  0.0702  0.1001  0.1162
30657W        W46841  14.770   8.952  15.820 -0.0211 -0.1084  0.0315
30658W        W46842  14.179  18.420   2.474 -0.1590  0.0605  0.0711
30659W        W46843  12.499   0.765  14.095  0.0633  0.1015  0.1466
30660W        W46844   4.110   0.886   2.771  0.0272  0.0648 -0.0311
30661W        W46845   9.233  16.376   2.458  0.2335  0.0788 -0.3640
30662W        W46846   8.140   1.581  13.472  0.1851 -0.3474 -0.1046
30663W        W46847  17.999   5.607   0.430 -0.2548  0.2504  0.0187
30664W        W46848  17.774   1.011   1.019 -0.1893  0.1930  0.1038
30665W        W46849   6.920   1.753  13.176 -0.1081 -0.0271 -0.1305
30666W        W46850  10.776   0.689   0.560  0.0388 -0.2869 -0.1854
30667W        W46851  16.186   6.052  11.986  0.1057 -0.1498 -0.1959
30668W        W46852  15.533   5.771   2.484 -0.0949  0.0088  0.1058
30669W        W46853   4.331   4.326   0.677 -0.1206 -0.1700 -0.3094
30670W        W46854   6.110  10.339   3.356  0.1720  0.0487  0.0679
30671W        W46855   9.050   6.358  13.959  0.0726  0.0903  0.0903
30672W        W46856   1.411  11.513   4.709 -0.0639 -0.3155 -0.1395
30673W        W46857  17.133   4.641  14.765 -0.0630  0.0989 -0.1684
30674W        W46858  14.484   5.763   3.281 -0.3105 -0.2109  0.2211
30675W        W46859  15.585  14.839   5.977 -0.3411  0.1237 -0.3239
30676W        W46860  14.471  17.801   0.661  0.0972 -0.1117  0.0649
30677W        W46861  12.596  16.972   5.148  0.1742 -0.2548 -0.2916
30678W        W46862  13.953   0.980   0.303  0.2692  0.1921  0.2445
30679W        W46863   8.465   6.546  12.741  0.0209 -0.0156  0.0057
30680W        W46864   3.022   9.012   1.358 -0.0651 -0.1850 -0.1784
30681W        W46865   8.270   2.360  15.611 -0.2418 -0.1392 -0.2524
30682W        W46866   4.897  13.083   2.783  0.1346 -0.4221 -0.2189
30683W        W46867  15.626   4.200  11.802 -0.1875 -0.1272  0.4090
30684W        W46868   5.640  14.934   4.488  0.0773 -0.1709  0.0024
30685W        W46869   6.060  13.949   3.084  0.0801 -0.0305 -0.0517
30686W        W46870   3.408  14.083  11.626 -0.2348  0.2450 -0.0552
30687W        W46871   4.321  10.143  14.815 -0.0202 -0.1404  0.2095
30688W        W46872  16.233  16.476   3.794 -0.1243  0.2866  0.0414
30689W        W46873   6.014  12.949  12.645 -0.0600  0.3538 -0.3527
30690W        W46874   9.095  14.694  13.600 -0.3792  0.0919  0.2426
30691W        W46875  12.687   1.654  13.336  0.1173  0.4201  0.0627
30692W        W46876  15.534   8.597  13.157 -0.1361 -0.0728 -0.2187
30693W        W46877   2.467   0.774   5.342 -0.1367  0.0420 -0.0865
30694W        W46878   9.483  14.022   3.358  0.0595 -0.2038 -0.2294
30695W        W46879  11.204   4.221   4.740  0.0693  0.2565 -0.1688
30696W        W46880   6.639  17.216   0.135 -0.1011  0.1009 -0.2180
30697W        W46881   2.048   6.602   2.943 -0.1238 -0.4699  0.2726
30698W        W46882   0.038   2.881  14.901  0.2822 -0.1421  0.3103
30699W        W46883  17.709   7.737   0.325 -0.3169 -0.1335 -0.1774
30700W        W46884  14.964   6.342  12.603 -0.3694 -0.1102  0.0695
30701W        W46885   2.791   5.918   1.502 -0.3151 -0.0380 -0.0036
30702W        W46886   2.228   1.232  13.973  0.1643 -0.0736 -0.1341
30703W        W46887   7.484   9.616  11.557  0.1111  0.0427 -0.0147
30704W        W46888  11.463  16.472  11.164  0.1495  0.1199  0.1187
30705W        W46889   5.008   3.286   1.182 -0.0271  0.1676  0.1009
30706W        W46890  18.201  14.696   2.898  0.0513 -0.0607 -0.0096
30707W        W46891  13.050  11.797   2.675 -0.1497  0.0144 -0.3490
30708W        W46892  13.629   9.828   5.571  0.2068  0.0620  0.0746
30709W        W46893  11.846   8.569   0.522 -0.0094 -0.0715 -0.2047
30710W        W46894  13.545   0.189   2.903 -0.1157  0.1152 -0.0466
30711W        W46895   5.897   2.720   2.232 -0.1340 -0.0624  0.2468
30712W        W46896  10.364  15.881  14.239 -0.2321 -0.2006 -0.0598
30713W        W46897   3.694   1.504  13.883  0.1410 -0.3047 -0.0900
30714W        W46898  10.518  13.550  13.553 -0.0081 -0.1653  0.0104
30715W        W46899   5.896  11.995   4.828 -0.0137 -0.0657  0.0115
30716W        W46900  17.064   6.001  12.653 -0.0247  0.1698 -0.3539
30717W        W46901  16.594   8.616  15.270 -0.0595 -0.3088 -0.1785
30718W        W46902   3.153   7.410  14.927 -0.1844 -0.2518 -0.0547
30719W        W46903   4.588   3.592  12.244 -0.1748  0.3194 -0.1136
30720W        W46904   0.668   3.178   1.176 -0.1075  0.3897  0.1109
30721W        W46905  13.473  13.825  11.833 -0.0174 -0.1281  0.1784
30722W        W46906   9.060  17.229  15.099 -0.0324  0.4921 -0.0337
30723W        W46907   2.264   3.467  13.030 -0.4031 -0.1176 -0.0129
30724W        W46908  15.802   1.922   0.918 -0.0995 -0.3652 -0.4517
30725W        W46909   7.254   3.680   2.108 -0.1390  0.1564 -0.0363
30726W        W46910  17.692   8.371  13.394 -0.1266  0.2305  0.0758
30727W        W46911   6.515   4.045   1.233  0.1909  0.1606 -0.1907
30728W        W46912  10.147  10.451   1.225  0.0864  0.1204 -0.0747
30729W        W46913   3.921   7.554   2.400 -0.0157  0.0848  0.1892
30730W        W46914  12.876   5.529   2.219 -0.1653 -0.0218 -0.1782
30731W        W46915  11.878   4.883  12.534 -0.0455  0.0116 -0.3905
30732W        W46916  18.076  13.614  14.331  0.2992 -0.1532  0.0764
30733W        W46917   2.340   2.873   4.556 -0.0069 -0.2064  0.0069
30734W        W46918  10.265  12.942   2.890  0.2131 -0.3030 -0.2107
30735W        W46919   1.153  11.368  15.770  0.1262 -0.1049  0.3199
30736W        W46920  18.481   3.898  11.290 -0.1425 -0.0431 -0.1365
30737W        W46921  15.371   5.052  11.814 -0.2840 -0.2551 -0.1716
30738W        W46922   5.805  16.738  12.812 -0.4511  0.2499 -0.2243
30739W        W46923  12.393  13.772  11.697 -0.2181  0.1199 -0.0609
30740W        W46924  13.921   1.450   0.329 -0.4607  0.0530  0.1404
30741W        W46925   5.034   7.190  12.634  0.0245  0.2066  0.0886
30742W        W46926   0.301  15.333  15.613 -0.2723 -0.0230  0.1390
30743W        W46927   3.901  16.164   2.350 -0.1424 -0.2025  0.0637
30744W        W46928   8.534  15.656   2.382 -0.1744 -0.0514  0.2659
30745W        W46929   7.503   2.166  12.356  0.0629  0.0901 -0.2438
30746W        W46930   8.574  11.031  12.541 -0.3401 -0.0999  0.0118
30747W        W46931  10.971  11.408  14.173  0.2067  0.2679 -0.2789
30748W        W46932   9.268  10.236  14.840 -0.1105  0.0712 -0.1253
30749W        W46933  12.106   4.121   0.029 -0.1500 -0.1576  0.0290
30750W        W46934   2.694   5.295   5.269 -0.0226 -0.2502 -0.0168
30751W        W46935   7.406  13.112  12.126 -0.2892 -0.0542  0.1045
30752W        W46936  11.695  11.148   0.513 -0.2774 -0.0894 -0.0080
30753W        W46937  16.568  16.435  12.337 -0.1966 -0.0623  0.2930
30754W        W46938  11.969   8.492  15.076 -0.1872 -0.0234 -0.0229
30755W        W46939   2.242  14.434   3.573 -0.3116 -0.2899  0.1139
30756W        W46940   5.755  12.994   4.151 -0.2157  0.1183 -0.1031
30757W        W46941   6.079   6.768   3.284 -0.1883 -0.1477 -0.2088
30758W        W46942  12.410   0.355  16.060 -0.0980 -0.2048 -0.2090
30759W        W46943   0.417   1.667  11.954  0.2888  0.0975 -0.1865
30760W        W46944   2.110   1.444   1.285  0.0258  0.0281 -0.0001
30761W        W46945   0.845   1.539  11.009 -0.2165  0.0414  0.0393
30762W        W46946   8.865   8.277   1.104  0.1072  0.3295  0.0294
30763W        W46947  18.271   5.441   5.154 -0.3417  0.0457  0.5629
30764W        W46948   0.058  15.080  14.721  0.0910  0.1152  0.1828
30765W        W46949   1.415   7.801   4.444  0.1182 -0.2612  0.0110
30766W        W46950  16.937  13.102  15.697 -0.2292  0.0927 -0.5890
30767W        W46951  14.400   6.709   5.211  0.0986  0.1986 -0.1490
30768W        W46952  12.625   9.696  11.872  0.0055 -0.1315 -0.1319
30769W        W46953   6.223   5.312   5.159 -0.1663 -0.0881  0.2374
30770W        W46954   5.788   2.602  14.558  0.0410 -0.3701 -0.0839
30771W        W46955  10.718   4.091   1.461 -0.1402  0.0971 -0.2290
30772W        W46956   8.003   0.038   3.739 -0.0912 -0.2570  0.1056
30773W        W46957   0.916  10.150  14.139 -0.1957  0.2573  0.2155
30774W        W46958  14.126  13.525   0.016  0.2716  0.2166  0.1988
30775W        W46959  17.516  17.077   0.684 -0.2655  0.1980 -0.0083
30776W        W46960   5.756  18.025   3.655  0.0076 -0.0273  0.2641
30777W        W46961   2.813   8.623  14.157  0.0049  0.1688 -0.3537
30778W        W46962   1.270  14.729  14.701  0.0050 -0.0392  0.1128
30779W        W46963  14.140  13.588  14.146 -0.0901  0.2342 -0.0245
30780W        W46964   0.701  12.322   3.637  0.1937  0.0274  0.1547
30781W        W46965   7.013  18.218  13.290 -0.1978  0.1713  0.1390
30782W        W46966   0.515  15.747  11.337  0.5984 -0.1721 -0.3444
30783W        W46967  17.574   4.763  15.386  0.0845  0.2087  0.0505
30784W        W46968  15.097   0.483  15.178 -0.5094  0.2663  0.2158
30785W        W46969   6.111  17.397   0.221  0.0377 -0.0915  0.0440
30786W        W46970  12.513  15.459  12.943 -0.2082 -0.0140 -0.1527
30787W        W46971   0.881   5.108   4.905 -0.4396 -0.1195 -0.1754
30788W        W46972   5.856  15.558   2.860 -0.0628  0.1138  0.0427
30789W        W46973   7.648   8.970   1.002  0.2337 -0.0229  0.1174
30790W        W46974  17.293  13.984   4.637  0.1550  0.0766 -0.0714
30791W        W46975  13.556   4.651  13.389  0.2708 -0.1322 -0.1838
30792W        W46976  14.243   6.032   4.258 -0.3902  0.0025 -0.0024
30793W        W46977  16.166   9.379   2.588  0.0974  0.0546  0.1414
30794W        W46978  11.710  12.509  12.078 -0.2281  0.0330 -0.0268
30795W        W46979   8.063   9.234   4.067  0.3513 -0.2978 -0.0054
30796W        W46980  15.560   1.103   1.605 -0.0622  0.3564 -0.2497
30797W        W46981  11.844   6.787  13.651 -0.0340  0.0321 -0.3684
30798W        W46982   8.569   4.155   2.994 -0.0959 -0.0605  0.1355
30799W        W46983  17.021  13.695   2.360 -0.0939  0.3946  0.1952
30800W        W46984   2.435  13.418   1.136  0.0743 -0.0096 -0.1273
30801W        W46985   7.288  13.144  14.736 -0.2093  0.1555 -0.0451
30802W        W46986  13.369   9.016  13.743 -0.1803  0.3506  0.0598
30803W        W46987  11.943   3.423  15.557  0.1829  0.2082 -0.0284
30804W        W46988   1.170  16.128  13.319  0.0769  0.0452 -0.2007
30805W        W46989   0.802   2.165  14.524 -0.1252 -0.2955  0.0052
30806W        W46990   8.774   2.605   2.579  0.2376  0.0191 -0.3768
30807W        W46991   1.948  10.584  13.935 -0.0522  0.0141  0.0620
30808W        W46992   3.709  11.932   4.826 -0.4259  0.0833  0.3393
30809W        W46993   1.095   6.935   5.362  0.3529 -0.1872 -0.1664
30810W        W46994  11.204  13.554  12.780 -0.1817 -0.0309  0.3021
30811W        W46995  11.992   7.665  14.546 -0.0827 -0.0818 -0.2461
30812W        W46996   2.532  13.915  11.404 -0.0105 -0.1517  0.3249
30813W        W46997  17.852  11.142   4.973 -0.1842 -0.1442  0.0393
30814W        W46998   1.757  17.779   3.861 -0.1360  0.0347 -0.1490
30815W        W46999   3.278  14.253  12.273  0.1907 -0.4160 -0.2249
30816W        W47000   9.505   6.328  15.770 -0.0847  0.4655  0.0147
30817W        W47001   3.081  18.106  10.384  0.1223 -0.2162  0.0798
30818W        W47002  11.388   4.282   3.000 -0.0041 -0.2495  0.3391
30819W        W47003   3.329  13.923  16.012 -0.1471 -0.0349  0.1775
30820W        W47004   2.580   3.864  15.917 -0.2854  0.0175 -0.1122
30821W        W47005   6.392   9.424   3.208  0.0273  0.1952  0.2016
30822W        W47006  15.982   8.423   0.726 -0.2803 -0.1808 -0.2241
30823W        W47007   4.623  12.385  13.555 -0.0346  0.0643 -0.1149
30824W        W47008   9.975  15.389   1.036 -0.0756 -0.2775  0.4109
30825W        W47009   7.689   9.858   6.361 -0.0520 -0.0489 -0.2125
30826W        W47010  16.823  16.322  11.859  0.1055 -0.1046  0.1666
30827W        W47011   7.621  11.455   3.795 -0.2192  0.0653  0.0424
30828W        W47012   6.257  13.328  12.062 -0.1542  0.1317  0.2517
30829W        W47013   5.885  13.497   2.923 -0.1539 -0.0010  0.0458
30830W        W47014   2.420   8.312   2.383 -0.0388 -0.0324 -0.3222
30831W        W47015   7.101  14.380  15.667 -0.1121  0.2601 -0.2090
30832W        W47016   2.691   8.101  15.024 -0.0399  0.3288 -0.1686
30833W        W47017  14.592  12.033  13.116 -0.0976  0.3157  0.0531
30834W        W47018   1.087   9.733   1.923 -0.0269  0.2035  0.0109
30835W        W47019   6.314   3.874   4.621  0.2890  0.1171  0.1284
30836W        W47020  11.885   0.155   2.891 -0.1974 -0.1062  0.1412
30837W        W47021  11.735   7.209  14.884  0.2719 -0.0264 -0.3004
30838W        W47022  11.496  14.811   4.739 -0.2208 -0.2417  0.0933
30839W        W47023   1.199  17.195   1.363  0.1737  0.1562 -0.2764
30840W        W47024  14.216  13.381   1.068 -0.0697  0.1442  0.2549
30841W        W47025   0.093  10.330  15.992 -0.2218 -0.2896 -0.4552
30842W        W47026   4.229  16.715   0.115  0.2585 -0.0647 -0.2108
30843W        W47027  17.366  17.920   1.484  0.0424  0.0084  0.0604
30844W        W47028  15.677  14.453   5.171  0.1991 -0.1685 -0.1453
30845W        W47029   8.552  15.098   1.624  0.0539 -0.0264  0.2215
30846W        W47030   2.617   3.455  15.680  0.4449  0.1128  0.0309
30847W        W47031  14.516   3.557   3.474 -0.1771 -0.1613 -0.0379
30848W        W47032  17.634   9.394  12.725 -0.0477  0.2682  0.1877
30849W        W47033   5.416  12.135   3.696 -0.0464  0.0606  0.1584
30850W        W47034   6.029   7.168  11.324  0.0215  0.3154  0.1297
30851W        W47035   6.525   8.732   0.952  0.2648  0.1176 -0.0393
30852W        W47036   5.016   2.043   4.857  0.0014 -0.2225 -0.1524
30853W        W47037   0.423   5.293  13.168  0.1570 -0.0239  0.0185
30854W        W47038   9.724   1.552   3.709  0.2872  0.0892  0.1923
30855W        W47039  13.639  16.662  15.272  0.1748 -0.0132  0.0663
30856W        W47040   8.372   0.550   5.314 -0.0423  0.2773 -0.0209
30857W        W47041   5.966   0.038  13.354 -0.3030 -0.0443 -0.2633
30858W        W47042   3.087   6.053  10.981  0.0601  0.1141 -0.2311
30859W        W47043   2.306   0.146  11.448 -0.0441 -0.0737  0.1901
30860W        W47044   4.412  17.770  13.677  0.1348 -0.3725  0.5958
30861W        W47045  15.754  15.264   2.248  0.0226  0.0866 -0.0169
30862W        W47046   9.790   4.892   2.440  0.3224 -0.3421 -0.2336
30863W        W47047  15.815   9.664  11.727  0.1933 -0.0402 -0.0491
30864W        W47048   9.181   1.559   2.468 -0.2448  0.3941 -0.0176
30865W        W47049  15.791  16.797  15.269 -0.2838  0.0897 -0.0655
30866W        W47050  15.586  16.739  12.870  0.0351 -0.0960  0.1192
30867W        W47051   9.391  18.321  15.927  0.2666 -0.1000  0.1611
30868W        W47052  10.551   3.603   4.268  0.0259 -0.1893 -0.1423
30869W        W47053  12.351   6.109   1.087  0.0000 -0.1092 -0.2337
30870W        W47054  14.579   9.341   2.644  0.0836 -0.0163 -0.0243
30871W        W47055   4.601   2.733  15.848 -0.0208 -0.0145  0.4009
30872W        W47056  13.988   8.229   4.341  0.2552  0.3974  0.3232
30873W        W47057   8.322   6.999   1.750  0.1154  0.2172  0.1162
30874W        W47058   3.076   3.961   2.014  0.3728 -0.2158 -0.1132
30875W        W47059   3.547  14.689  11.315 -0.1434  0.1254  0.0631
30876W        W47060  15.317  14.072  15.382  0.2340  0.1552 -0.1252
30877W        W47061   1.686  15.289   0.101  0.1588 -0.1612 -0.1073
30878W        W47062  13.171   6.427   4.717 -0.1034 -0.0421 -0.0948
30879W        W47063  13.687   8.490   2.476 -0.0424  0.0522  0.2255
30880W        W47064   4.422   9.165   4.271 -0.2179 -0.1760  0.1492
30881W        W47065  11.212   2.155   1.375  0.4145 -0.2858  0.1571
30882W        W47066  12.964  16.520   5.740 -0.2509 -0.0133  0.1099
30883W        W47067  17.571  13.707   0.037  0.2181 -0.2736 -0.3980
30884W        W47068   2.234  18.101  10.783 -0.2096  0.1161  0.0997
30885W        W47069   9.478   1.131   2.683 -0.1670  0.0406  0.1415
30886W        W47070  16.342   3.536   3.993  0.1680 -0.0384 -0.1476
30887W        W47071  18.488   8.669   1.683 -0.2792  0.0886 -0.1363
30888W        W47072  10.327  12.974  10.963  0.0161  0.0017 -0.2469
30889W        W47073   7.670  16.132   5.244  0.0983  0.2974 -0.3199
30890W        W47074   4.904  16.485   0.571  0.2026  0.1519 -0.3071
30891W        W47075   3.244  12.464  13.868 -0.1263  0.1144 -0.1973
30892W        W47076   7.321  11.554  11.408 -0.1358  0.2243 -0.0341
30893W        W47077  13.523   4.577  12.305 -0.4944  0.1035  0.2335
30894W        W47078   2.506  14.817   3.849 -0.0509 -0.3158 -0.1893
30895W        W47079  11.137   1.677  14.810 -0.0593  0.0765  0.0821
30896W        W47080   1.317  17.700   1.281 -0.0023  0.3496 -0.0959
30897W        W47081   8.482  14.152  13.772  0.1210  0.1778  0.3187
30898W        W47082  15.011   3.115   5.896  0.1141 -0.2434 -0.1158
30899W        W47083  13.309   7.233   1.333  0.0380 -0.0234  0.0291
30900W        W47084  10.677   4.517  14.443  0.2741 -0.1238  0.2842
30901W        W47085   0.956   7.638   4.604 -0.0172 -0.1796  0.1971
30902W        W47086   9.166   7.678  13.394 -0.1637 -0.0842  0.0479
30903W        W47087  12.144  18.468  15.930 -0.1765 -0.3668  0.0423
30904W        W47088   3.610   5.070   3.192  0.3807 -0.2044  0.0549
30905W        W47089   5.469   0.395   4.084  0.0805 -0.2502  0.2243
30906W        W47090  14.168   8.288   5.333  0.1050  0.0645 -0.0935
30907W        W47091   5.108   6.090  11.853 -0.0447  0.1384  0.1355
30908W        W47092  10.525  13.547   2.153 -0.0041 -0.4260 -0.0785
30909W        W47093  16.037   7.665  12.866  0.0182 -0.4061  0.1903
30910W        W47094  16.932  14.311  12.330 -0.0950  0.4241 -0.0708
30911W        W47095   0.934   4.112  13.344  0.0705  0.0880 -0.0811
30912W        W47096   1.367   3.249   0.252 -0.4691  0.1070  0.3811
30913W        W47097  12.044   2.555   6.204 -0.0430 -0.3173 -0.1598
30914W        W47098  13.468  15.364  13.147 -0.2672  0.1604  0.2725
30915W        W47099   7.738  13.749  15.194  0.1510  0.1482 -0.0601
30916W        W47100   7.002   1.851  15.445 -0.2310  0.1430 -0.0610
30917W        W47101   1.935   3.954   4.362  0.1096 -0.0952 -0.4105
30918W        W47102   3.269   5.654  11.874  0.0707  0.0854 -0.1996
30919W        W47103  14.266  13.178  12.574  0.1288 -0.2001  0.2039
30920W        W47104  18.133   2.734  13.497  0.1072  0.1116  0.1630
30921W        W47105   2.019  16.963  15.860 -0.4428  0.0359 -0.1762
30922W        W47106   7.487  13.909   3.815 -0.1103 -0.1331  0.0046
30923W        W47107   8.260  16.082  12.813 -0.0822 -0.0510 -0.0549
30924W        W47108  10.529  13.088  13.823 -0.0185  0.2298 -0.1945
30925W        W47109   3.140   7.431  10.647 -0.2458  0.1253 -0.0723
30926W        W47110   9.034  17.920  15.931  0.2963 -0.3419  0.0251
30927W        W47111   6.533   7.193  14.256 -0.0760 -0.1286  0.1512
30928W        W47112  17.621  16.308  12.206  0.3419  0.0527  0.1250
30929W        W47113   2.745   1.852  11.272  0.2910  0.0978 -0.0281
30930W        W47114   7.333   4.972   0.839  0.3603  0.3416  0.0918
30931W        W47115  10.034  13.971  12.391 -0.1476  0.3328 -0.3252
30932W        W47116   4.826   5.292   4.929 -0.4219 -0.0433  0.3157
30933W        W47117  10.734  10.536   3.240 -0.3216 -0.0508  0.1596
30934W        W47118   9.424   5.534  13.020  0.0391 -0.2705 -0.2128
30935W        W47119  18.146   0.346   1.684 -0.0348  0.0979  0.2485
30936W        W47120   2.144   0.394  12.762 -0.3812 -0.2148 -0.0583
30937W        W47121   8.369  15.119  15.394 -0.1810  0.2144 -0.1842
30938W        W47122  10.199  11.281  10.969 -0.1478 -0.1245  0.0548
30939W        W47123   8.712  13.470  13.247 -0.2842  0.1781 -0.3166
30940W        W47124   9.502   5.132   0.214  0.2750  0.2759 -0.0781
30941W        W47125  16.351  18.506  15.155  0.1482 -0.2470  0.1216
30942W        W47126   8.518  17.665   4.101  0.1960  0.0104  0.2747
30943W        W47127  15.041   9.097  11.796 -0.0616  0.0215 -0.1880
30944W        W47128   5.356   0.178   4.859  0.0085  0.1015  0.1527
30945W        W47129  18.028   8.886   4.674 -0.2989 -0.1264 -0.0544
30946W        W47130   0.688   9.803   2.362  0.1361  0.1665 -0.1286
30947W        W47131  17.587  18.256   1.156  0.1068 -0.1242 -0.2776
30948W        W47132   6.454   3.550   1.486 -0.0110 -0.0142 -0.2638
30949W        W47133   5.706   4.083   1.273  0.1138 -0.2877  0.0896
30950W        W47134  14.588  10.143  12.735  0.1628  0.0695  0.5483
30951W        W47135  11.999   7.613   0.839 -0.2467  0.1001 -0.0210
30952W        W47136   5.965   3.280   1.601 -0.0927  0.0115 -0.0611
30953W        W47137   0.585   4.335   2.389  0.2433 -0.3387 -0.3897
30954W        W47138   7.309   4.566  15.512 -0.3246 -0.1025 -0.1889
30955W        W47139  11.592  12.075   3.217 -0.0217  0.2188  0.0343
30956W        W47140   0.270  15.679   5.626 -0.0368  0.0965  0.1879
30957W        W47141  12.265   2.270  13.513 -0.0262 -0.1093 -0.0605
30958W        W47142  15.900   3.211  15.558  0.4519 -0.0768 -0.0578
30959W        W47143  14.139  12.760   0.285 -0.1536 -0.0698  0.0596
30960W        W47144  16.174  17.061  11.858  0.0002 -0.0640  0.4599
30961W        W47145   3.451  10.550  10.521  0.1755 -0.1037  0.0723
30962W        W47146   7.080   7.718   4.618 -0.1584  0.3507  0.1803
30963W        W47147   0.641   1.755  12.833 -0.0944  0.0005  0.1647
30964W        W47148   4.645   2.123   0.896 -0.0278 -0.2225 -0.1896
30965W        W47149   9.550   8.906   1.134  0.0018 -0.1097  0.1479
30966W        W47150  11.183   4.488  15.124  0.1389  0.2123  0.3533
30967W        W47151  13.028   1.273   3.429  0.0941 -0.0484  0.1708
30968W        W47152   9.981  16.786  15.150 -0.4301 -0.0337 -0.1169
30969W        W47153  14.734  17.354   1.648 -0.1599 -0.1006 -0.0234
30970W        W47154   9.218  15.164  11.468  0.1516  0.2839 -0.0702
30971W        W47155  17.797   2.578   2.844 -0.1260  0.1950 -0.1478
30972W        W47156  15.492   7.201   0.519  0.0857  0.1511 -0.0964
30973W        W47157   7.770  10.569   5.199 -0.4873 -0.0150 -0.0869
30974W        W47158  14.471   5.917   1.932 -0.1444 -0.1579  0.2326
30975W        W47159  15.161   0.930  16.005  0.2787 -0.1428 -0.1364
30976W        W47160  11.073   0.281   2.488  0.1497  0.0786  0.3615
30977W        W47161   7.902   2.521   0.414 -0.1563 -0.0125 -0.0689
30978W        W47162  10.397   4.244  11.615 -0.0614 -0.2682  0.0399
30979W        W47163  13.238  10.177   2.628  0.1080 -0.0799  0.3792
30980W        W47164   1.571  11.492   4.173 -0.1672 -0.2050 -0.2607
30981W        W47165  13.406   4.018   3.718 -0.0390  0.1667 -0.4156
30982W        W47166  10.504   3.205  12.517  0.1734  0.0261 -0.0491
30983W        W47167   2.038  12.477  14.541  0.0605 -0.0900 -0.0549
30984W        W47168   3.428  12.393  14.372 -0.0602 -0.3195 -0.2449
30985W        W47169   5.814   2.346   1.133  0.5329 -0.0040 -0.1626
30986W        W47170   2.591   6.998   3.823 -0.0476 -0.1833  0.1385
30987W        W47171   8.279   5.442   0.576  0.4480  0.3319 -0.1161
30988W        W47172  14.090   0.110   1.660  0.1373 -0.0338  0.0371
30989W        W47173  12.745  17.365   4.211 -0.3464  0.1984  0.1842
30990W        W47174   4.792  15.530   3.787 -0.2814  0.2361  0.1418
30991W        W47175   6.421  11.782  14.553 -0.3993 -0.2211  0.1871
30992W        W47176   9.237  18.319   1.006  0.3475  0.4302  0.0612
30993W        W47177  13.135   3.583  11.442 -0.3143 -0.1595 -0.3710
30994W        W47178   0.936  11.696  15.447 -0.4432  0.0105 -0.1241
30995W        W47179   5.022  11.888  14.908 -0.0199  0.1751 -0.2783
30996W        W47180   6.783   2.455   4.395 -0.1417  0.0181  0.1267
30997W        W47181   8.179   6.072  13.394  0.0040  0.3195  0.2137
30998W        W47182  13.774  17.524  15.655  0.2954  0.0225  0.0222
30999W        W47183   7.003  16.598  12.598  0.3491  0.2568 -0.2721
31000W        W47184   6.537  13.444  12.491  0.0290  0.0618  0.0175
31001W        W47185  13.081   6.694  11.043 -0.1725 -0.1275  0.0812
31002W        W47186  11.531   2.158   1.966 -0.1729 -0.3249  0.0574
31003W        W47187   1.124   8.562   5.581 -0.0651 -0.0356 -0.1307
31004W        W47188   9.337   6.888   0.541 -0.0553 -0.0331  0.0732
31005W        W47189  15.235  15.952   4.355  0.2796  0.1098 -0.1301
31006W        W47190  14.658  16.845   3.416 -0.2433  0.0416 -0.1870
31007W        W47191   8.126   8.981  15.199  0.3528 -0.2738  0.1966
31008W        W47192   0.049   2.190   0.077  0.0649  0.3016  0.1222
31009W        W47193  14.071   0.920   1.988  0.2876  0.1706 -0.2264
31010W        W47194  17.492   4.324  15.111 -0.1897  0.0579 -0.1158
31011W        W47195  18.258  10.352   0.711 -0.1118  0.1384  0.1187
31012W        W47196   6.163   4.564  13.353 -0.3539  0.1324 -0.0962
31013W        W47197  17.107   9.524  12.993 -0.1233 -0.0998 -0.2846
31014W        W47198  13.005   1.585   2.781 -0.1797 -0.1111 -0.1135
31015W        W47199  13.481  16.912  12.085 -0.1279  0.1197 -0.2554
31016W        W47200   8.186   4.093  14.185  0.1688 -0.0784  0.1277
31017W        W47201   4.349  17.305  10.707 -0.0736 -0.5769 -0.1651
31018W        W47202   8.015   8.112  13.062  0.0461 -0.0101 -0.0482
31019W        W47203   0.504   4.278   3.026 -0.0875  0.1719 -0.2182
31020W        W47204   3.114   3.599  15.102  0.2212 -0.1686 -0.0880
31021W        W47205   2.865  14.995   4.128  0.1252  0.3379 -0.5384
31022W        W47206   3.184   7.345  11.156 -0.0645 -0.1772 -0.1908
31023W        W47207   0.774   6.232  14.711 -0.6080 -0.1899 -0.0936
31024W        W47208   4.841  18.366  11.515  0.2685  0.1907  0.1815
31025W        W47209   2.475  15.847   2.302  0.1564  0.2596  0.1667
31026W        W47210  17.828   9.573  16.118  0.2338 -0.2103  0.0380
31027W        W47211  16.041  15.647   1.893 -0.0150 -0.0892  0.3007
31028W        W47212   4.524   8.540  13.074 -0.0635  0.0532  0.0607
31029W        W47213   3.300  18.211   4.597 -0.3041 -0.0774 -0.2618
31030W        W47214   7.234  15.889   3.841  0.0094 -0.3355 -0.1350
31031W        W47215  16.534  11.074   1.317 -0.2878 -0.2305  0.0059
31032W        W47216   9.862   8.905   1.529  0.0481 -0.4314  0.3324
31033W        W47217   9.485  11.743   2.070 -0.1404 -0.3345 -0.3136
31034W        W47218   5.763   5.279   0.708  0.0948 -0.1784  0.1386
31035W        W47219   0.662   2.004  10.279  0.3120  0.2052  0.0646
31036W        W47220   4.776  14.837  13.681 -0.2202  0.0645 -0.0281
31037W        W47221  16.284  12.976   4.787 -0.0455  0.2374  0.0063
31038W        W47222  14.417  18.128  10.885 -0.2934 -0.0340  0.0053
31039W        W47223   3.518  16.585  15.142  0.1910 -0.0534  0.1900
31040W        W47224  17.386  16.771   4.523  0.1655  0.5615 -0.0274
31041W        W47225   7.386  10.505  13.294 -0.2773  0.0187  0.0454
31042W        W47226  14.011   4.854  12.208 -0.4546 -0.3843 -0.3441
31043W        W47227  15.465  17.605   0.902  0.3718  0.1647 -0.1072
31044W        W47228  17.085   7.651  13.033 -0.1868 -0.2636 -0.3089
31045W        W47229   0.614  14.922  15.479  0.1533 -0.0215 -0.1482
31046W        W47230   3.982  13.900   1.084  0.2832  0.1106  0.0374
31047W        W47231   8.900   7.777   4.830  0.0253 -0.2982 -0.1152
31048W        W47232   5.205   1.661   4.427  0.0314  0.2076 -0.2509
31049W        W47233   8.589  16.417  12.218 -0.1457 -0.0711  0.1538
31050W        W47234   7.249   3.390  15.789 -0.2308 -0.1078  0.2462
31051W        W47235   5.512   4.058  15.605  0.1864 -0.0141  0.1830
31052W        W47236   5.629   0.412   5.767 -0.0260 -0.0159 -0.1617
31053W        W47237  13.150   3.678   4.636  0.0785 -0.4210 -0.0182
31054W        W47238   7.086   4.992   2.899 -0.2607 -0.0459  0.4672
31055W        W47239  15.994  10.743  12.147 -0.3215  0.1595 -0.1629
31056W        W47240  16.707   2.698   2.959  0.1406 -0.2706 -0.2353
31057W        W47241  16.792  14.824  11.770  0.1595 -0.0496  0.0046
31058W        W47242  16.855   6.970   2.737  0.0863  0.5766 -0.1960
31059W        W47243  12.745  13.348  11.859  0.2714 -0.0065 -0.2237
31060W        W47244   6.704   2.831  12.149 -0.0253 -0.0278  0.1153
31061W        W47245   0.932   5.321   3.091 -0.1664  0.1075  0.0757
31062W        W47246   3.482   0.776   5.587 -0.0327 -0.0218 -0.0462
31063W        W47247   3.962   9.055   1.764 -0.0701 -0.2427  0.1261
31064W        W47248  13.620  16.441  10.291 -0.3669  0.0720  0.1396
31065W        W47249   3.812  12.892   2.221 -0.2588  0.0699 -0.0583
31066W        W47250  14.837   4.161  13.207 -0.1564  0.0008 -0.2068
31067W        W47251  12.711  12.320  11.786 -0.0971  0.1205  0.1899
31068W        W47252  10.670  17.187  13.538 -0.0260 -0.0152 -0.0559
31069W        W47253   1.197  15.361  14.535  0.1358  0.0491  0.3818
31070W        W47254   9.952   6.369   1.050  0.1562  0.0159  0.2130
31071W        W47255  18.146   9.868  13.052 -0.0687  0.1578 -0.1357
31072W        W47256   7.304   8.940   1.577 -0.3159 -0.0857  0.1901
31073W        W47257   2.318   0.703  13.110 -0.0169 -0.1377  0.2897
31074W        W47258  13.604   7.909   2.271  0.1548 -0.2202  0.0559
31075W        W47259   1.352   2.838  11.569 -0.2972 -0.1627 -0.2686
31076W        W47260   6.628  12.749  14.192 -0.3576 -0.3149  0.0105
31077W        W47261   4.856   2.442  15.257 -0.1558  0.0015 -0.2552
31078W        W47262  12.692   7.705  12.342 -0.1770 -0.0062 -0.0448
31079W        W47263   2.996  17.867   0.917  0.0889  0.1865 -0.1160
31080W        W47264   3.477   5.613  15.402 -0.2761  0.0261 -0.1438
31081W        W47265   4.871   3.864  13.505  0.2380  0.0522 -0.0803
31082W        W47266   6.657   4.620  13.086 -0.1720  0.1522  0.3677
31083W        W47267   9.583   0.222   4.379 -0.0659  0.0607  0.0706
31084W        W47268  11.248   7.145  12.144 -0.0559 -0.0856 -0.0457
31085W        W47269  14.313   6.267  11.302 -0.0749 -0.1294  0.0477
31086W        W47270  16.454  10.909   3.379 -0.1082  0.0674  0.0852
31087W        W47271  17.917  11.212   3.437 -0.1237 -0.3356 -0.0744
31088W        W47272  14.673   2.037   3.593 -0.0221  0.1732 -0.2561
31089W        W47273   8.569   6.832  15.445  0.0005 -0.1227  0.2380
31090W        W47274  14.991  18.491  11.854 -0.0697  0.2439 -0.1931
31091W        W47275   4.704   1.421   0.582 -0.0030  0.0300  0.2973
31092W        W47276  12.376  17.694   2.019  0.2752  0.2811  0.0977
31093W        W47277   7.820  13.549  13.396  0.0612  0.0819 -0.1382
31094W        W47278  11.766  10.912  16.091 -0.0164 -0.0461  0.0252
31095W        W47279   9.297  12.586  15.218  0.2030 -0.1461  0.1885
31096W        W47280   2.822  16.468   0.549 -0.1764 -0.1076  0.1999
31097W        W47281   8.978   3.914  12.408  0.2173 -0.1825 -0.1662
31098W        W47282  11.068   5.339   2.547  0.0517  0.0085 -0.3133
31099W        W47283  17.963   3.949  13.150  0.2601  0.2634  0.0309
31100W        W47284  15.045  15.116  13.540  0.1278 -0.3641  0.0056
31101W        W47285   3.238   1.757  11.162  0.5254 -0.0488  0.0830
31102W        W47286   1.906  14.658   2.250  0.0215 -0.1166  0.1205
31103W        W47287  11.918  15.364  13.552 -0.0563  0.1171  0.0396
31104W        W47288   0.723  14.084  13.457  0.0588  0.2888 -0.2905
31105W        W47289   5.441  16.839  12.520 -0.0056 -0.0027  0.1042
31106W        W47290   2.157  14.954  15.706  0.0406  0.3178  0.0601
31107W        W47291  14.261  15.577   3.910  0.0272 -0.1223  0.1990
31108W        W47292  13.264   5.315   2.062  0.0076  0.2369  0.2224
31109W        W47293  12.516   5.927   4.372 -0.0359 -0.0503  0.2116
31110W        W47294   3.781  17.991   2.045 -0.0252  0.2423  0.1139
31111W        W47295   4.087   5.406  15.632 -0.0644  0.4797  0.0357
31112W        W47296  16.032   2.386  12.603 -0.1397 -0.1752  0.2324
31113W        W47297   0.724  17.597  13.717 -0.1008  0.4089  0.1914
31114W        W47298  16.987   0.362   0.188 -0.3098 -0.1432  0.0035
31115W        W47299   1.935   0.783   5.431  0.1336  0.3458  0.2460
31116W        W47300   1.095   5.774  13.490 -0.1226  0.1940 -0.1448
31117W        W47301   7.178   7.465   2.932  0.2254  0.0984  0.2556
31118W        W47302   1.373   7.728   5.723  0.0897 -0.0566 -0.0256
31119W        W47303  17.568   1.696   4.667  0.1201  0.0967 -0.0477
31120W        W47304  11.845  10.043   1.659  0.1863  0.1179 -0.1606
31121W        W47305   1.616   9.360   3.500  0.0419  0.1373  0.0825
31122W        W47306   5.644   2.240   0.630 -0.0057  0.1745 -0.0659
31123W        W47307  18.208  15.849  13.407  0.0075 -0.0429  0.1148
31124W        W47308  14.728  16.088   5.278  0.1411 -0.1055 -0.2290
31125W        W47309   0.516  13.508   2.904 -0.1749  0.1097  0.0095
31126W        W47310   9.423  12.652   2.354 -0.0793 -0.1593  0.0976
31127W        W47311  16.375   7.162   1.966 -0.0842  0.1606  0.0244
31128W        W47312   6.531   8.255  16.041 -0.0127 -0.0726 -0.2466
31129W        W47313   9.254   0.540   2.597 -0.0689 -0.3864 -0.0080
31130W        W47314   7.378  16.229  15.273  0.3721 -0.0604 -0.0362
31131W        W47315   3.049   1.525  12.212  0.2531 -0.1353 -0.1715
31132W        W47316  10.609   3.694  12.229  0.1900  0.0076  0.1930
31133W        W47317   2.507   7.021   4.508 -0.1099 -0.0598 -0.0867
31134W        W47318   9.644   7.626   1.192  0.3614 -0.0626  0.0895
31135W        W47319  13.758  18.316  14.290  0.0952 -0.0803  0.0677
31136W        W47320  11.422   5.994   2.706  0.1995 -0.0225  0.0024
31137W        W47321  16.303   3.065  11.578  0.1476  0.1251 -0.1322
31138W        W47322  15.803  16.733  13.820 -0.1754 -0.0097 -0.0563
31139W        W47323   0.566   2.431  13.524 -0.0263  0.1324  0.0956
31140W        W47324   5.427  10.183  12.770  0.0428  0.0109  0.5165
31141W        W47325  16.987   9.316  15.766  0.2360  0.3158  0.2538
31142W        W47326  18.183  14.356  13.560 -0.2221  0.1883  0.1325
31143W        W47327   5.608   2.007  13.374  0.0706 -0.0371  0.1315
31144W        W47328   4.202  17.644   1.068  0.2981  0.3401  0.1306
31145W        W47329   4.598  17.487  14.745 -0.1596  0.4496  0.2261
31146W        W47330   1.153  13.928  12.000  0.0123  0.1458  0.2059
31147W        W47331  15.869  15.145   2.731 -0.0409  0.1034  0.2562
31148W        W47332  17.252  13.122  13.275  0.3118 -0.2760 -0.1317
31149W        W47333   0.398  12.493  14.252 -0.0682 -0.1186  0.0532
31150W        W47334   3.833  16.408   1.309 -0.0913  0.0225  0.0021
31151W        W47335  12.806   6.492   2.465  0.0001  0.0587  0.3577
31152W        W47336   3.774  14.805  14.334 -0.0385 -0.0850  0.1075
31153W        W47337   5.568   4.046   0.289  0.1030 -0.0870 -0.0490
31154W        W47338  11.075  16.521   2.283 -0.0809  0.2515  0.0284
31155W        W47339   5.170   1.341   3.439  0.1227  0.2413  0.0916
31156W        W47340  17.152  12.931   1.818 -0.0663  0.3870 -0.2859
31157W        W47341  10.199   3.390  14.060  0.0697 -0.1245  0.5665
31158W        W47342   4.720   1.249  12.038 -0.0444  0.0586  0.3089
31159W        W47343   2.658  10.004  11.765  0.1713 -0.1372 -0.1809
31160W        W47344   5.681   6.252   4.917 -0.1584 -0.2411 -0.0023
31161W        W47345   6.326  10.365  11.379 -0.1017 -0.2323  0.0179
31162W        W47346   5.102  17.833   2.886  0.3043 -0.2352  0.1836
31163W        W47347   4.670  14.353  13.517 -0.0645 -0.0295 -0.0519
31164W        W47348  15.997   5.909  13.016  0.0270 -0.1520 -0.0075
31165W        W47349  16.254  16.646  13.519  0.0749  0.0880  0.0678
31166W        W47350  17.356   0.798   1.965 -0.1477  0.2491 -0.0071
31167W        W47351  12.788  12.376  12.266  0.2631  0.0436  0.2447
31168W        W47352  17.660  11.362   4.362 -0.0769  0.1084  0.1158
31169W        W47353  18.071   9.954   1.248  0.1522  0.0816  0.1891
31170W        W47354  16.543   3.385  12.097 -0.0845  0.0609 -0.3038
31171W        W47355   1.896  13.228   4.070  0.1880  0.0836 -0.4634
31172W        W47356  13.695  13.347   5.501  0.0543 -0.0393  0.2716
31173W        W47357   5.076   4.011  14.486  0.1526  0.0180 -0.1030
31174W        W47358   8.562   9.934   0.078  0.1217  0.1893  0.2887
31175W        W47359  17.782  16.272   2.507  0.1209 -0.1751 -0.4992
31176W        W47360  15.040  16.929  12.215  0.0825  0.0873 -0.4778
31177W        W47361  18.516   6.325   2.369  0.1372  0.2481 -0.0436
31178W        W47362  13.864   1.827  14.055  0.0929  0.0276  0.0736
31179W        W47363   2.249  10.798  11.684  0.1983  0.0840 -0.0988
31180W        W47364  18.092  15.950  15.772 -0.0635 -0.3659  0.0302
31181W        W47365   2.318   2.795  10.595 -0.1612  0.3337  0.0442
31182W        W47366   9.085   8.817   3.172  0.2219 -0.1643  0.0011
31183W        W47367  14.081  15.768  15.511  0.2487 -0.1276 -0.1260
31184W        W47368  17.800   1.948  15.205  0.0963 -0.0027 -0.0440
31185W        W47369  12.668   2.697  13.473  0.1687  0.1372 -0.1645
31186W        W47370  13.176  11.701  13.119 -0.0805 -0.0508 -0.1284
31187W        W47371  12.293  11.139  11.620  0.1552 -0.0497 -0.0161
31188W        W47372   1.510  16.559  15.821  0.1255  0.1931 -0.0147
31189W        W47373   4.596   9.439  12.613 -0.1298  0.0666 -0.4516
31190W        W47374  14.841  12.481   1.690  0.0786 -0.2254 -0.0315
31191W        W47375  12.501  14.394   5.227 -0.2458 -0.0814  0.0776
31192W        W47376   3.048  11.305  12.968  0.0902  0.0286  0.0374
31193W        W47377   9.884   1.207  11.375  0.0777  0.0862 -0.1378
31194W        W47378  17.816   8.115  14.271  0.1507 -0.2940 -0.2386
31195W        W47379   2.277   9.664  16.063 -0.4620  0.2924  0.1145
31196W        W47380   3.623   1.072  12.676  0.0882 -0.0407  0.0547
31197W        W47381   8.298   1.590  10.132  0.2566  0.0761 -0.0620
31198W        W47382  11.611   2.808   4.090 -0.0379  0.0961 -0.0404
31199W        W47383  11.543  11.528   3.063 -0.0591  0.1056  0.0024
31200W        W47384   6.612   2.853  12.662 -0.1821  0.0597 -0.0888
31201W        W47385   4.420  10.507   1.808  0.1095  0.1551 -0.0336
31202W        W47386  10.259   9.438   3.995  0.0473  0.0705 -0.2749
31203W        W47387   2.591   8.744   0.331 -0.0601 -0.5681 -0.0108
31204W        W47388  14.266  12.004  14.954  0.3030 -0.2864  0.0985
31205W        W47389   1.112  16.086  13.797 -0.1258  0.1787 -0.1177
31206W        W47390   0.384   3.702  11.526 -0.0311  0.1222  0.0462
31207W        W47391   6.841  16.425  14.397  0.0227 -0.1052  0.1395
31208W        W47392   3.803   7.693  11.859  0.1607  0.0300  0.0775
31209W        W47393  11.951  12.629   3.466  0.0041 -0.0164 -0.1656
31210W        W47394  15.229   7.899  12.229 -0.0866  0.2132 -0.2777
31211W        W47395  14.071  17.497  11.410  0.0537  0.1071  0.4021
31212W        W47396  10.948  17.535   4.998  0.3945  0.1970  0.1475
31213W        W47397  13.539  14.766   3.388  0.5301 -0.0633 -0.0836
31214W        W47398  12.000   1.643  12.747 -0.2576  0.0325 -0.2097
31215W        W47399  10.652  16.556   2.519  0.0574  0.1435 -0.0009
31216W        W47400   7.483   6.122  15.862  0.0679 -0.2082  0.3782
31217W        W47401   2.849  16.684  13.616  0.1743  0.1280 -0.2418
31218W        W47402  14.187  12.068   3.875  0.0619 -0.1800  0.0205
31219W        W47403   6.816   5.779  12.946 -0.0691 -0.3578 -0.1101
31220W        W47404  12.125  14.316   4.395 -0.1885 -0.0478 -0.2831
31221W        W47405  10.018  12.070  14.688 -0.1113 -0.0841 -0.0964
31222W        W47406   0.857   4.172   0.383 -0.2684 -0.0520 -0.2086
31223W        W47407   5.930   7.035   0.354  0.0210 -0.1282 -0.0587
31224W        W47408  15.201   2.248  15.014  0.0365 -0.0215 -0.1554
31225W        W47409  17.564  11.921   3.882  0.0070  0.1776  0.0888
31226W        W47410   3.943  16.534  11.351 -0.1801  0.0980  0.0450
31227W        W47411   5.261   4.440   0.380 -0.1219  0.2734 -0.0589
31228W        W47412   9.645  16.781  12.776 -0.0779  0.0882  0.1264
31229W        W47413   1.354   2.322   9.640  0.3258  0.0446 -0.2198
31230W        W47414   5.624   4.787  14.514  0.0189  0.1235 -0.1493
31231W        W47415  16.951  18.284  15.178  0.5885  0.1504  0.0011
31232W        W47416   5.089  16.747   1.621 -0.1525  0.2169 -0.3223
31233W        W47417  11.465   6.204  14.532 -0.0121 -0.1146  0.1490
31234W        W47418   1.381   5.854   1.107  0.0327  0.0106  0.3239
31235W        W47419  16.614   8.235   3.334  0.1047  0.0548 -0.0781
31236W        W47420   1.253  13.317   1.758 -0.1616  0.2226  0.2328
31237W        W47421   3.407   8.739  12.052 -0.2099  0.1089 -0.1096
31238W        W47422  13.550   5.722  10.373 -0.1690  0.1221 -0.2597
31239W        W47423  17.503  15.724  12.846 -0.1874  0.4398 -0.1796
31240W        W47424  16.561   5.077   4.312 -0.0483 -0.2863 -0.1444
31241W        W47425   5.150   7.446   2.009 -0.0974  0.0703  0.1462
31242W        W47426   9.858   8.949  14.174 -0.1563  0.0644 -0.3221
31243W        W47427  17.656  11.049  12.592 -0.1372  0.0414 -0.0438
31244W        W47428   0.719  11.253  15.971 -0.1534  0.0020  0.3296
31245W        W47429  14.427   1.688  14.989 -0.0446  0.0019  0.0298
31246W        W47430  15.567   7.609  12.899 -0.1937  0.4744 -0.1029
31247W        W47431   8.680  10.161  14.786  0.0162 -0.0213  0.0358
31248W        W47432  11.874   2.480  15.272 -0.0628  0.0842 -0.0799
31249W        W47433   7.230   7.450   3.441 -0.2414 -0.2601  0.0737
31250W        W47434  15.420   1.618  12.883 -0.1342 -0.1792  0.3141
31251W        W47435   1.789  17.878  11.564  0.5196  0.1401 -0.0082
31252W        W47436  11.517   3.327  15.267  0.1660  0.2858 -0.1275
31253W        W47437  15.000   4.818   5.982 -0.0967 -0.1556  0.3794
31254W        W47438  17.704  15.234   1.643  0.1717  0.4826 -0.2875
31255W        W47439  18.369  17.437   1.367 -0.0176 -0.1333  0.2053
31256W        W47440  16.366   6.498   1.999  0.0747 -0.1881 -0.1598
31257W        W47441   0.833   9.216  10.358 -0.2445  0.2292 -0.2836
31258W        W47442   0.781   9.933  12.067  0.2187  0.2074  0.1561
31259W        W47443  12.618   6.278   5.748 -0.0759  0.1820  0.0984
31260W        W47444  13.046  16.204   5.037  0.1801 -0.2068  0.1005
31261W        W47445   3.921  13.703  11.678 -0.3365  0.0520  0.1114
31262W        W47446   3.504   2.332  14.180  0.2649  0.0885  0.0283
31263W        W47447   0.529  15.120   3.134 -0.2152 -0.0141  0.0000
31264W        W47448   3.944  15.699  11.649  0.2113  0.0239 -0.1684
31265W        W47449   5.313   5.366  14.514 -0.3890  0.4073  0.0738
31266W        W47450  10.256   6.807   1.965 -0.1548 -0.0995  0.1288
31267W        W47451  12.720   7.735  15.965 -0.1828  0.0687  0.2267
31268W        W47452   8.927   1.516  11.717  0.0581 -0.1074  0.0440
31269W        W47453  14.443  18.075  15.063 -0.2979  0.2721 -0.1762
31270W        W47454   5.525  17.870   1.373 -0.3245 -0.3543  0.2186
31271W        W47455   5.325  15.721  12.787  0.3274  0.0257 -0.0743
31272W        W47456  10.523  12.226  14.599 -0.1764  0.1232  0.1828
31273W        W47457   0.034   2.692   0.075 -0.0551 -0.0705 -0.1361
31274W        W47458   8.799   1.539  12.777  0.0896 -0.1587  0.0472
31275W        W47459   9.403   6.479  12.648  0.0073  0.0129  0.3318
31276W        W47460  12.530   4.590  13.140  0.0052  0.1784  0.1397
31277W        W47461  16.045   0.311  11.329 -0.2696 -0.2291  0.2436
31278W        W47462  11.884   9.531   3.824  0.1196 -0.1324  0.0861
31279W        W47463   6.282   7.422   1.328 -0.1427 -0.1896 -0.3910
31280W        W47464   8.686  13.619  13.724  0.1688  0.1147 -0.2839
31281W        W47465  17.233   2.874   9.461  0.2405 -0.0949 -0.1570
31282W        W47466  13.979  10.967  14.497 -0.5336  0.2210 -0.2570
31283W        W47467   5.212   6.681  13.787 -0.1586 -0.1215  0.0492
31284W        W47468  13.946   7.984   2.652 -0.0183  0.3343  0.2544
31285W        W47469   0.985   5.967   2.383  0.0875 -0.1244 -0.0846
31286W        W47470   7.853  11.516  13.105 -0.4317 -0.1370  0.2918
31287W        W47471   3.458   2.133   2.739 -0.1455  0.2068  0.0454
31288W        W47472  11.855   0.219  14.241 -0.2643 -0.3526 -0.1461
31289W        W47473  16.341  16.567   2.127 -0.1479  0.2789  0.2237
31290W        W47474   2.712  14.413  12.506 -0.1410  0.2478 -0.0853
31291W        W47475   2.089  17.250   2.672 -0.1352  0.0851  0.1340
31292W        W47476   6.171  16.054   5.964  0.0719  0.1815 -0.0471
31293W        W47477  11.529   5.463   1.822 -0.1453  0.3535 -0.3592
31294W        W47478   1.555   0.223   3.417 -0.0491 -0.1032 -0.3811
31295W        W47479  10.404   8.982   4.292  0.1990 -0.0248 -0.1844
31296W        W47480   8.573   9.742   3.964 -0.1110 -0.0089  0.1427
31297W        W47481   3.074  14.961  13.234  0.2088  0.0519 -0.1333
31298W        W47482   1.083   8.438   1.352  0.0283  0.1429  0.0236
31299W        W47483  14.174   0.937   4.796 -0.0341  0.1857  0.0197
31300W        W47484   2.306   1.900   0.127  0.0951 -0.2046  0.1929
31301W        W47485  10.443   0.103  13.094  0.3844 -0.0928  0.1855
31302W        W47486   9.228  17.855   2.552 -0.1649 -0.0346  0.0836
31303W        W47487   1.585  10.499   3.772 -0.0578 -0.1022 -0.1845
31304W        W47488   1.806  13.214   3.051 -0.0778 -0.0228  0.1731
31305W        W47489   3.580  18.323   4.217 -0.1726 -0.3484 -0.1897
31306W        W47490   3.256   5.145   2.008 -0.0399 -0.0384 -0.0451
31307W        W47491   6.053   2.396   5.501  0.0196 -0.1101 -0.2432
31308W        W47492   0.417  17.057  15.638  0.0567  0.0609  0.0716
31309W        W47493   7.518   4.730   2.249  0.0383  0.0244  0.1613
31310W        W47494   0.019  14.546  13.124 -0.3566 -0.1833  0.2883
31311W        W47495  10.525   9.475   2.612  0.2056 -0.1369 -0.2379
31312W        W47496  13.012  12.131   2.225 -0.0456  0.3096  0.0376
31313W        W47497  14.024   9.818   4.095  0.2250  0.0376  0.0332
31314W        W47498   9.387  11.693  11.772  0.0702 -0.0902 -0.2072
31315W        W47499   0.988  11.053   1.893  0.2236  0.1685 -0.0287
31316W        W47500   3.323   3.076   4.417 -0.1681 -0.0159  0.2090
31317W        W47501  12.143   4.771  11.975 -0.0049  0.2604 -0.3790
31318W        W47502  11.750   3.271  14.049  0.2135 -0.1317  0.2409
31319W        W47503  12.456  13.228   2.627  0.0413 -0.0953  0.0888
31320W        W47504  16.613   1.190   1.669 -0.1961 -0.0528 -0.1434
31321W        W47505  17.165   6.420  14.838  0.3256 -0.1794 -0.1234
31322W        W47506  13.018  12.713   5.792 -0.0687  0.1582 -0.2369
31323W        W47507   6.746  13.436   5.013  0.2306 -0.1321 -0.0140
31324W        W47508   3.802  17.545  12.506 -0.6153  0.1186 -0.0488
31325W        W47509  14.556  11.083  14.654  0.1115  0.4483  0.0320
31326W        W47510  14.112  17.431   2.255 -0.0397  0.1611 -0.1570
31327W        W47511   9.134   6.356  13.081 -0.0522  0.0416  0.0114
31328W        W47512  15.801  16.448   3.087  0.1660  0.0134 -0.1793
31329W        W47513  11.276   8.278  12.038  0.1610 -0.4297 -0.0352
31330W        W47514   2.788  10.152   2.489 -0.0023 -0.2008 -0.0665
31331W        W47515  10.920  15.103   2.140 -0.2444 -0.0048 -0.0693
31332W        W47516   3.304   1.605   2.802 -0.2052  0.0586 -0.3356
31333W        W47517  16.244   8.182  14.116 -0.1234 -0.1303  0.2831
31334W        W47518   1.664   0.683   4.163  0.4539 -0.1123 -0.0571
31335W        W47519   7.006   3.959  13.369 -0.1952  0.0168  0.0468
31336W        W47520   4.323   3.508   0.776 -0.0056  0.0791  0.1455
31337W        W47521   9.218   7.706   5.280 -0.2512 -0.1079  0.0617
31338W        W47522   8.552   4.090  12.701 -0.0902  0.1496  0.1899
31339W        W47523   2.101   7.249   4.610 -0.1746  0.1247 -0.1549
31340W        W47524  16.493  11.011   2.839 -0.2293 -0.3528  0.0045
31341W        W47525   0.957  16.019  11.258  0.0065  0.1555 -0.0425
31342W        W47526  14.369  10.149   2.015 -0.0022  0.4109 -0.2792
31343W        W47527  11.193   6.027   0.372 -0.0791  0.0134  0.1610
31344W        W47528   2.677   8.723   4.159  0.0082 -0.3635  0.0940
31345W        W47529  15.300  16.810  11.835 -0.0745  0.0635 -0.1842
31346W        W47530  12.689   2.741  14.794 -0.0778 -0.0784 -0.0849
31347W        W47531   3.763  11.401  10.634 -0.0268  0.0569  0.0024
31348W        W47532   0.399  11.584  15.155  0.0471 -0.2161  0.2355
31349W        W47533   1.894   4.902   0.235  0.0841  0.1227  0.2531
31350W        W47534   1.469   0.689   4.746 -0.2479 -0.0639 -0.0891
31351W        W47535   6.627   5.820   4.681 -0.0538 -0.3956  0.1949
31352W        W47536  11.827  13.690   3.534 -0.0816 -0.0123 -0.0555
31353W        W47537  10.589   6.497  14.811  0.1757  0.1136  0.1019
31354W        W47538   9.438   9.102   0.066 -0.0284  0.0876  0.0434
31355W        W47539   5.161  14.511   5.347  0.2070 -0.3126  0.0122
31356W        W47540   8.122   9.736   2.342  0.1735  0.1655 -0.2327
31357W        W47541   3.523  13.254   0.479 -0.2147 -0.0329 -0.0442
31358W        W47542   4.258  10.104   5.156 -0.0177 -0.4501 -0.0242
31359W        W47543  11.585   8.960   5.522 -0.0837 -0.2966 -0.0386
31360W        W47544   2.937  18.076  12.469  0.0709  0.2217  0.2211
31361W        W47545  15.627   8.058  15.776  0.1799 -0.1089  0.2370
31362W        W47546  12.708   0.222   3.427 -0.1800 -0.1206 -0.0092
31363W        W47547  13.853   0.696   2.415 -0.1995  0.5076  0.3716
31364W        W47548  13.023  17.383  12.701 -0.0585  0.2574  0.0952
31365W        W47549  10.655   1.857  11.077  0.0225  0.1644  0.1023
31366W        W47550  13.751   4.185  11.992  0.0929  0.0197 -0.0732
31367W        W47551  12.916  16.915   2.016 -0.1678  0.0299 -0.1811
31368W        W47552  17.786   5.267   2.465  0.1694  0.1347 -0.0088
31369W        W47553   7.006  10.107  12.661 -0.2166  0.1953 -0.3583
31370W        W47554  15.729   8.740   1.046 -0.1322  0.0401 -0.0438
31371W        W47555   6.812   4.203   5.874  0.0368  0.1715  0.1791
31372W        W47556  12.549  17.935   3.106  0.3214 -0.1166  0.1182
31373W        W47557   1.528   4.463  16.125 -0.1334 -0.5287 -0.0826
31374W        W47558   9.961   9.190   3.483  0.1323 -0.0726 -0.1908
31375W        W47559  15.019  12.321  12.964 -0.0330  0.0388  0.1950
31376W        W47560   0.196   4.329   3.722  0.2589 -0.3852 -0.1662
31377W        W47561  17.413   2.119   1.492  0.1394 -0.0545 -0.0893
31378W        W47562  16.855   7.524   2.603 -0.0553  0.2222 -0.0449
31379W        W47563   1.214  10.848   4.306  0.0877 -0.2499 -0.1859
31380W        W47564  13.066  12.338  15.445 -0.1098 -0.1318 -0.0579
31381W        W47565  12.989   3.458   2.313 -0.0930  0.1147  0.3180
31382W        W47566   3.984   1.028   3.555  0.0931 -0.0531 -0.2507
31383W        W47567   8.629   7.281  12.100 -0.1112  0.1488  0.2096
31384W        W47568   5.474  15.765   5.028 -0.0020  0.2248 -0.0295
31385W        W47569   9.090   6.689  11.932 -0.0044  0.1115  0.0194
31386W        W47570   1.779   0.737  15.967  0.1700 -0.3410  0.2413
31387W        W47571   3.755   9.242   5.740  0.3311  0.0169  0.0243
31388W        W47572   6.122   6.424  14.422  0.0197  0.2206 -0.1897
31389W        W47573   9.437   8.068  14.132 -0.1861  0.1921  0.1336
31390W        W47574  11.482   0.674  13.523 -0.1382  0.0927 -0.1571
31391W        W47575  15.615   8.610   2.322  0.0706  0.0651 -0.3818
31392W        W47576  17.661   5.871  10.871  0.0490 -0.0616  0.2365
31393W        W47577   7.305  11.801   5.054 -0.0929  0.0876  0.0519
31394W        W47578  14.938  15.528  12.007 -0.0581  0.1992  0.3003
31395W        W47579  14.861   9.583  15.813  0.1471 -0.0956 -0.0282
31396W        W47580  18.129  17.212   3.647  0.0591  0.1593 -0.1977
31397W        W47581   7.525   4.437  12.410  0.2656 -0.3791  0.2422
31398W        W47582   3.949  17.566  11.540 -0.0261 -0.2469 -0.2443
31399W        W47583  18.309   7.679  11.533  0.1882 -0.3343  0.1955
31400W        W47584   0.862   4.994  10.429  0.0531  0.2549 -0.2796
31401W        W47585   1.375   0.285   4.225  0.2228 -0.0896 -0.0470
31402W        W47586   8.171  14.017  13.296 -0.1528  0.1696 -0.3143
31403W        W47587   6.841  15.494   1.157 -0.1987  0.4283  0.1660
31404W        W47588  13.070   7.521   3.497  0.1626  0.2361  0.0241
31405W        W47589   5.213  11.118   2.560 -0.0811 -0.3976  0.2243
31406W        W47590   3.293  17.297  12.856 -0.2414 -0.1885  0.0720
31407W        W47591  13.889  11.115  12.847  0.0856  0.3436 -0.0716
31408W        W47592   7.790  14.091  14.823 -0.0834  0.2647  0.1709
31409W        W47593  12.945   5.222   2.626 -0.1350  0.0363 -0.0776
31410W        W47594   4.861  10.783   5.375  0.0293  0.3165  0.0164
31411W        W47595   9.897  10.038  12.321  0.2242  0.1588  0.0062
31412W        W47596   4.663  18.273   4.889 -0.0297 -0.1460  0.0134
31413W        W47597  16.985  12.123   5.520  0.0222 -0.0434  0.0107
31414W        W47598   1.164  11.728   2.036 -0.1115 -0.2734  0.0840
31415W        W47599   0.601   6.747   4.548  0.0615 -0.0751  0.1652
31416W        W47600   5.193  17.636   4.229  0.0560 -0.1463  0.1343
31417W        W47601  15.225  17.997   5.828 -0.0069 -0.3564 -0.0987
31418W        W47602  12.199  14.063   0.175  0.3249 -0.0162  0.2059
31419W        W47603  17.508  15.119   0.342  0.1456  0.3240 -0.2493
31420W        W47604   2.709   9.455   2.176 -0.1731  0.1810 -0.0581
31421W        W47605   9.463  17.376  15.381  0.2995  0.0648 -0.1295
31422W        W47606   7.865  14.409   3.173 -0.0408 -0.0405 -0.0713
31423W        W47607  15.684   5.491  13.036 -0.1137 -0.4058 -0.2637
31424W        W47608   1.458   0.160   2.974 -0.2200  0.1163  0.0925
31425W        W47609   0.307   0.594   0.631 -0.1166 -0.3477  0.0760
31426W        W47610  18.197   0.218  14.529 -0.1184 -0.0618  0.3198
31427W        W47611  14.105  12.125  15.412  0.3922  0.0512 -0.0912
31428W        W47612  15.674   9.382  14.862 -0.0056  0.2006 -0.1531
31429W        W47613  11.469   4.077  14.375  0.1000 -0.0475  0.0035
31430W        W47614   0.832  12.615  10.645 -0.0916 -0.0900  0.1771
31431W        W47615   9.578  13.999  13.399  0.0212 -0.0828 -0.2032
31432W        W47616  17.707  10.209  13.148 -0.0483  0.1640  0.0809
31433W        W47617  12.882  17.818   6.227  0.1555  0.1613  0.2055
31434W        W47618   9.487   8.707   2.699 -0.2765  0.3173  0.2297
31435W        W47619   3.976   9.754   3.199 -0.2924 -0.2881  0.1298
31436W        W47620  15.136   5.601   2.734  0.0102  0.0136  0.2176
31437W        W47621  15.328   7.985   3.746  0.0459 -0.0124  0.1375
31438W        W47622  10.243   9.888   0.295 -0.1967  0.0634 -0.0712
31439W        W47623   2.073  13.414   2.082 -0.0471  0.0869  0.2542
31440W        W47624   5.869  15.955  11.497  0.0306 -0.1379 -0.1829
31441W        W47625   1.362  18.041  15.073  0.2699  0.0278 -0.1252
31442W        W47626  15.391   1.438  15.065 -0.0414  0.0144  0.1647
31443W        W47627   1.934   8.526   2.349 -0.2335  0.0953 -0.2566
31444W        W47628   5.370   4.137  11.254 -0.0584  0.3869  0.0755
31445W        W47629   6.227   8.114   4.360 -0.2172 -0.4106  0.2260
31446W        W47630  14.169  14.498   0.541 -0.0425 -0.1426 -0.0409
31447W        W47631  16.911   0.189   2.516  0.1379  0.0985 -0.0482
31448W        W47632   5.227   5.067   6.116  0.0282 -0.0914  0.1483
31449W        W47633  11.317  12.470   4.752  0.1548 -0.2413 -0.2319
31450W        W47634  15.938  16.695   0.766  0.2854 -0.4587  0.1059
31451W        W47635  14.553   4.867   1.976  0.2580 -0.1129 -0.1168
31452W        W47636   5.482  15.047   3.681  0.1900  0.4206 -0.1883
31453W        W47637   3.088   3.226  15.515  0.2562 -0.0051 -0.1895
31454W        W47638   4.905   4.775   3.623  0.0140  0.0750  0.2586
31455W        W47639  11.433  12.837  14.691  0.0627 -0.2931 -0.2754
31456W        W47640   6.347   2.911   0.358 -0.2104 -0.1618  0.2926
31457W        W47641   7.650  10.503   2.772 -0.2852  0.1253 -0.2046
31458W        W47642  12.687  15.443  15.008  0.2004 -0.0004 -0.0551
31459W        W47643  17.487   1.517   0.663 -0.0030 -0.1447  0.0300
31460W        W47644  13.394   2.940  11.380  0.2351 -0.0340  0.1078
31461W        W47645   2.217   9.577   2.116  0.2342  0.0380 -0.1685
31462W        W47646   9.216   6.815   2.747 -0.0131 -0.5320 -0.0991
31463W        W47647  13.161  11.740   3.903 -0.2323  0.1988  0.2485
31464W        W47648   2.384   9.505   5.675 -0.0272 -0.1752 -0.0252
31465W        W47649   4.511  12.378   0.084 -0.0426  0.0383  0.3866
31466W        W47650   7.775   3.345   5.887  0.2166 -0.1812  0.1860
31467W        W47651   5.599  11.066   4.739  0.1239  0.1965  0.0552
31468W        W47652  13.716  12.457  15.469  0.3271  0.0029 -0.0637
31469W        W47653   0.473   6.616   1.646  0.3092  0.2912  0.1221
31470W        W47654   8.177   1.197   2.310  0.1623 -0.3125 -0.1081
31471W        W47655   4.629   9.871  13.102  0.1221 -0.1407  0.3864
31472W        W47656   7.903   9.614   3.681  0.0216 -0.1364  0.2785
31473W        W47657  16.758  18.286   3.525  0.2041 -0.1362  0.0375
31474W        W47658   8.810  12.299  16.075 -0.2736 -0.0612  0.1285
31475W        W47659  12.893  17.578   1.291  0.1960 -0.1529 -0.0840
31476W        W47660  12.982   5.171   3.578 -0.0833 -0.1011  0.0128
31477W        W47661  14.761   9.192  15.309 -0.1605  0.0045 -0.3867
31478W        W47662   5.759   1.842  15.580  0.1082  0.2808 -0.0882
31479W        W47663   5.707   2.166  14.786  0.1523  0.1712  0.0928
31480W        W47664  14.418  14.750   4.226  0.0835  0.0709 -0.1430
31481W        W47665   3.142   6.584   5.378 -0.2533 -0.0675 -0.1802
31482W        W47666   7.915   3.324  11.109  0.0849  0.0090 -0.0090
31483W        W47667   5.987  16.665  15.510  0.2050 -0.1034 -0.0207
31484W        W47668   6.302   0.825  14.650  0.2661  0.2409 -0.1151
31485W        W47669   7.026  15.914  15.160  0.0871  0.2748  0.1384
31486W        W47670  11.319  11.991   4.868 -0.2003 -0.2000 -0.1544
31487W        W47671   7.480  15.104   4.977  0.1251 -0.1315  0.0902
31488W        W47672   5.085   1.614   2.229 -0.0452 -0.2301  0.1889
31489W        W47673   9.172   9.860  12.107  0.0041 -0.1428  0.0833
31490W        W47674   0.113  10.109  13.302 -0.0547  0.0181 -0.1454
31491W        W47675  15.606  12.645   4.178 -0.1514 -0.0822 -0.0393
31492W        W47676   0.973   1.646   4.022  0.1951 -0.3102 -0.1925
31493W        W47677  11.002   9.573   1.073 -0.3260 -0.2320 -0.1376
31494W        W47678   0.362   1.593   2.134 -0.1944  0.0095 -0.0793
31495W        W47679   2.294  14.183   4.070  0.0935  0.1106 -0.0421
31496W        W47680  17.404   8.771   0.775  0.2124  0.0933  0.1882
31497W        W47681  12.083  16.447   0.724 -0.1753 -0.4018  0.2421
31498W        W47682  15.385   5.034   0.548  0.1925  0.0825 -0.0473
31499W        W47683   1.842   1.611  13.251  0.2774  0.1142  0.1176
31500W        W47684  18.397   4.571   2.201 -0.0386  0.0860 -0.0224
31501W        W47685   1.406   8.076   4.013  0.1940 -0.2163  0.0206
31502W        W47686   8.081   7.839   6.197  0.0658  0.1552  0.3275
31503W        W47687  14.864   2.385   4.225  0.0574 -0.0818 -0.0221
31504W        W47688  10.127  12.789   3.644  0.2508 -0.3361 -0.1822
31505W        W47689   0.998  17.760  12.344 -0.0046 -0.2619 -0.0641
31506W        W47690   2.830   5.545  12.455  0.1362  0.2395 -0.0003
31507W        W47691  15.182  18.047  12.130 -0.0144  0.0650  0.2381
31508W        W47692   2.121  17.903  12.988  0.0197 -0.0436 -0.1980
31509W        W47693   1.071  10.706   3.358 -0.0461 -0.1784 -0.0918
31510W        W47694  10.325  15.125  11.423  0.1410  0.1172 -0.3080
31511W        W47695  11.828   2.474  13.259  0.1255 -0.1870 -0.0675
31512W        W47696  11.311  16.481   1.446  0.2725 -0.1742  0.1321
31513W        W47697  18.086  16.390   0.008 -0.2120  0.2000 -0.1132
31514W        W47698  15.144   2.325  11.580 -0.3504 -0.0706 -0.0933
31515W        W47699   0.376  14.289   0.684  0.1281  0.2891 -0.0389
31516W        W47700   2.899  17.581  12.573 -0.4018 -0.0188 -0.1116
31517W        W47701  12.304   1.733  13.739  0.2633  0.4067  0.1647
31518W        W47702   1.168  15.439   3.074  0.1234  0.2791 -0.0068
31519W        W47703   5.104  16.144   5.124 -0.0278 -0.4994 -0.4995
31520W        W47704   3.091   0.767   2.732 -0.0901 -0.1584 -0.0479
31521W        W47705   5.418   4.307  15.167  0.0391 -0.0160  0.0580
31522W        W47706   6.372  15.074   3.167 -0.1300  0.0506  0.0653
31523W        W47707   8.343   8.167   3.629  0.1371  0.0269 -0.0249
31524W        W47708   1.318  10.109   1.498 -0.0140 -0.1962 -0.1092
31525W        W47709   0.759  14.366  12.145  0.2273  0.0667 -0.0040
31526W        W47710  14.294   7.052  14.915  0.0705 -0.0793  0.2402
31527W        W47711  10.272  15.038   4.579  0.0533  0.0559  0.3475
31528W        W47712  16.848   1.875   0.080  0.2652 -0.0457  0.1659
31529W        W47713  15.267  10.265   1.714 -0.0338  0.0695  0.0869
31530W        W47714   8.566  17.871   3.336  0.4584  0.0110 -0.1462
31531W        W47715   1.762   5.575  13.662 -0.2688  0.1772 -0.2900
31532W        W47716   0.203  10.088   0.720 -0.2515  0.0853 -0.0865
31533W        W47717   4.308   6.231  11.386 -0.1804 -0.2911 -0.3139
31534W        W47718   2.846   4.291  15.800  0.0893 -0.2492  0.2069
31535W        W47719   6.478  11.863  14.046 -0.1918 -0.3062 -0.3505
31536W        W47720   0.035  17.537  13.693  0.3037 -0.0241 -0.1570
31537W        W47721   6.736  18.376   3.570  0.1104  0.0053 -0.0863
31538W        W47722  13.193  11.934   5.404  0.2252  0.1865  0.0748
31539W        W47723   2.876   8.756   5.301 -0.3874  0.0061  0.1594
31540W        W47724  13.667   2.404  11.277 -0.0605 -0.3577  0.2728
31541W        W47725  12.654   4.213  12.114 -0.0284 -0.1056  0.3164
31542W        W47726  17.248  16.165  13.087  0.0962 -0.2421  0.0033
31543W        W47727   8.448  16.512   5.632  0.4437 -0.0468 -0.4452
31544W        W47728   3.384   8.316   1.886  0.0222 -0.0714 -0.3776
31545W        W47729  10.966  14.157   5.481  0.2579  0.0555  0.0994
31546W        W47730  17.332   3.216   0.686 -0.0558 -0.1726 -0.1090
31547W        W47731  18.313   4.971   4.948  0.2816 -0.0913 -0.2443
31548W        W47732   0.217  14.073  13.006  0.0471  0.0177  0.1581
31549W        W47733  15.844  10.293   1.780  0.2106 -0.1060 -0.1548
31550W        W47734   1.681   7.134  14.216  0.0075  0.1015 -0.0198
31551W        W47735  17.129   3.850  12.043 -0.0565  0.4046 -0.0010
31552W        W47736  11.840  18.048  13.200 -0.0820 -0.1238  0.3061
31553W        W47737   6.088   4.102   0.971 -0.1200 -0.0812 -0.0787
31554W        W47738   2.052   4.598  15.312 -0.1232 -0.1585 -0.1506
31555W        W47739   5.222   9.420   2.554 -0.0680 -0.1249 -0.0185
31556W        W47740   0.726   4.047  14.035  0.0549 -0.0587 -0.1747
31557W        W47741   5.022   8.580  15.617  0.1637  0.1830  0.2845
31558W        W47742  10.401   6.071   0.937  0.3588 -0.0189 -0.1204
31559W        W47743   2.452   9.312  12.976 -0.2114 -0.1281  0.3311
31560W        W47744   9.592   7.463  13.398 -0.2592  0.2400 -0.1203
31561W        W47745   2.991  13.370   2.075  0.2068  0.1824  0.4689
31562W        W47746   7.581   1.194  14.004 -0.0649  0.3179 -0.1275
31563W        W47747   2.714   8.977   2.061  0.0253 -0.2011  0.1456
31564W        W47748  15.168  15.841  12.791 -0.2244  0.0996 -0.0567
31565W        W47749   1.154  12.684  13.848 -0.0116  0.1121 -0.0259
31566W        W47750  10.538  14.333   3.288  0.2151 -0.0612 -0.4440
31567W        W47751   8.418   5.293  11.889  0.1881  0.1388  0.0085
31568W        W47752  17.269  10.417  11.157 -0.5342  0.1407  0.0527
31569W        W47753  18.392   7.992   2.295 -0.4047 -0.0693  0.3187
31570W        W47754   6.307   2.451   4.168 -0.2605 -0.0384 -0.2479
31571W        W47755   1.613   8.362   3.283  0.0654  0.0775 -0.0106
31572W        W47756   8.220  15.834  14.858  0.3327  0.1671  0.2742
31573W        W47757   5.229  11.603  12.580  0.2021  0.2158 -0.0714
31574W        W47758  11.584  10.117   3.656  0.0766 -0.3772 -0.4187
31575W        W47759   5.805   5.481  14.387 -0.0788 -0.0632 -0.0704
31576W        W47760   6.212  16.984  12.959 -0.1128 -0.0998 -0.1901
31577W        W47761  14.479   8.519  15.789  0.1839  0.0064 -0.2193
31578W        W47762   8.131  18.127   0.199  0.4157  0.1372  0.2099
31579W        W47763   6.473  15.107  14.905 -0.0546 -0.0826 -0.0632
31580W        W47764   2.645   5.154  13.631  0.0884  0.0707  0.0531
31581W        W47765  10.896   9.926  14.192  0.2988 -0.1875 -0.1716
31582W        W47766   2.101   9.699  14.819  0.1092 -0.2048 -0.0846
31583W        W47767   5.499   4.788  12.213  0.2712  0.0095  0.1449
31584W        W47768  10.862   4.402   0.265 -0.0578 -0.3287  0.1360
31585W        W47769   8.205   6.086  15.320  0.1131  0.1416 -0.1452
31586W        W47770   0.248  14.987   3.583  0.1118  0.2602 -0.2608
31587W        W47771  10.410   2.754  11.878  0.0972 -0.1577 -0.2502
31588W        W47772   0.132   1.107   1.878  0.0595  0.1085  0.1660
31589W        W47773  17.864  17.874   1.313 -0.1578  0.0765 -0.0130
31590W        W47774   9.017  15.658  11.610  0.2161  0.0888 -0.0455
31591W        W47775  15.582   0.679   3.536  0.1167 -0.0322  0.1337
31592W        W47776   0.884  12.367  13.415 -0.2216 -0.1935  0.1393
31593W        W47777   4.106  17.108  13.863 -0.0331 -0.0331 -0.1366
31594W        W47778  14.288   7.714  14.864  0.0970 -0.1299 -0.2173
31595W        W47779  14.837   3.166   4.727  0.1048 -0.4922 -0.0060
31596W        W47780  12.685   1.507  14.604  0.0877 -0.1497  0.1684
31597W        W47781   5.195  13.443   5.476 -0.0057  0.0507  0.3498
31598W        W47782   5.118  12.272  15.586 -0.1706  0.2646 -0.0801
31599W        W47783   8.621  15.603   1.462 -0.1382  0.3365 -0.1515
31600W        W47784  15.560  10.911   1.261  0.2950 -0.1504 -0.0801
31601W        W47785   1.526   2.288  10.648 -0.1162 -0.1516 -0.1319
31602W        W47786   4.515  18.066  12.670  0.1152 -0.1732  0.0319
31603W        W47787  14.449   0.084   2.039  0.2295  0.0144 -0.0265
31604W        W47788   0.601  11.025  14.359  0.5651 -0.2910  0.2081
31605W        W47789  13.473   2.166   1.984  0.0602 -0.0571  0.2687
31606W        W47790   2.138  16.978   1.141  0.1798  0.2310  0.0811
31607W        W47791   4.873   2.522  13.346  0.4779 -0.0449 -0.0506
31608W        W47792  11.627   5.561  12.957 -0.0417  0.3741 -0.2651
31609W        W47793   3.052   0.497   5.694 -0.1066 -0.0051  0.1283
31610W        W47794   4.470   2.691   5.175  0.1692 -0.1390  0.1541
31611W        W47795   5.453  13.972   4.385  0.1769 -0.0002 -0.1698
31612W        W47796  16.177   1.782   4.559  0.1818  0.1953 -0.2332
31613W        W47797  14.575   9.284   0.528 -0.1578 -0.2944 -0.0692
31614W        W47798  12.136   3.846   1.723 -0.0869 -0.3130  0.0055
31615W        W47799  12.422   4.625   4.652 -0.6363  0.0895  0.1893
31616W        W47800  10.329   9.339   0.328 -0.0116  0.0394 -0.1097
31617W        W47801   7.776   0.918  11.805 -0.1742 -0.0677 -0.2215
31618W        W47802  12.216  12.083   2.601 -0.0007  0.1885 -0.1318
31619W        W47803   1.096  14.569   1.222 -0.4807 -0.4877 -0.1367
31620W        W47804  10.577  15.100  10.687 -0.0379 -0.1914  0.1522
31621W        W47805   2.452  13.933  15.179 -0.1811 -0.2836  0.0301
31622W        W47806  15.525   1.864  14.751  0.1891 -0.0780  0.1252
31623W        W47807  12.435   0.848   1.553 -0.2674 -0.1030  0.1052
31624W        W47808  11.493  12.190   0.477  0.0129 -0.2277  0.2394
31625W        W47809   9.837   4.947   1.859 -0.0265 -0.3306 -0.2366
31626W        W47810   4.189  14.867   0.923  0.0868 -0.2217  0.0232
31627W        W47811   4.620  10.714  15.000 -0.0085  0.1378 -0.2055
31628W        W47812  13.893   2.444   1.845  0.0123  0.0290  0.1053
31629W        W47813  17.403  10.299   6.106  0.2015  0.1818 -0.2814
31630W        W47814   8.156  11.434  12.285  0.0508 -0.2934  0.2679
31631W        W47815   5.280   0.285   5.371  0.0481 -0.0600 -0.1061
31632W        W47816   7.875   8.209   4.611 -0.0819  0.2719  0.2515
31633W        W47817  18.324  17.939  11.495 -0.0478 -0.0609  0.0908
31634W        W47818  12.622   5.456   4.358 -0.1647 -0.0754  0.1833
31635W        W47819   3.147   7.854   1.835 -0.1304 -0.0984 -0.0858
31636W        W47820  12.717   9.911   0.648  0.2657 -0.0397  0.1540
31637W        W47821  12.520  10.921  13.814  0.1001  0.1999  0.3228
31638W        W47822  10.469  14.422  13.365 -0.0410 -0.2897 -0.1763
31639W        W47823   8.967   4.869   4.050 -0.1022  0.0619 -0.1401
31640W        W47824  10.735   1.648  14.454 -0.2889 -0.0431  0.0645
31641W        W47825   2.593   7.124   1.797  0.0344  0.2789 -0.4452
31642W        W47826   8.678  15.704  12.888 -0.3172 -0.2321  0.1087
31643W        W47827  17.319   8.075   0.474  0.2530 -0.3122  0.1411
31644W        W47828   3.507  16.064  11.588 -0.3289  0.1481 -0.0849
31645W        W47829  17.559  11.948  12.245  0.0954  0.3318 -0.0698
31646W        W47830  13.496   1.685   0.886  0.2654  0.2023 -0.3598
31647W        W47831  14.243  16.868   1.161 -0.0707 -0.1717 -0.2271
31648W        W47832  15.305  15.304  14.970  0.0241  0.1956  0.0410
31649W        W47833   3.661   4.467   0.151  0.2128 -0.1994 -0.0595
31650W        W47834  14.637   9.775   2.909  0.2967  0.1233  0.0354
31651W        W47835   1.273   5.969  14.658  0.0850 -0.0723 -0.0881
31652W        W47836   7.364  10.048   1.701 -0.2080 -0.0313  0.2295
31653W        W47837   7.582  13.748   0.112 -0.2676 -0.0226 -0.1668
31654W        W47838   1.441  15.524  13.993 -0.2099  0.1330  0.0718
31655W        W47839   7.686  16.888   4.026  0.3458 -0.3164 -0.1358
31656W        W47840   7.246   5.206   2.420  0.2936  0.1651  0.2529
31657W        W47841   1.232   2.069   4.754  0.0398  0.2551  0.0702
31658W        W47842   7.673   6.015  14.987 -0.1386 -0.0404  0.1713
31659W        W47843   2.071  10.009  11.485  0.3084  0.0195 -0.1034
31660W        W47844   6.954  13.102   4.137 -0.2416  0.0647 -0.2433
31661W        W47845  10.297   6.726  12.504 -0.1097  0.2655  0.0611
31662W        W47846  10.979  10.143  12.029 -0.0264 -0.0170  0.2076
31663W        W47847  16.059   8.223  12.767  0.0822  0.3480 -0.4473
31664W        W47848  17.973  16.985   1.596  0.1674  0.3208  0.0589
31665W        W47849   7.859   9.380  16.087 -0.1213  0.0527 -0.2000
31666W        W47850  14.348   7.315  14.519  0.1471  0.4368 -0.3666
31667W        W47851   1.624  15.746  15.990  0.1581  0.3694  0.1352
31668W        W47852  17.009  10.862   1.141  0.1803 -0.0392  0.0708
31669W        W47853   4.878   1.473   1.544  0.0458  0.3263  0.0986
31670W        W47854  12.163  13.823   1.692 -0.5601 -0.1372  0.0264
31671W        W47855  13.113  16.923  12.487  0.1670  0.3881  0.3179
31672W        W47856  11.578  14.070   5.332  0.1314 -0.0699 -0.1515
31673W        W47857   9.171   7.763  14.777 -0.2059 -0.1749 -0.2176
31674W        W47858  14.814   2.770   2.601 -0.0905  0.1845 -0.1925
31675W        W47859   0.732  10.131  14.659 -0.0713  0.0048  0.1717
31676W        W47860   4.227  15.712  15.140 -0.0503 -0.2784 -0.3279
31677W        W47861   9.191  11.815   4.607 -0.0224  0.0766  0.1412
31678W        W47862  10.714   6.933  15.084  0.1783 -0.3861  0.2325
31679W        W47863   8.600   8.222  12.478 -0.0062 -0.5674  0.3683
31680W        W47864  13.146  17.575  13.382 -0.0207  0.0694  0.1279
31681W        W47865  10.607   5.491   2.340  0.1844 -0.1126 -0.1228
31682W        W47866  14.575  15.972  13.761  0.0131 -0.5070  0.1509
31683W        W47867   7.058   5.122  11.376  0.4230 -0.4118  0.1321
31684W        W47868  11.454   9.754   4.003 -0.0143  0.0442 -0.0684
31685W        W47869   3.648  18.479  15.846  0.0213  0.2243  0.0208
31686W        W47870   1.895  14.414   1.809 -0.0316  0.0050  0.1119
31687W        W47871  13.774   8.967   0.762  0.1165 -0.0146 -0.2147
31688W        W47872   0.256   4.548  15.691 -0.1242  0.0065 -0.0296
31689W        W47873  17.706   6.442   2.501 -0.1084  0.1848 -0.1621
31690W        W47874   4.896  12.023  11.492 -0.0112 -0.1098  0.2685
31691W        W47875   4.267  16.950   3.541  0.0054  0.0333 -0.0492
31692W        W47876  14.823  11.265   3.828 -0.0918  0.0607  0.1435
31693W        W47877  12.324  10.905   2.107 -0.0279 -0.0796  0.0970
31694W        W47878  14.988  17.251  14.028 -0.2275 -0.2176 -0.2635
31695W        W47879  17.941  17.557   4.984 -0.1467  0.2678 -0.0084
31696W        W47880   0.014  15.198   5.660 -0.3181  0.1863 -0.5541
31697W        W47881  10.046   5.513   2.676  0.2152 -0.0768  0.2440
31698W        W47882   4.217   3.295   4.546 -0.1777 -0.1604 -0.0155
31699W        W47883   4.305  14.706  13.673  0.3457 -0.0086 -0.0991
31700W        W47884   4.390  17.874  15.537  0.2392 -0.2693 -0.0320
31701W        W47885   0.828   4.413  12.929  0.0081  0.1519  0.1462
31702W        W47886  16.941   1.311   1.327  0.3030  0.1252  0.2205
31703W        W47887  10.366  16.587   3.822 -0.0660 -0.0004  0.5084
31704W        W47888  16.053  14.868   3.129  0.1924  0.1531 -0.0588
31705W        W47889   9.040   3.620   4.690 -0.4191  0.0357 -0.1500
31706W        W47890  17.982   1.590   3.131  0.3462 -0.2443  0.2498
31707W        W47891   0.776   5.461   0.396  0.2917 -0.1655 -0.1057
31708W        W47892   4.708  15.713  11.829  0.0463 -0.1738  0.2095
31709W        W47893   4.568  14.939   1.251  0.1233  0.0110 -0.0225
31710W        W47894  12.683  13.662  14.905 -0.0894 -0.0527 -0.2800
31711W        W47895  10.739  16.171   0.935  0.2612  0.1627 -0.1225
31712W        W47896   5.627   2.963   5.925 -0.1402 -0.0856  0.0644
31713W        W47897  13.373  15.675   4.288  0.0550 -0.0200 -0.1304
31714W        W47898  13.576   8.889  12.356 -0.0430  0.0353  0.4592
31715W        W47899  12.526   9.300  13.651 -0.0604  0.0273  0.0582
31716W        W47900  14.378  10.993  16.146 -0.0019 -0.1468 -0.3780
31717W        W47901   0.007   9.249   5.748  0.1756  0.1206  0.2191
31718W        W47902  14.174  13.624   2.809  0.1637  0.0479 -0.2206
31719W        W47903   3.555   7.801   0.294 -0.0540 -0.2743  0.1593
31720W        W47904  15.496  16.385   0.314  0.1337 -0.2588 -0.0457
31721W        W47905  17.439   7.191  13.841  0.0818 -0.1390 -0.1645
31722W        W47906   5.182  13.073  15.450 -0.2481 -0.0536 -0.2393
31723W        W47907   9.888   3.856   1.087  0.0025 -0.0492 -0.6938
31724W        W47908  16.799   5.098   2.009 -0.0546  0.2575 -0.0914
31725W        W47909  15.920  10.601  16.127 -0.1328  0.1208 -0.1561
31726W        W47910   8.017   7.980  12.397  0.0057 -0.0584  0.2890
31727W        W47911   7.108   0.514   4.310  0.1021 -0.0725  0.0115
31728W        W47912   5.964   9.331  13.911 -0.1613 -0.2423  0.0775
31729W        W47913  10.039   1.782  12.927  0.0225  0.0634 -0.1831
31730W        W47914  13.380  15.067  15.167  0.0012  0.2834  0.3447
31731W        W47915   4.618  16.384  14.424 -0.0435  0.0159  0.2410
31732W        W47916   9.919   1.657   4.869  0.0949 -0.3000 -0.3715
31733W        W47917  11.082  14.593   2.296 -0.0455 -0.2826 -0.0810
31734W        W47918   4.768  12.349  14.562  0.0892  0.1112 -0.1209
31735W        W47919  10.039  11.866   0.664  0.0296 -0.0694  0.0711
31736W        W47920  15.346   9.755  11.702  0.2589 -0.2652  0.0766
31737W        W47921  11.136   7.285   4.289  0.1321  0.2041 -0.1315
31738W        W47922  12.451   8.382   2.577  0.0259 -0.2304 -0.0780
31739W        W47923   5.590  10.973  13.249 -0.3609  0.1115  0.0299
31740W        W47924  10.793  17.436  11.667  0.1627  0.1917  0.3367
31741W        W47925  18.474   6.737  15.513 -0.0303 -0.0235  0.0680
31742W        W47926   0.483  12.264   4.730 -0.0171 -0.0047 -0.1312
31743W        W47927   6.349  12.311  14.323  0.2846  0.0287 -0.0710
31744W        W47928   3.255  15.312   0.965  0.2262 -0.3200 -0.2422
31745W        W47929  16.071   5.600  15.202  0.3145 -0.0241  0.4566
31746W        W47930   1.799  11.055   1.542 -0.0368 -0.3548 -0.1697
31747W        W47931   4.456   2.217  12.826  0.0426  0.2064  0.0156
31748W        W47932  12.937   8.258   5.738 -0.4479 -0.0682 -0.1526
31749W        W47933   9.569   9.936   6.192 -0.0565 -0.1709 -0.4188
31750W        W47934   9.971   5.955   3.010 -0.2118  0.2116  0.4426
31751W        W47935  15.101   7.444  11.563 -0.1650 -0.0307  0.1234
31752W        W47936  16.717  11.739  11.619  0.0811  0.1439  0.3412
31753W        W47937  17.000  12.743  13.433 -0.1817  0.3406  0.0084
31754W        W47938   7.722   3.751   5.563 -0.3191  0.1478 -0.3110
31755W        W47939   5.213   4.747   3.213 -0.4511  0.0607 -0.0210
31756W        W47940  10.191   9.231   4.744 -0.0681  0.0424 -0.1133
31757W        W47941   4.219   1.469  13.911  0.0725 -0.1494 -0.2223
31758W        W47942   1.508  17.535   4.782 -0.0705 -0.3888 -0.1706
31759W        W47943  11.377   9.535   1.417  0.1315 -0.1052 -0.0917
31760W        W47944  15.993   3.339  11.912  0.0458  0.1810  0.0107
31761W        W47945   6.229   8.077   3.842 -0.0952 -0.1399 -0.0718
31762W        W47946  18.386   6.387  12.317 -0.2671 -0.1065 -0.1548
31763W        W47947  15.672   5.183  12.608 -0.2208 -0.3866 -0.0045
31764W        W47948   4.918   0.856   3.369 -0.2041 -0.1717  0.0346
31765W        W47949  15.892  14.117   1.168 -0.1173  0.1427 -0.2894
31766W        W47950   5.190   3.858  13.948  0.0142  0.1794 -0.1758
31767W        W47951   5.367  12.364   0.833 -0.1483 -0.0193  0.0695
31768W        W47952   3.438  14.965   5.763  0.1097  0.0387 -0.1018
31769W        W47953  11.915  16.564   1.583  0.1952 -0.0742 -0.1118
31770W        W47954  15.969   2.712   4.166  0.1949 -0.4369 -0.0008
31771W        W47955   0.296  17.962  15.370  0.3234 -0.1991  0.1616
31772W        W47956  10.520  15.462   1.853 -0.1197  0.0975  0.0288
31773W        W47957   2.459  16.308  11.707  0.1822 -0.1918  0.1798
31774W        W47958   4.528  14.962   0.026  0.2649 -0.0098  0.1264
31775W        W47959   5.523   9.890  13.668 -0.1192 -0.0740  0.2007
31776W        W47960   3.615  17.860   4.842 -0.1370 -0.2400  0.4889
31777W        W47961   2.738   7.391   4.238 -0.1761  0.1099  0.2152
31778W        W47962  14.044  15.662   1.886  0.5779 -0.1697  0.1524
31779W        W47963  13.351   0.518  13.802  0.1234  0.0566 -0.3323
31780W        W47964  14.750  10.456  15.282 -0.0657  0.1674 -0.0982
31781W        W47965   8.725   8.637  14.603 -0.0722  0.1134  0.1031
31782W        W47966   8.367   9.794   3.425 -0.1897  0.0109  0.3241
31783W        W47967   9.347   3.675  15.513 -0.0452 -0.0228 -0.1467
31784W        W47968  16.024   0.001   2.938 -0.0929  0.1382 -0.0710
31785W        W47969  10.829   8.675  11.678 -0.3002  0.0074 -0.2044
31786W        W47970  17.690   9.336  15.644 -0.1565 -0.1265 -0.2238
31787W        W47971   7.297   2.213  14.243  0.4843  0.0731  0.2304
31788W        W47972  11.515  13.412  15.289 -0.1302  0.0900 -0.0115
31789W        W47973  11.905   7.071   4.116 -0.1368  0.0489 -0.0719
31790W        W47974   3.851  16.750  13.053  0.2240  0.0035 -0.1379
31791W        W47975   5.382  17.870   0.556 -0.1647  0.2383  0.1410
31792W        W47976   3.485  12.077  11.534 -0.0882  0.4080 -0.3125
31793W        W47977   2.504   5.524   1.406  0.1844  0.4141  0.2087
31794W        W47978   7.195  17.053  12.325  0.0957 -0.0271 -0.0715
31795W        W47979  10.575  11.815  11.862  0.2045 -0.2893 -0.1521
31796W        W47980   3.033   1.840  13.574 -0.0788  0.2858 -0.2071
31797W        W47981   7.477  10.879  15.518 -0.2575 -0.0463 -0.3108
31798W        W47982   0.164   9.108   5.316 -0.2127 -0.3584 -0.0936
31799W        W47983   8.946  16.685  12.557  0.3521 -0.2100 -0.2137
31800W        W47984  14.292  16.713  13.796  0.2057  0.0461  0.1204
31801W        W47985  17.636   1.263  14.047  0.1595 -0.1068  0.2180
31802W        W47986  17.744  13.855  13.022 -0.0674 -0.0230 -0.1247
31803W        W47987   2.840   6.808   0.162  0.3848 -0.0265 -0.1805
31804W        W47988   7.189   2.044   2.200  0.0698  0.3614  0.0441
31805W        W47989  11.176   2.477   3.079 -0.0316  0.0299 -0.1812
31806W        W47990  13.935  13.420   1.847 -0.0423 -0.0065 -0.0551
31807W        W47991  16.795   6.534  10.388 -0.1091  0.0340 -0.1769
31808W        W47992   9.702   4.523  12.778 -0.2862  0.3249 -0.0538
31809W        W47993  12.743   7.360  12.662  0.3253 -0.1139 -0.2171
31810W        W47994  11.977   7.485  10.497 -0.2862 -0.3008  0.0102
31811W        W47995   0.734   6.644  16.076  0.0755 -0.0935  0.0339
31812W        W47996  15.411   6.227  13.768 -0.0232 -0.0551 -0.2392
31813W        W47997  16.658   0.175  15.445  0.0432 -0.0276  0.1661
31814W        W47998  18.395   9.357  10.636  0.0603  0.1573 -0.0073
31815W        W47999   8.614  11.178  15.549 -0.0155  0.1958  0.0783
31816W        W48000  15.413  14.576  15.473 -0.1250 -0.1515 -0.2376
31817W        W48001   7.370   6.953  14.146  0.3066 -0.2280  0.1688
31818W        W48002  14.615  14.048   4.624  0.0244 -0.2178 -0.0455
31819W        W48003   2.566   1.989  13.575  0.0750  0.0529 -0.0477
31820W        W48004   9.355   9.903  14.436 -0.1458  0.2750 -0.4050
31821W        W48005   0.328  12.596   1.711  0.2537  0.1841  0.1423
31822W        W48006   3.759   7.040   0.213  0.1027  0.1623  0.0923
31823W        W48007   3.041   4.452  13.337 -0.0850  0.3123  0.1276
31824W        W48008  17.139  14.520  14.612 -0.1062  0.0122 -0.1184
31825W        W48009   1.234  17.744  11.061  0.2345 -0.0088 -0.0328
31826W        W48010  11.388   8.312  16.028  0.0075  0.2661 -0.1537
31827W        W48011   6.094   5.318  15.974 -0.0248 -0.1610  0.0079
31828W        W48012  16.538  10.177   5.041 -0.2820  0.4652 -0.1302
31829W        W48013   6.162   4.949   0.829  0.0329  0.1286 -0.0155
31830W        W48014  15.479  11.411   4.615  0.0471 -0.2433 -0.1335
31831W        W48015   1.153  11.026   4.790  0.2661  0.2801  0.2931
31832W        W48016   2.119   5.117   6.147 -0.0633 -0.1101 -0.0359
31833W        W48017   0.412   5.009   4.686 -0.0395 -0.0551  0.3733
31834W        W48018   4.119   5.295   4.266  0.0467  0.2197  0.0407
31835W        W48019  14.754  14.135  11.320 -0.2703  0.2641  0.0681
31836W        W48020   8.213   4.211  13.058 -0.2635  0.0334  0.0335
31837W        W48021   6.781  15.053  12.250  0.5481 -0.1786 -0.0853
31838W        W48022   0.207   7.726  14.140 -0.3382 -0.0484 -0.1246
31839W        W48023  14.910  16.210   2.729 -0.2451 -0.0182 -0.0697
31840W        W48024   1.493   0.066  15.046  0.1655 -0.0088 -0.0329
31841W        W48025   5.882   1.398  14.029  0.0837  0.2511 -0.0686
31842W        W48026  16.379  18.196  10.923 -0.0052  0.3605 -0.3030
31843W        W48027   2.787   1.392  11.041 -0.2373  0.0164 -0.2251
31844W        W48028  12.524   4.297   3.867 -0.0389 -0.1274  0.2976
31845W        W48029  12.089   8.470  15.751 -0.1192 -0.0629 -0.0571
31846W        W48030   3.232   3.033   3.811  0.0975  0.2404 -0.1597
31847W        W48031   4.056   4.929  15.794  0.0567 -0.0643  0.1391
31848W        W48032   4.098   6.832   5.290  0.1844  0.1775 -0.3355
31849W        W48033   8.131  17.936   3.137  0.2837 -0.0929  0.1548
31850W        W48034   9.858  15.852   1.933  0.0617 -0.2395  0.1367
31851W        W48035  12.789   7.496  14.644  0.1117  0.0072  0.0247
31852W        W48036  14.602  15.693  10.586 -0.0315 -0.1383  0.0821
31853W        W48037  18.472  15.478   0.996 -0.0038  0.1996 -0.0877
31854W        W48038  14.056  15.706  14.635 -0.0704  0.2719  0.1117
31855W        W48039  15.034   3.673  13.425  0.0123  0.0569 -0.0418
31856W        W48040   9.539   7.545   2.993 -0.0882  0.0893  0.1121
31857W        W48041  17.216  16.653  13.190  0.0464  0.0436  0.0126
31858W        W48042  10.229   5.571   0.800  0.2001  0.2361  0.1327
31859W        W48043   5.304  11.347  13.047 -0.3745  0.1247 -0.2436
31860W        W48044   6.272  10.217  12.303  0.2127  0.0066  0.1432
31861W        W48045  14.881  13.285   4.148 -0.0107  0.2250  0.0630
31862W        W48046  14.674   2.575  11.580  0.4468  0.1892  0.1918
31863W        W48047  11.093  17.803  15.059 -0.0146 -0.2654  0.4018
31864W        W48048   9.600  13.521  11.165  0.0205 -0.2714 -0.1941
31865W        W48049   3.819  11.432   4.927  0.1357 -0.1870 -0.1609
31866W        W48050   3.331  12.804   0.473 -0.2282  0.2022 -0.0163
31867W        W48051   2.835   7.457  14.530  0.1268  0.0115  0.3448
31868W        W48052   9.099  15.010  14.974  0.0156  0.0364 -0.1996
31869W        W48053  14.876  17.750  13.524 -0.0958  0.0568 -0.0546
31870W        W48054  13.226   0.784   4.642  0.1849 -0.2891 -0.0253
31871W        W48055   3.525   3.692   2.729  0.2694  0.0371 -0.0954
31872W        W48056   9.493  14.816   3.695  0.2302 -0.1311 -0.3071
31873W        W48057  16.265  12.683   2.120  0.3435  0.2884 -0.2043
31874W        W48058   9.535   3.770  13.719  0.4061 -0.0242 -0.0710
31875W        W48059  10.392   7.657   3.468 -0.2767 -0.0600  0.0527
31876W        W48060  16.182   5.907  12.498 -0.2213  0.0451  0.1465
31877W        W48061  14.986  17.914   0.809  0.4440 -0.1517  0.0864
31878W        W48062  17.666   4.267  11.071  0.0844  0.0430 -0.1623
31879W        W48063   9.674  11.176  12.395 -0.2202 -0.2393  0.2738
31880W        W48064   6.672   7.769   0.318  0.0659 -0.0506  0.3355
31881W        W48065   0.966  14.275   1.774 -0.2772 -0.2019 -0.0310
31882W        W48066  14.821  10.178  13.590 -0.0113 -0.0789 -0.1091
31883W        W48067   7.073   0.785   2.955  0.0694  0.1441 -0.3467
31884W        W48068   5.449   8.703   0.439 -0.0664 -0.1018  0.0317
31885W        W48069  16.695  12.532   2.948 -0.0446  0.1596 -0.1654
31886W        W48070  17.430  17.809   1.017  0.2019  0.2501 -0.1484
31887W        W48071   0.902  13.446  16.018 -0.1218 -0.0606  0.1381
31888W        W48072  10.530  10.085   5.237 -0.3488 -0.3880 -0.1809
31889W        W48073   8.202  18.200   6.011 -0.1339 -0.2042 -0.0608
31890W        W48074   5.059   9.636  11.835  0.0364  0.0833  0.0559
31891W        W48075   4.837   2.468   1.192 -0.0102 -0.0791  0.0776
31892W        W48076  15.847   7.726   3.061  0.2736  0.0121  0.0828
31893W        W48077   5.178   4.495  15.587  0.0363  0.0473 -0.0173
31894W        W48078   1.342   5.617   3.208  0.1590  0.1028 -0.1959
31895W        W48079  18.184   2.620  15.125  0.1420  0.2794 -0.2898
31896W        W48080   4.141   4.347  14.191  0.1771  0.0672  0.1086
31897W        W48081  13.460  18.016   4.563  0.1639  0.2048 -0.0547
31898W        W48082  15.718  17.746   1.798  0.0152  0.0517  0.0035
31899W        W48083  11.662   4.470  11.136 -0.2993 -0.1560 -0.0991
31900W        W48084   1.452   5.174  14.903 -0.1489  0.0331 -0.3148
31901W        W48085  16.043  10.090   5.305  0.2007  0.1943 -0.0884
31902W        W48086   4.978  18.198  12.799  0.2415 -0.0322  0.0434
31903W        W48087   4.414  13.350   0.281  0.1890 -0.0798 -0.1886
31904W        W48088   8.533   3.132   5.404 -0.4515  0.2766 -0.1032
31905W        W48089  18.408  12.289  10.981 -0.0138 -0.0209 -0.0747
31906W        W48090  16.314   0.883   2.786 -0.0932 -0.0443  0.0120
31907W        W48091   6.319   9.233   0.061 -0.0821  0.0441  0.0283
31908W        W48092  11.349   3.423   3.861 -0.3394 -0.0330 -0.0254
31909W        W48093  11.701   1.555   3.002  0.0072 -0.2458 -0.0428
31910W        W48094  10.711   9.059   1.068  0.1416  0.2359 -0.2119
31911W        W48095  16.543  12.280   4.913 -0.2240  0.0184  0.3046
31912W        W48096  13.136   1.341  15.285  0.0244 -0.1397 -0.1124
31913W        W48097   1.146   6.747  12.359 -0.2409 -0.0515 -0.1558
31914W        W48098  14.497   5.428   1.926 -0.0017  0.0345 -0.0916
31915W        W48099  13.332   9.887   2.044  0.2738 -0.1231 -0.1904
31916W        W48100   2.940   1.456  12.766 -0.1531  0.0811 -0.0172
31917W        W48101   0.321   3.150  12.666 -0.1915  0.2388 -0.1566
31918W        W48102   4.184  11.275  15.475  0.1613  0.0381  0.0418
31919W        W48103  11.455   2.977   5.007  0.2680 -0.2628  0.5391
31920W        W48104   5.458  16.339   3.977 -0.1210  0.0133 -0.0699
31921W        W48105  11.048  10.656  11.349  0.1181 -0.2265  0.0022
31922W        W48106   1.680   0.276  14.003  0.0191  0.0244 -0.0968
31923W        W48107  13.546  18.077  14.731 -0.1046 -0.3692 -0.1099
31924W        W48108   9.882   5.001  16.097 -0.1046 -0.1972  0.1477
31925W        W48109   5.720  11.472  12.605  0.0102  0.0385  0.2623
31926W        W48110   6.278   6.239  13.848 -0.1355  0.0023 -0.3054
31927W        W48111   7.369   8.108   3.684  0.2764 -0.3235  0.0039
31928W        W48112  15.610  17.707  15.366 -0.0189 -0.1526  0.0777
31929W        W48113   2.910   1.627   3.270  0.1605  0.2601 -0.3649
31930W        W48114   4.752   1.875  13.039  0.1395 -0.0686  0.0792
31931W        W48115   5.233  16.648   3.621  0.0794  0.3159  0.4487
31932W        W48116  12.499  12.696  13.606 -0.1807 -0.0243 -0.3623
31933W        W48117   6.367   3.549   2.712  0.1753  0.0225 -0.2686
31934W        W48118  12.657   3.766   5.189  0.1562 -0.2122 -0.1246
31935W        W48119  10.872  13.109   3.935 -0.0782 -0.3617  0.3090
31936W        W48120   9.385   0.302   3.114 -0.0871  0.0690  0.0789
31937W        W48121  17.020   0.899   3.725  0.1633 -0.0583  0.1291
31938W        W48122   6.163  11.164  11.329 -0.2267 -0.2077  0.3199
31939W        W48123   2.315  14.803   1.029  0.0099  0.0108 -0.3446
31940W        W48124   3.488   4.628   0.843 -0.0697 -0.0853  0.0386
31941W        W48125   4.025  16.504   4.986  0.2464  0.1858  0.0421
31942W        W48126   9.646  11.534   5.502 -0.1869 -0.1188  0.1661
31943W        W48127   3.646   4.378   1.439 -0.1159  0.1854  0.0824
31944W        W48128   0.641   0.033  15.643  0.0151 -0.0948  0.0394
31945W        W48129  16.344  16.649  15.202 -0.0585 -0.1275 -0.0333
31946W        W48130   0.538   1.230  11.616  0.2580 -0.2056  0.1168
31947W        W48131  11.301   2.881  12.374 -0.1982 -0.0747 -0.2888
31948W        W48132   6.235  11.575  10.906  0.2850 -0.0432  0.0497
31949W        W48133   9.101  15.754  12.093  0.5761 -0.0336  0.1402
31950W        W48134  13.167   9.605  11.892  0.0345 -0.0236  0.1869
31951W        W48135  14.137  14.840   5.104  0.2772 -0.0407 -0.1813
31952W        W48136  17.037  13.274   3.992  0.3105  0.1463 -0.2019
31953W        W48137   1.179  17.321  13.046 -0.1233  0.4571 -0.2261
31954W        W48138   9.062  13.183   3.534 -0.1184 -0.1302  0.0810
31955W        W48139  13.376   4.575  14.280 -0.0872  0.1278  0.1294
31956W        W48140  17.622  16.271  16.119 -0.3367 -0.0277  0.2074
31957W        W48141   6.988  17.631   5.805 -0.2545 -0.0342  0.0584
31958W        W48142  16.712   1.675   4.675  0.1079 -0.1053  0.0435
31959W        W48143   5.492   2.992  14.049  0.1837  0.0439 -0.2720
31960W        W48144   5.407   0.071  15.648  0.3405  0.0487 -0.0982
31961W        W48145  17.927  12.391   3.459  0.3323 -0.0528  0.1191
31962W        W48146   2.039   5.975  13.925  0.3991 -0.1089 -0.0177
31963W        W48147   0.684   6.389  15.250  0.3096  0.2463  0.0428
31964W        W48148   0.338   9.585   3.241 -0.0587  0.2092  0.0551
31965W        W48149   7.487  17.772  11.149  0.0058  0.0432 -0.0850
31966W        W48150  12.382   7.375  15.985  0.2011  0.0345  0.1911
31967W        W48151   3.185  14.544   4.047  0.3243  0.1263  0.1138
31968W        W48152   0.990  17.366   4.718 -0.1646 -0.1674 -0.3823
31969W        W48153  10.518  10.553  15.815  0.1482  0.1136  0.2485
31970W        W48154   9.204   6.737  10.955  0.1088 -0.0381  0.0796
31971W        W48155   2.623   2.400   4.576  0.1102 -0.1186  0.2221
31972W        W48156  17.395  18.306  11.494 -0.0577 -0.0489  0.3952
31973W        W48157   0.290   0.755  11.785 -0.1338  0.2471  0.0484
31974W        W48158  13.060  17.884  14.860  0.2705 -0.2807  0.0671
31975W        W48159   6.394  13.862  12.779 -0.1807 -0.3462  0.0575
31976W        W48160  12.771  13.630   2.483  0.1054 -0.0643  0.0997
31977W        W48161  14.165   0.698  13.469 -0.0968  0.2478  0.0771
31978W        W48162   2.295  11.359  11.884 -0.0477 -0.1736 -0.2457
31979W        W48163  15.378   9.855  13.361 -0.1497 -0.1796  0.1917
31980W        W48164  18.424   6.797   2.231 -0.1824 -0.0017  0.0700
31981W        W48165  15.062  11.307  12.033  0.3467  0.3803  0.0352
31982W        W48166   2.432  10.554  14.206 -0.0692  0.0867  0.3484
31983W        W48167   1.037   6.548   1.817 -0.0014  0.0079  0.3483
31984W        W48168   3.721   0.377   0.347 -0.1204  0.0731  0.1364
31985W        W48169  11.725   3.946   2.860  0.0388 -0.0960  0.0534
31986W        W48170  16.646  11.879   5.272  0.0498 -0.2248 -0.0848
31987W        W48171  18.163  14.900   5.718  0.0813 -0.3075 -0.0457
31988W        W48172  12.526  17.342  12.768 -0.1912  0.1923  0.1856
31989W        W48173   9.317   9.405  11.339  0.1208  0.0620  0.1569
31990W        W48174  11.645   8.654  11.999 -0.0469  0.0286  0.1374
31991W        W48175   7.620   6.915   1.229 -0.0109  0.2971  0.1596
31992W        W48176   6.356   8.927   4.872  0.1028 -0.0220  0.1432
31993W        W48177   7.326   7.657   3.926  0.2888 -0.2357  0.2762
31994W        W48178  10.248   5.514   3.671 -0.5137 -0.2292  0.2041
31995W        W48179   5.295  16.737   2.674  0.0310  0.1933  0.2005
31996W        W48180  12.926  13.005   4.497 -0.0938  0.4107  0.0106
31997W        W48181  15.889   7.446  11.586 -0.0384  0.1201  0.0049
31998W        W48182   9.935   6.113   4.952  0.1177 -0.3217  0.0598
31999W        W48183  15.336  11.239   3.775 -0.0829 -0.1190 -0.1354
32000W        W48184   8.397   5.884  11.001 -0.0065  0.2149 -0.7053
32001W        W48185   0.567  18.436  13.384  0.2987 -0.1601 -0.1967
32002W        W48186   1.290   9.002  13.358 -0.0009  0.3036 -0.0567
32003W        W48187   0.742  17.460  13.218 -0.0009 -0.2391  0.1552
32004W        W48188  11.613  17.387   0.610 -0.1279  0.1319  0.2105
32005W        W48189   6.870  10.018   1.570 -0.0489 -0.1094  0.4530
32006W        W48190  13.190   0.519  15.224 -0.0345  0.1081  0.1800
32007W        W48191   0.972  13.559  12.876  0.2692 -0.1982 -0.0460
32008W        W48192  17.393  16.029   2.288 -0.0400  0.1565 -0.0438
32009W        W48193   9.063  16.284  15.252 -0.2907  0.0752  0.0455
32010W        W48194  15.931  17.944   0.965 -0.0221  0.0852 -0.0723
32011W        W48195   3.795   1.037   2.364 -0.0954 -0.0719  0.0925
32012W        W48196   2.124  14.328  11.561  0.1563  0.0465  0.2702
32013W        W48197  17.922   7.855  12.008  0.1111 -0.0387  0.2846
32014W        W48198   1.837  17.254   5.087  0.0653  0.0215  0.0617
32015W        W48199  14.976   5.351   3.310 -0.0686  0.0652  0.0341
32016W        W48200   0.751  14.444   5.901  0.3086  0.1186 -0.0376
32017W        W48201   3.205  13.448   0.092  0.1126 -0.0593  0.3937
32018W        W48202  17.949   6.101  13.427 -0.1195  0.2336 -0.2231
32019W        W48203   7.332  16.201   2.986  0.1336  0.2528  0.1295
32020W        W48204  10.090  12.319   2.284 -0.0221 -0.2809  0.0176
32021W        W48205   4.185  11.819   5.219 -0.1192 -0.0786 -0.2319
32022W        W48206   2.097   4.685  13.742 -0.0230  0.1013 -0.0547
32023W        W48207  14.041  15.345  11.388 -0.2131 -0.2370 -0.0174
32024W        W48208  12.068   1.276   1.541 -0.0773 -0.0847 -0.0451
32025W        W48209   3.416  11.148   2.709  0.3886 -0.0797  0.3486
32026W        W48210  10.626  13.340   0.053  0.0914 -0.1660 -0.1817
32027W        W48211   7.975  15.717   2.271 -0.4717  0.1127 -0.0539
32028W        W48212   5.291   7.285   3.498  0.2665 -0.0163  0.0828
32029W        W48213  14.290  17.258   0.814  0.0533  0.2324  0.0070
32030W        W48214   3.889   1.756   4.669 -0.0405  0.0972  0.4985
32031W        W48215  14.963  12.032   5.208 -0.0032 -0.0899 -0.2234
32032W        W48216   6.261  16.846   0.245 -0.1421  0.0184  0.1358
32033W        W48217  10.612   9.423  16.045 -0.1301 -0.1286  0.1840
32034W        W48218   2.956   4.796  11.208 -0.0508 -0.1280 -0.2014
32035W        W48219   3.567   2.343  12.976  0.0925  0.0867 -0.5131
32036W        W48220   6.403   1.112  10.678  0.1380  0.0249 -0.5144
32037W        W48221  16.504  12.373  13.274 -0.1299  0.1894 -0.2880
32038W        W48222  15.455  14.399   1.913 -0.1105 -0.2577  0.0325
32039W        W48223   4.422   6.005  15.412 -0.0817  0.2722  0.1532
32040W        W48224   3.202  17.421  15.461 -0.0394 -0.2420 -0.0870
32041W        W48225   5.204  16.178  13.969 -0.2980  0.0012 -0.4045
32042W        W48226  16.293   2.177   2.127  0.1209  0.1969 -0.1265
32043W        W48227   4.339  15.501  12.791  0.2651  0.0791 -0.1952
32044W        W48228   3.961   9.592   1.914 -0.1683  0.1136 -0.3359
32045W        W48229  12.200  17.787  13.507 -0.0915  0.2853  0.3480
32046W        W48230   8.818   7.810   1.232 -0.0390  0.1049 -0.3374
32047W        W48231  13.803  15.737  11.096 -0.1439 -0.0148  0.1334
32048W        W48232   1.218   7.557  11.286  0.2096 -0.4786 -0.1899
32049W        W48233   4.311  11.011   2.228  0.4581 -0.1350  0.0080
32050W        W48234   3.084  17.485  15.929 -0.0635 -0.5386 -0.1950
32051W        W48235  11.606  14.261  10.711  0.3333  0.0857  0.2022
32052W        W48236   3.004   7.816  15.790 -0.1617 -0.1322  0.3141
32053W        W48237   6.776  16.826  11.543  0.2214  0.0372 -0.3264
32054W        W48238   2.485   1.606  12.798 -0.0023 -0.2208  0.0557
32055W        W48239  15.309   9.769  14.747 -0.3780  0.0014 -0.1338
32056W        W48240   9.575   8.233   1.759  0.1694  0.0737 -0.1887
32057W        W48241   5.630  14.289   0.081 -0.0332 -0.1748  0.0539
32058W        W48242   6.070   4.265   3.327  0.1280  0.2138  0.2553
32059W        W48243   3.341   3.686  13.619  0.1901 -0.0049  0.0884
32060W        W48244   9.152  17.233  15.941  0.1894  0.3008  0.0965
32061W        W48245   7.896   4.733   1.949 -0.3098  0.0052 -0.2097
32062W        W48246   3.692   3.505   0.170  0.0452  0.1878  0.0745
32063W        W48247   1.694   3.727  13.463 -0.1735 -0.1132 -0.0530
32064W        W48248   0.016   9.800   2.929  0.0975 -0.0245  0.1322
32065W        W48249  17.013  14.810   4.758 -0.4118  0.1324  0.0735
32066W        W48250   1.816   5.625   4.859 -0.0855  0.3436 -0.0006
32067W        W48251  13.747   8.860  13.289  0.4486  0.4566 -0.1375
32068W        W48252  15.433  15.599  14.167  0.6592  0.3783 -0.1880
32069W        W48253   9.732  16.232  11.317  0.0755  0.4154 -0.3595
32070W        W48254  11.421  14.016   1.678 -0.1555 -0.1213  0.2479
32071W        W48255  14.835   5.807   5.330 -0.2593 -0.0148 -0.1072
32072W        W48256   4.872  16.182  12.177 -0.7278  0.1611  0.0367
32073W        W48257  15.841  12.731  11.290  0.3628 -0.1181 -0.0384
32074W        W48258   6.848  13.404   3.414  0.4451  0.0396  0.2396
32075W        W48259   8.265   0.589  15.286  0.2028  0.1631  0.0604
32076W        W48260   4.516   8.734  15.728  0.1585 -0.0820 -0.0753
32077W        W48261  14.647  16.885  14.682  0.0452  0.4019 -0.2855
32078W        W48262   4.178   7.016  11.516  0.0142 -0.1154  0.2044
32079W        W48263   0.488  15.102  12.036  0.1812  0.3503  0.2947
32080W        W48264   7.269  10.365   5.545  0.1507 -0.1832  0.2891
32081W        W48265   4.037  13.411   5.011  0.5099 -0.0026 -0.0585
32082W        W48266   9.303  14.591  12.635 -0.2776 -0.0100 -0.0218
32083W        W48267  15.844   9.771   0.202  0.2372  0.2626 -0.2866
32084W        W48268   1.870  14.978   1.246  0.2016  0.2427 -0.1075
32085W        W48269  11.636   4.252  15.006 -0.1295  0.1943  0.0853
32086W        W48270  12.751   6.381   4.429  0.1353  0.1882  0.0166
32087W        W48271  12.457   9.824   2.632  0.1480  0.0957 -0.1024
32088W        W48272   9.631   0.607   0.656 -0.1905  0.2349  0.0900
32089W        W48273   3.166   0.764  14.233 -0.1100 -0.0421 -0.1150
32090W        W48274   0.482  16.333  13.101 -0.0309 -0.2880  0.2121
32091W        W48275   5.937   0.796  14.963 -0.3402  0.0839 -0.2653
32092W        W48276   2.557  15.163  16.024 -0.0628 -0.3685 -0.3529
32093W        W48277  18.069  12.903  15.954 -0.0439 -0.1761  0.3118
32094W        W48278  15.060  16.437  12.059  0.2100  0.0394  0.0611
32095W        W48279  11.069   1.823   3.649  0.0854 -0.3268  0.1257
32096W        W48280   0.623  12.002   3.961  0.1791  0.4411 -0.0437
32097W        W48281  15.459   9.284  11.510 -0.1585 -0.2412  0.1883
32098W        W48282  11.090   8.605   4.314 -0.0115 -0.0834  0.2371
32099W        W48283   9.492   1.572  13.808  0.1430  0.0614  0.0695
32100W        W48284  16.388   5.111  14.604 -0.0903  0.2771 -0.0695
32101W        W48285   7.530  11.794   1.100  0.2158  0.0233  0.0837
32102W        W48286  17.821   3.506  13.286  0.0224  0.4033  0.0249
32103W        W48287   0.828  12.712   2.517 -0.4845  0.1125  0.0123
32104W        W48288   2.585   4.215   0.672  0.0079  0.1378  0.1005
32105W        W48289   5.387   1.014   0.948  0.0817  0.1345 -0.0233
32106W        W48290  14.856   1.809  14.179  0.5496  0.2959  0.0778
32107W        W48291   6.146  13.586  15.284  0.1341 -0.0321 -0.0314
32108W        W48292   5.284  15.496   3.060  0.2283  0.1388  0.2427
32109W        W48293   5.624   4.156   2.424  0.2412 -0.1613 -0.4703
32110W        W48294  16.514   0.698   1.331 -0.1074  0.0076  0.1813
32111W        W48295  12.675   2.715  11.343  0.1310  0.4717 -0.1931
32112W        W48296  14.376  13.787  13.755 -0.1615 -0.0710  0.4836
32113W        W48297   4.916  17.307  11.985  0.2458  0.1349  0.0341
32114W        W48298   7.998   8.467  12.270 -0.1700 -0.2872 -0.1308
32115W        W48299  14.887   8.892  14.917  0.1329 -0.0580  0.3598
32116W        W48300   6.020   4.464   4.829  0.0441  0.2747 -0.0184
32117W        W48301   2.466  14.423  11.245 -0.2841  0.1789 -0.3864
32118W        W48302  18.076  14.912   1.524 -0.0204 -0.0632 -0.1537
32119W        W48303   7.712   7.567   0.332  0.2684 -0.0600  0.0442
32120W        W48304  16.042  17.672   0.507  0.0135  0.0033 -0.1973
32121W        W48305   8.351   6.012   1.299  0.1199  0.0458 -0.0166
32122W        W48306   8.406  13.966   5.388 -0.2473  0.1241 -0.4050
32123W        W48307  16.054  14.224   0.709 -0.1411 -0.0524  0.0989
32124W        W48308  18.435   5.309  12.080 -0.0597  0.2818 -0.1611
32125W        W48309  17.226  12.382   2.284  0.1847 -0.0726  0.2299
32126W        W48310  13.281  12.800  15.462 -0.0486 -0.5420  0.1283
32127W        W48311   2.635  13.152  13.609  0.0350 -0.1549 -0.0751
32128W        W48312  14.037  10.774   3.628  0.0204 -0.1538  0.4713
32129W        W48313   6.768  12.995  11.396  0.1848  0.2871  0.0433
32130W        W48314   7.815   7.939   2.138 -0.0816  0.1093 -0.0476
32131W        W48315   1.839   0.832  12.619  0.2627  0.3951 -0.1588
32132W        W48316  13.703  12.504   5.971  0.2777  0.2112 -0.1257
32133W        W48317  11.804  12.324  13.403 -0.0458  0.1212  0.1662
32134W        W48318   8.360  12.896   0.027 -0.2067  0.0284 -0.0504
32135W        W48319  18.131  15.740  12.429 -0.3991 -0.3150  0.0709
32136W        W48320  11.639  10.654   3.632  0.1053  0.2688  0.0565
32137W        W48321  16.552   3.228  13.303  0.0797  0.1669  0.0035
32138W        W48322  18.498   1.023   5.004  0.0235  0.0667  0.3910
32139W        W48323  10.022  18.118  16.023 -0.0985 -0.0818  0.2041
32140W        W48324   4.360   9.589  15.442 -0.0649 -0.2312  0.0891
32141W        W48325  11.443  17.196   4.072 -0.0256  0.0213  0.3477
32142W        W48326  11.409  15.675   1.537  0.1940  0.2027 -0.0982
32143W        W48327   3.983  17.868  11.111 -0.1002  0.1947  0.0725
32144W        W48328   6.683  12.781   3.834 -0.1066  0.0973  0.1637
32145W        W48329  15.433  10.600  11.095  0.0106  0.3056 -0.1364
32146W        W48330  10.273  17.161   2.076 -0.1092 -0.1363 -0.1751
32147W        W48331  17.160   9.441   0.026  0.2097  0.2011 -0.2299
32148W        W48332   2.619   0.093  14.390 -0.1210 -0.4733  0.0031
32149W        W48333  13.509   3.366   2.040 -0.2830 -0.1255  0.0195
32150W        W48334  14.108   0.916   0.976 -0.0571 -0.6198 -0.0415
32151W        W48335   2.529  17.676   1.762  0.0096  0.0792 -0.0415
32152W        W48336   2.225   2.165   4.407  0.1009  0.4386 -0.3414
32153W        W48337   0.230  14.427  12.629  0.1152  0.2782  0.0140
32154W        W48338  11.840  13.253  13.275 -0.0062  0.2710 -0.2638
32155W        W48339   5.825  13.316  12.341 -0.0366  0.1115 -0.1359
32156W        W48340  15.308  11.552  15.253  0.1885  0.4063 -0.3652
32157W        W48341   0.320   4.270  11.415 -0.2463  0.3369  0.0876
32158W        W48342  13.140   1.875  14.465  0.5387  0.0479  0.1725
32159W        W48343   7.070   7.095   4.558 -0.1724 -0.0658 -0.2277
32160W        W48344   4.296   9.357  14.122  0.0188 -0.1967  0.3759
32161W        W48345  13.416  12.757  12.334  0.2642  0.7029  0.1562
32162W        W48346   0.003  18.108  13.158  0.0620  0.0849 -0.2433
32163W        W48347   7.449   7.467  12.757  0.4258  0.0760 -0.3029
32164W        W48348  10.782  11.437   2.394 -0.0225 -0.0525 -0.0163
32165W        W48349  15.126  16.940   0.946  0.0653  0.0713 -0.2918
32166W        W48350  12.882   5.071   1.288  0.2984 -0.0564 -0.0958
32167W        W48351   2.617   4.569  13.001 -0.3278  0.0404  0.1230
32168W        W48352  15.341   9.902   4.330 -0.2839  0.1544  0.0367
32169W        W48353   1.685  15.430   3.823 -0.1710 -0.1455  0.0415
32170W        W48354   0.671   8.983   2.730  0.1007  0.2064  0.0240
32171W        W48355   0.473  18.367  14.720  0.1254 -0.4192 -0.1055
32172W        W48356   2.769  12.761  15.880  0.0420 -0.0241 -0.2721
32173W        W48357  14.236   5.150  12.615  0.2411 -0.2214 -0.1305
32174W        W48358  17.936  17.693  16.042 -0.1673 -0.0015 -0.0537
32175W        W48359  10.665   3.447   4.785 -0.1481 -0.0468 -0.1609
32176W        W48360  10.187  14.280  12.868 -0.1127  0.0079 -0.1407
32177W        W48361   4.427  15.006  13.297 -0.0197  0.2258  0.0900
32178W        W48362  12.545  13.472   0.606  0.0295 -0.3474 -0.0453
32179W        W48363   1.820   3.203  13.953 -0.3070 -0.4705 -0.2085
32180W        W48364   4.525   6.042   5.010 -0.0863 -0.1223 -0.2150
32181W        W48365  16.847  17.853  12.215  0.0103  0.1769  0.0303
32182W        W48366   9.140  17.076   3.933 -0.3749 -0.0959  0.2607
32183W        W48367  15.784   8.833  13.588  0.3236 -0.1275  0.0590
32184W        W48368  18.226   3.133   4.701  0.2351  0.3619 -0.0090
32185W        W48369   7.117   2.598  11.636  0.0441 -0.1065  0.4222
32186W        W48370   1.154   1.417  12.722  0.1324  0.2229  0.1296
32187W        W48371   1.358  16.376  10.974 -0.0237 -0.0213  0.2877
32188W        W48372  15.102  18.204  14.463  0.0329  0.3156 -0.0685
32189W        W48373   5.206  11.414   4.760 -0.0580  0.3102  0.0916
32190W        W48374   3.397   6.672   2.499  0.1509  0.0391  0.2945
32191W        W48375  10.988  16.610  14.133  0.0380  0.0274 -0.0084
32192W        W48376  10.060  11.230   5.593  0.3621 -0.0809  0.0658
32193W        W48377  16.773   5.184  12.161 -0.0183 -0.5786 -0.2813
32194W        W48378   0.823   9.321  13.336  0.0245  0.2374  0.2322
32195W        W48379   4.679  16.816   1.381  0.3302 -0.1700  0.1255
32196W        W48380  11.890   5.162  12.178 -0.1550 -0.1478 -0.0169
32197W        W48381  15.138  15.359  11.562  0.1184 -0.2346  0.0700
32198W        W48382   2.836   9.028  15.834 -0.1152 -0.0468 -0.1189
32199W        W48383   7.043  14.399   2.948 -0.3053  0.0669  0.3950
32200W        W48384   4.137  13.983   3.759 -0.1531  0.1574  0.0718
32201W        W48385   7.826  13.054  13.537 -0.1167  0.0178 -0.2446
32202W        W48386   0.373   4.517  12.633 -0.1298  0.2879 -0.0980
32203W        W48387   5.666  17.750   0.196 -0.0449  0.2714 -0.0626
32204W        W48388   7.783   5.156  14.900  0.0662  0.3186  0.3345
32205W        W48389   9.643   2.217   0.513 -0.1391 -0.1854 -0.0436
32206W        W48390   2.526   6.704   0.537 -0.0574  0.0412 -0.0384
32207W        W48391   6.781   5.410  14.894 -0.1344  0.0243 -0.1226
32208W        W48392   3.227   0.180  13.437  0.2842 -0.2234  0.3256
32209W        W48393   6.233  17.645  13.001  0.0497 -0.0789  0.4793
32210W        W48394  15.020  18.289  11.420 -0.2353  0.1757  0.1404
32211W        W48395   3.433  12.474  15.322  0.0567  0.2635  0.0533
32212W        W48396   5.467  18.242  14.301 -0.1649  0.3155  0.0907
32213W        W48397   2.412   2.634  11.955  0.3403  0.3467  0.0178
32214W        W48398   6.828  15.182  14.481 -0.1626  0.0253 -0.1992
32215W        W48399  12.373  13.851  14.580  0.0515 -0.2328 -0.1668
32216W        W48400   6.294   0.471   0.802 -0.0335  0.1623  0.2283
32217W        W48401  11.702  17.680  11.888  0.2034 -0.1065  0.0678
32218W        W48402   5.776  15.099  15.700 -0.2349 -0.0638  0.3979
32219W        W48403  14.832   5.329   4.214  0.2071  0.1773  0.2565
32220W        W48404   2.243   5.287   4.247  0.0151  0.1978  0.0050
32221W        W48405  13.143   7.118   4.158  0.0221  0.2089  0.3873
32222W        W48406  17.162   9.852  14.578 -0.4464 -0.3100  0.2832
32223W        W48407  11.402   7.965  12.427 -0.0746  0.0436  0.1165
32224W        W48408   5.998   8.483  15.055  0.0455  0.0113  0.0097
32225W        W48409   7.263  16.816  15.235 -0.0839  0.4347 -0.1227
32226W        W48410   6.248  11.535  13.489 -0.3260  0.3316 -0.2880
32227W        W48411   5.887  11.606   1.991  0.3371 -0.3113  0.2918
32228W        W48412  14.929   4.704   4.019 -0.0431 -0.0359 -0.1164
32229W        W48413   8.005  14.403   1.691  0.4998 -0.0109  0.1266
32230W        W48414  13.154   5.500   4.967  0.1279  0.1336  0.0118
32231W        W48415  11.833   5.106  13.004 -0.1110 -0.0197  0.1131
32232W        W48416  11.602  17.790   2.110  0.2370 -0.2210  0.0469
32233W        W48417   7.017   8.125  15.245 -0.2646  0.0689 -0.0482
32234W        W48418   6.882   3.769   2.528  0.0715 -0.2510 -0.2394
32235W        W48419  14.418   7.310   5.701  0.2183  0.1854 -0.4624
32236W        W48420   0.406   0.609   1.094  0.1460  0.2713  0.1378
32237W        W48421   9.203  13.458   1.768  0.0816 -0.1236  0.4282
32238W        W48422   2.778  10.104   0.147  0.2847  0.0289  0.0776
32239W        W48423  16.601  15.570  13.064 -0.1137  0.0866 -0.2017
32240W        W48424   6.720  12.508  16.047  0.0423 -0.0123 -0.2243
32241W        W48425   6.657   1.698  14.860  0.1425 -0.2441 -0.2065
32242W        W48426  18.238  10.698  15.894  0.1297  0.2361  0.0737
32243W        W48427  14.182  15.861  11.431  0.0103  0.1005  0.1231
32244W        W48428  17.376   3.418   1.194 -0.2090  0.2140  0.1531
32245W        W48429  16.477  13.810   0.872  0.5071 -0.0582  0.1700
32246W        W48430  14.504   0.392   2.951 -0.0667  0.1123 -0.3020
32247W        W48431   7.838  11.047  12.229  0.0046 -0.0046  0.2144
32248W        W48432   6.215   5.778  11.185 -0.0990 -0.1103 -0.3450
32249W        W48433   6.079   5.036  14.595 -0.0098  0.1319 -0.2169
32250W        W48434  12.267   8.150  14.215  0.3205 -0.2612 -0.0998
32251W        W48435   5.618  18.097  15.831 -0.1965 -0.1397 -0.2145
32252W        W48436   2.292   5.115   5.597 -0.0562  0.1491  0.2887
32253W        W48437   4.751   0.285   0.686 -0.3208  0.1579 -0.0082
32254W        W48438   6.551   9.304   4.576  0.0554  0.2058 -0.1847
32255W        W48439  13.305  10.459  13.839  0.1815  0.1771  0.1607
32256W        W48440   5.892  16.227   1.266  0.0509  0.0991 -0.5755
32257W        W48441   7.774   8.823   5.386  0.2471  0.0986  0.2704
32258W        W48442  11.488  17.985   4.644 -0.1437  0.4182  0.2547
32259W        W48443   3.858   5.637  11.876  0.4153 -0.1061 -0.0248
32260W        W48444  14.540  17.250  15.949 -0.1595 -0.0009  0.1729
32261W        W48445   1.558  13.208   4.782 -0.2003  0.3111  0.2680
32262W        W48446  17.458  12.598   1.617 -0.2478 -0.1325 -0.0699
32263W        W48447  13.451   5.485  15.359 -0.1454 -0.0795  0.2558
32264W        W48448   6.746  17.113   5.070 -0.0229  0.3323 -0.2598
32265W        W48449   9.614  15.631   4.393 -0.1198 -0.0041 -0.4283
32266W        W48450   6.485  15.918  10.734 -0.0763 -0.3163  0.1593
32267W        W48451   2.065  16.383   4.905  0.1948 -0.0972  0.1075
32268W        W48452   5.894   9.458  11.671 -0.0066 -0.0990  0.0594
32269W        W48453  17.363  11.375   3.359 -0.0062  0.2786 -0.1559
32270W        W48454  15.273   0.141  13.270  0.0304  0.1180 -0.1843
32271W        W48455  17.535  17.636   4.274 -0.1104  0.1124  0.1041
32272W        W48456  12.120   1.329   2.214  0.4073 -0.1406  0.1605
32273W        W48457   4.077  15.860   4.002  0.1532 -0.0747 -0.0848
32274W        W48458  18.127  12.571  13.286 -0.2119  0.2415  0.0139
32275W        W48459  11.953   2.171  12.805  0.1564  0.3049  0.3433
32276W        W48460  10.464   3.092   5.548  0.0439  0.2674 -0.4845
32277W        W48461   8.878   2.778   0.146 -0.0112 -0.0803  0.0250
32278W        W48462  12.516  15.386   2.093  0.0470 -0.0009  0.3294
32279W        W48463  14.965   0.489   4.984 -0.0801 -0.0127 -0.2556
32280W        W48464   6.952   9.203   4.239 -0.0966  0.0884 -0.2393
32281W        W48465   7.144   9.726  13.588 -0.0036  0.1651 -0.1749
32282W        W48466  11.041   4.214   5.821  0.1155  0.2573 -0.3591
32283W        W48467  11.741   4.346  11.953  0.2637 -0.3135 -0.0383
32284W        W48468  12.728   6.752   1.503  0.0996  0.0447  0.0143
32285W        W48469  15.515  12.269  14.266  0.2914  0.0531  0.1293
32286W        W48470   5.172  14.763   4.093 -0.3083 -0.1718  0.0104
32287W        W48471  13.441  13.400   4.045 -0.1958 -0.2035 -0.1121
32288W        W48472  11.875   8.479   4.698  0.1522 -0.1421 -0.1063
32289W        W48473  14.504   3.748  13.456  0.1149  0.0712  0.0740
32290W        W48474  13.044   6.602   2.975 -0.1307 -0.0254  0.3969
32291W        W48475   0.248  10.326   6.124  0.0264  0.1774  0.4307
32292W        W48476  16.656  11.218   1.819  0.1801 -0.0311  0.0180
32293W        W48477  13.618   5.153  15.012 -0.0557  0.1186 -0.0135
32294W        W48478   7.481  12.918   3.413 -0.0777 -0.4820 -0.2578
32295W        W48479   6.455   7.317  13.714  0.2399  0.1855 -0.0981
32296W        W48480   2.655   5.748   5.595  0.1080 -0.3501  0.1602
32297W        W48481   0.320   4.073   0.357 -0.2109 -0.1464 -0.1585
32298W        W48482  15.752  16.296   2.162 -0.0128 -0.2631 -0.0236
32299W        W48483   0.002  12.756  14.393  0.0072  0.1778 -0.1075
32300W        W48484  10.627  14.901   4.918  0.2023 -0.1859  0.1944
32301W        W48485  11.061   2.101   2.230 -0.1416  0.1323  0.1730
32302W        W48486  18.032  15.699  12.930  0.2131  0.2209 -0.2680
32303W        W48487  10.560  15.415  11.722 -0.2182  0.1157  0.0014
32304W        W48488   8.032  12.788   1.849 -0.2917  0.0573 -0.1629
32305W        W48489   4.732  11.154   4.786 -0.2838 -0.3634  0.0433
32306W        W48490  18.102   8.157  11.582 -0.0116  0.0695 -0.0853
32307W        W48491  13.395   8.913   5.478  0.1733 -0.3519 -0.3023
32308W        W48492   4.100  18.330   3.011 -0.1477 -0.3137 -0.1728
32309W        W48493  11.775  12.099  15.405 -0.2527 -0.1697 -0.0150
32310W        W48494  12.248  13.708  12.624  0.3001 -0.0768 -0.1323
32311W        W48495  11.393   9.228   2.177 -0.1086  0.2593  0.2712
32312W        W48496  14.333   4.357   2.868  0.0005 -0.0827 -0.0641
32313W        W48497  15.518  15.942   0.080  0.3190  0.0154  0.0285
32314W        W48498   2.025   6.697   5.186 -0.1912  0.0716  0.0100
32315W        W48499   0.354   3.950   5.346 -0.0920 -0.2529  0.0055
32316W        W48500   0.771  12.306  14.012 -0.0069 -0.0651 -0.1871
32317W        W48501  13.548  17.058  10.848 -0.0418  0.3812 -0.0661
32318W        W48502   5.057  16.655   1.058  0.0817 -0.0447 -0.0136
32319W        W48503   8.454   7.850   5.238 -0.1508 -0.4155 -0.2939
32320W        W48504  12.685   3.335  12.149 -0.0267  0.0081 -0.1640
32321W        W48505  17.609   4.066   3.238 -0.0778  0.0994 -0.2128
32322W        W48506   8.761   9.669  13.179 -0.0426 -0.0740  0.0040
32323W        W48507   9.571   3.548   0.905 -0.0588  0.1034  0.2358
32324W        W48508   3.449  16.516   3.072 -0.5793 -0.2095  0.2401
32325W        W48509  15.551   6.910   1.018 -0.2873  0.2169  0.0003
32326W        W48510   4.637   0.635   3.036  0.0012 -0.2738 -0.4532
32327W        W48511   3.196   4.333  11.987  0.2053 -0.1768  0.0606
32328W        W48512  16.244   6.209  13.418  0.3033 -0.3996 -0.1231
32329W        W48513   3.226   2.755  14.144  0.1500  0.0657 -0.1318
32330W        W48514   7.185  10.865  13.536 -0.2777  0.1923  0.5063
32331W        W48515  12.549  10.119  12.319  0.0537 -0.2019  0.1021
32332W        W48516   1.608  14.013  10.939 -0.0323  0.2725 -0.0735
32333W        W48517   4.638   3.130   2.124  0.1892  0.0639 -0.1105
32334W        W48518  18.399  10.716   1.085 -0.1628  0.2971 -0.1305
32335W        W48519   2.233   9.534   0.427  0.0964  0.0641 -0.1308
32336W        W48520   9.188   2.949  14.984 -0.1265 -0.2643 -0.0111
32337W        W48521   3.979  11.134  14.675 -0.0865  0.3438 -0.0364
32338W        W48522   6.261  16.644  11.014 -0.1336 -0.0454  0.0703
32339W        W48523  16.939   0.858  15.008  0.0677  0.2656  0.0753
32340W        W48524   4.210   1.747   9.671  0.2293  0.0202  0.0293
32341W        W48525   0.437   8.189   0.058  0.0678  0.0748 -0.1656
32342W        W48526  15.930  16.617  11.610 -0.3822  0.2537 -0.1390
32343W        W48527   8.216  15.543  13.596 -0.1521 -0.0521 -0.0351
32344W        W48528   4.544   3.915   0.167  0.2123  0.1084 -0.0186
32345W        W48529  11.758  15.575  11.996 -0.3822 -0.1433 -0.1930
32346W        W48530  14.577  15.826   2.636  0.1209  0.1831  0.2043
32347W        W48531  11.859  14.385   0.167  0.3742  0.3623 -0.3323
32348W        W48532   1.403  13.335  16.055 -0.0589  0.1855  0.0101
32349W        W48533  14.780  15.682   5.499 -0.1731 -0.1115  0.0994
32350W        W48534   6.736   2.953   3.140  0.0061 -0.0321  0.1391
32351W        W48535   1.471  11.817   1.288  0.0614 -0.1274 -0.1861
32352W        W48536   4.104   5.915  12.385 -0.3480 -0.0980  0.1730
32353W        W48537  10.854   6.865   4.890  0.0829 -0.2086 -0.0309
32354W        W48538  15.019  13.614   2.333  0.1172  0.1339  0.1811
32355W        W48539   6.173   5.452  14.810 -0.2331 -0.1268 -0.1438
32356W        W48540   6.085  12.568   2.010 -0.0058 -0.1805 -0.0588
32357W        W48541   7.039  16.705   1.748 -0.1187  0.0389  0.5920
32358W        W48542  16.635   9.103   3.443 -0.1985 -0.0311  0.0444
32359W        W48543  17.330  16.747   1.120  0.0859  0.2499  0.1672
32360W        W48544   4.642  13.842   1.090  0.1123 -0.3602 -0.0110
32361W        W48545   4.320  14.392   2.736  0.1115 -0.0973  0.1468
32362W        W48546  16.171   7.236  16.117 -0.1635  0.1537  0.2735
32363W        W48547  11.468  18.511   2.582  0.1787 -0.3328  0.1798
32364W        W48548  16.657   7.689   1.459  0.1782  0.1801 -0.1701
32365W        W48549  17.357  12.439   3.659  0.3061  0.1361  0.0264
32366W        W48550  11.852   0.528   0.047  0.1262  0.1738 -0.2207
32367W        W48551   6.303   4.704   3.373  0.0286 -0.1611 -0.1464
32368W        W48552  17.539   7.553  12.765  0.1035 -0.0687  0.0109
32369W        W48553  10.216   7.233  12.314  0.0115 -0.1824  0.1339
32370W        W48554   3.145   0.514   1.781  0.2943  0.0992  0.1330
32371W        W48555  16.346   1.484  13.949  0.3849 -0.1422  0.1581
32372W        W48556  12.040   6.709  12.724  0.0256 -0.3275  0.1240
32373W        W48557   5.278  12.733   4.840  0.0282 -0.0523  0.0087
32374W        W48558  13.916   6.181  13.086  0.1159  0.2869 -0.0731
32375W        W48559  14.418   2.239   1.160  0.3012 -0.0827  0.3620
32376W        W48560   8.359  10.876  15.103 -0.4130 -0.1237  0.1384
32377ION     NA48561   0.103  12.386   0.335  0.1202 -0.0870 -0.2076
32378ION     NA48562   0.805   8.696   0.426 -0.1800 -0.0171  0.1649
32379ION     NA48563  16.608   9.371  10.428  0.1033  0.2060 -0.2088
32380ION     NA48564   8.312  14.998  10.658  0.1088 -0.0041 -0.0328
32381ION     NA48565  15.494  14.111  12.952  0.1899 -0.0456 -0.2100
32382ION     NA48566  15.933  17.603  10.032  0.2106  0.1097 -0.1335
32383ION     NA48567  14.793  11.975   5.761 -0.3135  0.0359  0.1058
32384ION     NA48568   5.299   6.378  14.320  0.0403 -0.1872 -0.1308
32385ION     NA48569  15.161   3.847  10.424  0.0174 -0.3154  0.0015
32386ION     NA48570   4.159  17.639  10.154  0.4833 -0.3651 -0.1133
32387ION     NA48571   1.271  13.290  15.170  0.1219  0.2543 -0.0458
32388ION     NA48572   2.983   0.180   9.834 -0.2413  0.1248  0.1268
32389ION     NA48573  12.287   8.803   6.091  0.0528 -0.0270 -0.0117
32390ION     NA48574   4.500   1.407   5.494  0.3485  0.3187 -0.0494
32391ION     NA48575   5.156   3.308  10.134  0.0028 -0.3450 -0.1921
32392ION     NA48576  10.287  12.603   5.439 -0.0701  0.0577 -0.0264
32393ION     NA48577   9.097   9.970  10.579  0.1094  0.3121 -0.1089
32394ION     NA48578   6.620   3.436  10.816  0.4689  0.1139  0.0588
32395ION     NA48579  14.780   5.259  10.368 -0.1283  0.1183  0.0205
32396ION     NA48580   7.550  14.823  10.703 -0.3941 -0.0491 -0.1320
32397ION     NA48581   7.675  11.984  14.233 -0.0283  0.4276  0.0708
32398ION     NA48582   8.703   7.507  10.815  0.0636  0.2079  0.0440
32399ION     NA48583  12.017  14.548  10.599  0.0173  0.3660  0.0113
32400ION     NA48584   8.069   4.968   0.450 -0.0941 -0.0902  0.2193
32401ION     NA48585  17.619  16.468  10.097  0.1444 -0.2218  0.3641
32402ION     NA48586   0.994  13.513  12.379  0.3328 -0.1172  0.2145
32403ION     NA48587  13.230   9.466  10.589 -0.1279 -0.2167 -0.0387
32404ION     NA48588  18.045  15.378  10.183 -0.0415 -0.0034 -0.0058
32405ION     NA48589  16.011  16.902   2.026 -0.1312 -0.0917 -0.0275
32406ION     NA48590   4.243  16.714   2.660 -0.1100 -0.0194  0.2490
32407ION     NA48591   1.640  14.056  10.425 -0.0730  0.0607 -0.0733
32408ION     NA48592   5.413   9.322  10.539  0.0896  0.2182  0.0364
32409ION     NA48593  12.293   5.876   6.134  0.0797  0.0777 -0.3428
32410ION     NA48594   4.427   8.676   6.049  0.0976 -0.1390 -0.1135
32411ION     NA48595   1.314   0.461   9.810  0.3242  0.0773 -0.1297
32412ION     NA48596   9.851   9.194  10.433 -0.2840 -0.2301  0.1542
32413ION     NA48597   4.515   6.619  10.598  0.1635 -0.2381  0.0526
32414ION     NA48598   9.435   6.697  10.453  0.0208 -0.4771 -0.0906
32415ION     NA48599   8.237   6.689  10.806 -0.1422 -0.3194  0.0353
32416ION     NA48600   0.202   4.479   9.861 -0.1134 -0.2211 -0.1100
32417ION     NA48601  11.677  17.599  13.650  0.1375  0.2973  0.0437
32418ION     NA48602   9.301  16.478   0.723  0.0564 -0.1535 -0.0802
32419ION     NA48603  15.815  14.963  10.323 -0.0002  0.0834 -0.0983
32420ION     NA48604   4.293  11.471   1.491  0.1529  0.0767  0.0343
32421ION     NA48605  10.654  12.739  10.673  0.1158  0.2433 -0.1813
32422ION     NA48606  11.108   5.656  13.101  0.4186 -0.0824 -0.0262
32423ION     NA48607  15.666  15.362   3.685  0.3767 -0.0875  0.1589
32424ION     NA48608  14.431   6.032  10.532  0.3317 -0.0136 -0.0510
32425ION     NA48609  13.121  13.064  10.466  0.1344  0.2164  0.0312
32426ION     NA48610  12.065   5.651  10.417  0.0388  0.1399  0.1923
32427ION     NA48611  16.346   0.406   9.741 -0.0100 -0.3814  0.0136
32428ION     NA48612  11.369   9.701  10.445  0.1557 -0.2388 -0.1601
32429ION     NA48613   4.511   2.620   0.782  0.2109  0.0216  0.1715
32430ION     NA48614  10.475   3.535   5.731  0.0250 -0.2401 -0.0657
32431ION     NA48615  17.198   0.277   9.646  0.1937  0.0166 -0.0390
32432ION     NA48616  10.708   8.303   6.156  0.0748 -0.0484 -0.0046
32433ION     NA48617  11.516  15.269  10.813  0.2539  0.1114 -0.2270
32434ION     NA48618  16.681  10.040   5.937  0.1786  0.0100  0.0635
32435ION     NA48619  16.355   8.976  11.564  0.0834  0.2172  0.2889
32436ION     NA48620   6.757   3.088   5.603 -0.0180  0.0229 -0.0910
32437ION     NA48621   2.610  16.043   4.352  0.3333  0.0344  0.0807
32438ION     NA48622   0.730  12.877   5.944  0.2909  0.0464  0.0520
32439ION     NA48623  17.495  10.901   2.604 -0.0704 -0.0386 -0.0944
32440ION     NA48624   8.669   0.047   4.626  0.5381  0.1482 -0.0435
32441ION     NA48625  15.465   5.855  10.365 -0.1367 -0.3194 -0.0079
32442ION     NA48626  17.270   0.402   5.597 -0.0453  0.2808 -0.0802
32443ION     NA48627  10.627   8.720  10.347  0.3351  0.0203 -0.0882
32444ION     NA48628   2.249   0.510  15.927  0.0497 -0.0971 -0.1621
32445ION     NA48629  16.341  11.530  10.365 -0.0560 -0.0853 -0.1043
32446ION     NA48630  11.175   4.636   5.038  0.1047 -0.2982 -0.0696
32447ION     NA48631   4.623  10.946  10.693  0.4744 -0.0482 -0.2816
32448ION     NA48632   1.740  17.766   9.683 -0.2108 -0.2213 -0.0038
32449ION     NA48633  13.943   2.540  10.362  0.0136  0.0664 -0.0611
32450ION     NA48634  10.916  16.059  11.027 -0.1608  0.3037 -0.0374
32451ION     NA48635   3.206  14.837   0.844 -0.1518  0.0057 -0.0020
32452ION     NA48636   6.063  15.090   5.742  0.1267 -0.1874  0.2120
32453ION     NA48637  17.657   1.084   9.624 -0.0301 -0.1036  0.1369
32454ION     NA48638  11.564   8.764  10.507  0.0259  0.2881  0.0692
32455ION     NA48639   8.527   0.379  10.398  0.2229  0.0922  0.1349
32456ION     NA48640  12.794   5.495   6.061  0.4091 -0.1092  0.0501
32457ION     NA48641   8.819   3.011  10.666 -0.0243 -0.0565  0.0213
32458ION     NA48642   8.284  18.008  10.563  0.2022 -0.2711  0.2120
32459ION     NA48643   0.726   5.532   3.565 -0.0477 -0.3179  0.0232
32460ION     NA48644  13.965   5.256  10.470 -0.0292  0.0308 -0.0117
32461ION     NA48645   6.517   0.373  10.069 -0.0507 -0.2476 -0.1019
32462ION     NA48646   4.973  18.103  10.092 -0.0993 -0.1397  0.0405
32463ION     NA48647   5.164   9.344   6.044 -0.0777  0.1071 -0.0200
32464ION     NA48648   8.928  17.315  10.682 -0.2141  0.1195  0.0438
32465ION     NA48649   5.595  11.319   1.004  0.2590  0.0513 -0.1859
32466ION     NA48650   8.217   9.716   2.882 -0.2613 -0.0697  0.1591
32467ION     NA48651   0.836   6.054   2.849 -0.0639  0.2890 -0.0967
32468ION     NA48652   3.628  11.487  15.328  0.1126 -0.1920  0.3977
32469ION     NA48653   1.925   2.679   1.363  0.1393  0.3076  0.0650
32470ION     NA48654   4.029   2.223  11.212 -0.1543  0.0826  0.2598
32471ION     NA48655  15.739  13.708   3.060 -0.1306 -0.1444 -0.0944
32472ION     NA48656   8.077   4.817  10.759 -0.0697  0.0810  0.0457
32473ION     NA48657  18.337   6.890   5.777  0.1469 -0.1068  0.2330
32474ION     NA48658  16.138   8.749  10.581 -0.0675 -0.0407 -0.3427
32475ION     NA48659   4.737   4.361   5.379  0.0638 -0.2535  0.3272
32476ION     NA48660   1.984   7.150  10.275  0.0613 -0.0072  0.0016
32477ION     NA48661  11.392   6.334  10.679 -0.0567 -0.0860  0.1110
32478ION     NA48662  13.418  15.494  14.717  0.0673  0.0677  0.2142
32479ION     NA48663  16.207  11.483  11.876 -0.1864  0.0253  0.0358
32480ION     NA48664   8.947  15.519  16.027  0.3082  0.1299 -0.1076
32481ION     NA48665   5.955   0.763  10.639 -0.0463 -0.1508  0.3241
32482ION     NA48666   5.958   6.002   5.627  0.4319 -0.2421 -0.0801
32483ION     NA48667   7.979   9.201   4.652 -0.1600 -0.1364 -0.2843
32484ION     NA48668   6.469  12.368   3.544  0.1061  0.0392  0.2135
32485ION     NA48669  16.397   3.283   9.872  0.1652  0.0967 -0.3431
32486ION     NA48670   0.667   5.255  10.054 -0.0470 -0.0904 -0.2912
32487ION     NA48671  16.910  13.710  10.346 -0.0344  0.1913 -0.0453
32488ION     NA48672  10.512  14.293   0.510 -0.0485 -0.0169 -0.1406
32489ION     NA48673   7.424   4.095  10.669  0.1810  0.0552 -0.2244
32490ION     NA48674   8.927  12.058  10.519  0.0932 -0.0667  0.1635
32491ION     NA48675   4.680   0.950   9.999  0.1025 -0.0330  0.2024
32492ION     NA48676   2.241   7.520   1.213  0.3367 -0.3822  0.1893
32493ION     NA48677   9.781  18.436  10.932  0.0225  0.3033 -0.0723
32494ION     NA48678   4.667  15.908   4.122 -0.0791  0.0502 -0.1348
32495ION     NA48679   5.431  17.214  12.162 -0.0640 -0.0468  0.0229
32496ION     NA48680  11.914  17.528  10.642 -0.3104  0.0419 -0.0750
32497ION     NA48681  16.722   1.943   5.337  0.0265 -0.0577 -0.1641
32498ION     NA48682   0.712   7.106  13.108 -0.2454  0.2136  0.2755
32499ION     NA48683   5.947   9.929   5.737  0.0024 -0.5285 -0.1144
32500ION     NA48684  17.565   9.688  10.509 -0.1086 -0.1067 -0.1794
32501ION     NA48685  16.563   7.893  10.647  0.1060 -0.0055 -0.1024
32502ION     NA48686  15.950   4.404  10.194  0.1180 -0.1585 -0.0287
32503ION     NA48687   2.887   9.412  10.743  0.0620  0.0438  0.1666
32504ION     NA48688  17.153   7.571   1.254  0.1761 -0.0711  0.0052
32505ION     NA48689  13.449  10.335   5.641  0.1149  0.0726 -0.0265
32506ION     NA48690   2.120   7.848  10.364 -0.0138  0.5152 -0.3408
32507ION     NA48691   3.273  17.833  10.013 -0.2661  0.0728 -0.2228
32508ION     NA48692   7.966   5.710  10.725 -0.0401 -0.1278 -0.0705
32509ION     NA48693   0.841   1.848   5.045 -0.0970 -0.0994  0.0502
32510ION     NA48694   1.136  16.148   9.960  0.3798  0.0022  0.0241
32511ION     NA48695  15.410  13.524   5.711  0.0830  0.0129 -0.1679
32512ION     NA48696   5.229   5.703   4.842 -0.1603  0.1006 -0.1086
32513ION     NA48697   6.651   8.172  10.669  0.0725  0.1874  0.0652
32514ION     NA48698   7.509   7.437   1.269 -0.1528 -0.2304 -0.0013
32515ION     NA48699   2.410  14.210  10.512 -0.0595  0.0578  0.2563
32516ION     NA48700   2.555   5.495  10.264 -0.0772 -0.0553 -0.1382
32517ION     NA48701   7.902   2.560   5.983 -0.1254 -0.2313  0.2716
32518ION     NA48702   5.902  13.628  10.445  0.1663 -0.0442 -0.3286
32519ION     NA48703  17.952  13.397  10.587 -0.2101  0.1626  0.1754
32520ION     NA48704  15.741   8.518   5.625 -0.0802  0.0292  0.1456
32521ION     NA48705  15.304   0.558   9.819 -0.1613 -0.1692  0.1465
32522ION     NA48706   6.221  13.317   5.060  0.1073 -0.2061  0.0832
32523ION     NA48707   1.087   5.922  14.121 -0.2507  0.2709 -0.0328
32524ION     NA48708  15.840  10.839  10.343 -0.1490 -0.1202  0.1153
32525ION     NA48709  11.155   2.765  10.310  0.3480 -0.2752 -0.1912
32526ION     NA48710   7.189  12.128  10.276  0.0290 -0.0949  0.0840
32527ION     NA48711   3.485  16.952  10.279  0.0850  0.1035 -0.1989
32528ION     NA48712   3.097   7.975  10.538 -0.2483 -0.1636  0.0107
32529ION     NA48713  11.167  14.935   4.323  0.0390 -0.1221  0.1180
32530ION     NA48714  16.309   7.692   5.908 -0.0690 -0.6687  0.0092
32531ION     NA48715  11.451  16.202  12.693 -0.7346 -0.5059 -0.0331
32532ION     NA48716  11.498  18.074   5.773  0.0752 -0.0526  0.1493
32533ION     NA48717   9.687   2.818   5.912 -0.2213  0.0145  0.4285
32534ION     NA48718   8.240  14.973   0.171  0.0360  0.1857  0.1691
32535ION     NA48719   0.549  11.819  10.527 -0.3174  0.0716 -0.2981
32536ION     NA48720  13.338  17.224  10.220  0.0454  0.2738 -0.0580
32537ION     NA48721   6.069   1.643  10.431 -0.2484  0.0803 -0.2135
32538ION     NA48722  11.584   0.588   1.198 -0.0373  0.3007  0.0662
32539ION     NA48723  11.233   8.321   6.216  0.0389  0.0238  0.0327
32540ION     NA48724  13.022   4.623  15.096 -0.0075  0.2520 -0.3413
32541ION     NA48725   3.162   3.179  10.270  0.0467 -0.1449  0.0448
32542ION     NA48726   5.215  18.006   3.611 -0.0895 -0.2696 -0.0014
32543ION     NA48727  15.555   1.900   9.657 -0.0146  0.1784  0.0135
32544ION     NA48728  10.944   3.764   5.666 -0.0124 -0.1619  0.0949
32545ION     NA48729   8.648   9.831   2.181  0.2427  0.1098  0.3014
32546ION     NA48730  12.366   7.247   4.813 -0.2706  0.3936 -0.0844
32547ION     NA48731  12.413   0.775  12.599  0.0208  0.0389 -0.1640
32548ION     NA48732   8.684   2.650  10.240 -0.1557 -0.0970 -0.0566
32549ION     NA48733   8.378   7.047   2.925  0.0247 -0.0466 -0.1793
32550ION     NA48734  17.582  17.814  10.285 -0.1822  0.0564 -0.0938
32551ION     NA48735  10.961   5.543   6.035  0.1656 -0.2519  0.1009
32552ION     NA48736  14.857   7.318  10.610  0.1556 -0.0690  0.1604
32553ION     NA48737   5.132  10.036  10.622  0.0266  0.0388  0.1663
32554ION     NA48738  13.013  11.025   3.776 -0.1006  0.0685  0.0885
32555ION     NA48739  16.871   5.759  10.414 -0.0311 -0.0398 -0.2742
32556ION     NA48740   6.409  13.357   5.954 -0.1359  0.1182 -0.1098
32557ION     NA48741   4.717   8.787  10.485 -0.3496  0.0331 -0.1857
32558ION     NA48742  17.889   1.452   5.660  0.3347  0.0755  0.0117
32559ION     NA48743   7.584  12.011   5.456 -0.0242  0.1892 -0.2011
32560ION     NA48744  14.486   6.729  15.969 -0.1680 -0.1501  0.0173
32561ION     NA48745   4.007   7.296  15.923 -0.1650  0.0157 -0.0319
32562ION     NA48746  18.185  12.078  10.564 -0.1706  0.3645 -0.1641
32563ION     NA48747  17.994   9.590  10.824 -0.0548 -0.2809  0.0271
32564ION     NA48748  17.415   9.099  10.252  0.1423  0.1127 -0.1024
32565ION     NA48749  11.404  12.047   5.736 -0.1937  0.0983 -0.1380
32566ION     NA48750  11.044   4.702  11.886 -0.3475 -0.2949  0.2903
32567ION     NA48751  14.241   8.017  10.573 -0.1805  0.1586  0.0965
32568ION     NA48752   6.288   8.077  14.341  0.2634 -0.1743  0.0063
32569ION     NA48753  16.703   2.208  15.368  0.3826 -0.0896 -0.0171
32570ION     NA48754  10.587  12.253  10.438  0.0980  0.2943  0.0983
32571ION     NA48755   0.564   8.444  10.670  0.0635 -0.2716 -0.1530
32572ION     NA48756  10.507   3.408  10.364  0.0387 -0.1339 -0.1658
32573ION     NA48757   3.627   2.071  12.528 -0.0765  0.1502  0.2100
32574ION     NA48758  17.272  11.576  15.261 -0.0963  0.1849  0.0918
32575ION     NA48759   6.760   5.756   5.660  0.2967  0.1956  0.0728
32576ION     NA48760   4.915  14.916  10.415  0.2125 -0.1238  0.1921
32577ION     NA48761  14.571  14.551  10.050  0.2925  0.0616 -0.1074
32578ION     NA48762  15.822  16.596  13.280  0.1140  0.1663  0.0371
32579ION     NA48763   3.700  13.341  10.124  0.0398 -0.2043 -0.0733
32580ION     NA48764   1.108  15.806  10.559  0.2375 -0.0898  0.2705
32581ION     NA48765   2.924   9.568  15.900 -0.2267 -0.1810  0.0715
32582ION     NA48766  11.226  18.061  10.631  0.0457  0.0425  0.0483
32583ION     NA48767  14.789  13.343  10.925 -0.1981 -0.2325  0.0342
32584ION     NA48768  12.471   4.805  10.386  0.0218  0.1724  0.0724
32585ION     NA48769   2.916   8.770  12.313 -0.0529 -0.2156  0.0058
32586ION     NA48770  12.244   8.278  10.615  0.0067 -0.1227 -0.0574
32587ION     NA48771  15.732   9.613  10.279 -0.0983  0.3028 -0.0208
32588ION     NA48772   4.328  14.629  10.303  0.0816 -0.3768  0.1055
32589ION     NA48773  17.815  13.713  15.685 -0.4059 -0.0872 -0.1204
32590ION     NA48774   1.148   3.295  11.155  0.1422 -0.0627  0.1146
32591ION     NA48775  11.499  12.407  10.372 -0.0895  0.0585 -0.0484
32592ION     NA48776  13.548  18.302  10.211  0.0112  0.1572 -0.4566
32593ION     NA48777  11.991   2.629   5.651 -0.2054 -0.3449  0.0573
32594ION     NA48778  10.080  13.310   1.438  0.1143  0.1624  0.1523
32595ION     NA48779  12.927   9.927  10.590 -0.1764 -0.2310  0.2227
32596ION     NA48780   2.422   0.908   9.923 -0.1014  0.1235 -0.2015
32597ION     NA48781   1.479   7.118   1.329  0.0369  0.2185  0.2544
32598ION     NA48782   7.956   2.890  10.246  0.3085 -0.1374  0.2091
32599ION     NA48783  16.421   9.751   5.412  0.0850  0.3058 -0.0018
32600ION     NA48784   7.516   9.701  10.363 -0.1601  0.0061 -0.3909
32601ION     NA48785   0.216   4.109  15.975 -0.1964  0.1582  0.2678
32602ION     NA48786  10.946   1.584  10.804 -0.3341  0.0593  0.0037
32603ION     NA48787  10.353   2.501  10.296  0.2565 -0.1225 -0.0109
32604ION     NA48788  17.599  10.550  10.780 -0.0608 -0.0546 -0.1282
32605ION     NA48789   3.348   5.749  10.349  0.0073 -0.0375 -0.1969
32606ION     NA48790   7.170   4.952  10.415 -0.0800 -0.0056 -0.1726
32607ION     NA48791   4.796  12.392  10.134  0.1898 -0.1100 -0.1048
32608ION     NA48792   8.357   1.009  12.401 -0.1559 -0.0196  0.3609
32609ION     NA48793   6.887  10.192  10.298 -0.0646 -0.0406 -0.0231
32610ION     NA48794  14.599   1.489   4.742  0.0066 -0.1428  0.0305
32611ION     NA48795  13.745  12.434  10.333 -0.0533 -0.0613  0.0006
32612ION     NA48796  17.584  17.942   9.737 -0.1288 -0.0079  0.2951
32613ION     NA48797  12.183   9.460  10.468 -0.1563  0.0346  0.2566
32614ION     NA48798  12.263   6.539  10.840  0.0953 -0.3982  0.1351
32615ION     NA48799  15.446   0.176   5.310 -0.0005 -0.2255 -0.0854
32616ION     NA48800   1.238   9.400   3.138 -0.0012  0.1712 -0.2662
32617ION     NA48801   2.611   3.004  14.618 -0.3996 -0.0353  0.0168
32618ION     NA48802   1.250  14.888  10.250 -0.0223  0.1913  0.1267
32619ION     NA48803  17.789  11.369  10.474 -0.0260 -0.1195 -0.2547
32620ION     NA48804  14.135  12.948   5.835 -0.2523  0.1954 -0.4371
32621ION     NA48805   3.971  15.153  10.410 -0.0040  0.3686  0.1364
32622ION     NA48806   4.000  11.339   2.353  0.1957 -0.1057  0.0506
32623ION     NA48807   2.105  10.667   1.763  0.0128 -0.0132 -0.1860
32624ION     NA48808   5.968   0.931   5.345  0.0975 -0.1594  0.0808
32625ION     NA48809  13.474   4.083   2.854  0.1723  0.2497  0.1827
32626ION     NA48810   0.199  10.717   5.799  0.0010 -0.0097 -0.3143
32627ION     NA48811   7.427  18.458  10.475  0.1724  0.1207  0.0458
32628ION     NA48812  14.612   3.073   3.587  0.0043  0.1147  0.2047
32629ION     NA48813   6.317   5.536  10.440  0.0603 -0.0139  0.0625
32630ION     NA48814   8.008   9.011  10.539  0.0608  0.0957  0.0921
32631ION     NA48815   0.019   5.832  10.310  0.2930  0.0920  0.1284
32632ION     NA48816  14.710   9.375  10.298  0.3005 -0.2031  0.0241
32633ION     NA48817  12.234  17.503   5.981  0.1086  0.2591  0.0686
32634ION     NA48818   5.432  15.691  10.613  0.0695 -0.2611  0.0299
32635ION     NA48819  16.956   4.975   5.690  0.0751 -0.4240  0.3881
32636ION     NA48820   1.141  15.905   5.742  0.2471 -0.0451  0.2840
32637ION     NA48821   5.208   5.996  10.481  0.1002 -0.0777  0.0638
32638ION     NA48822   4.707   2.149  15.859 -0.2656  0.0128 -0.4103
32639ION     NA48823  12.988  11.078  11.024 -0.2469 -0.1373  0.0305
32640ION     NA48824   9.940  15.642  10.608  0.3033  0.0827  0.0184
32641ION     NA48825   1.882   8.497   5.938 -0.0668  0.3785  0.2162
32642ION     NA48826  18.077  12.381  14.489  0.0162 -0.0980 -0.2709
32643ION     NA48827  12.507   6.491   6.195 -0.2224 -0.1119  0.0435
32644ION     NA48828   4.893   4.343   5.858  0.0111 -0.2296  0.1594
32645ION     NA48829  13.982   4.169   1.658 -0.0247  0.1721  0.1359
32646ION     NA48830  11.681   1.287  10.662  0.2068  0.1467  0.1526
32647ION     NA48831   9.030   3.790  10.382  0.2584  0.3670  0.1638
32648ION     NA48832  12.786  15.730   0.850  0.1643  0.0842  0.0682
32649ION     NA48833   3.365   2.673   2.604  0.1805 -0.0512 -0.0583
32650ION     NA48834  11.731   4.012  10.519  0.1720  0.2133  0.1009
32651ION     NA48835  14.127  13.397  13.522  0.0492  0.0708  0.2227
32652ION     NA48836   8.513  17.696  15.183 -0.1599 -0.0624 -0.1371
32653ION     NA48837   9.859   7.015   4.562 -0.2787  0.0458  0.3023
32654ION     NA48838   6.248   9.739  15.911 -0.2882  0.0051 -0.1021
32655ION     NA48839  13.877   9.011  15.096  0.0328  0.0811 -0.1994
32656ION     NA48840  11.186   5.968  10.430 -0.1060 -0.1515 -0.2807
32657ION     NA48841  15.296  10.878  11.886 -0.0242 -0.1450  0.0053
32658ION     NA48842   4.423   7.997  13.930  0.2101 -0.1202 -0.4244
32659ION     NA48843   6.099   9.470   0.463 -0.2585  0.1891 -0.1432
32660ION     NA48844   7.573   9.325  12.760  0.1826 -0.4648  0.1984
32661ION     NA48845  14.403   7.321   6.279 -0.2057 -0.1002 -0.0237
32662ION     NA48846  14.579  12.487  10.333 -0.0888 -0.1539 -0.3159
32663ION     NA48847   5.108   4.175  10.233  0.4693 -0.0667 -0.0719
32664ION     NA48848   2.288   6.677   6.019  0.1868 -0.1782 -0.3024
32665ION     NA48849   3.874  18.426   9.962  0.1352 -0.0395 -0.0218
32666ION     NA48850  12.472  18.175  10.437  0.0134 -0.3249  0.2674
32667ION     NA48851  16.869   2.953   2.079  0.2283 -0.2440 -0.0723
32668ION     NA48852   4.687  12.714   4.850  0.1626  0.0834  0.3231
32669ION     NA48853   5.657   0.368   2.153 -0.1614  0.1793  0.0208
32670ION     NA48854   7.993  11.359   3.441 -0.4001  0.1096  0.2954
32671ION     NA48855  17.557  14.738   2.216 -0.1916 -0.1448 -0.1233
32672ION     NA48856   6.996  10.931   2.632  0.0799 -0.1527 -0.0944
32673ION     NA48857  18.053  12.561  10.808 -0.0612 -0.0422  0.2728
32674ION     NA48858   8.293  10.380  10.651 -0.0468 -0.0451 -0.0550
32675ION     NA48859   5.747  18.368  10.051 -0.1184 -0.1640 -0.0211
32676ION     NA48860  12.933  16.630   5.279 -0.0024  0.1169  0.0093
32677ION     NA48861   7.807  10.574  10.614  0.1300 -0.2894 -0.0610
32678ION     NA48862  12.447  16.711  14.850  0.1666  0.0089  0.0313
32679ION     NA48863   6.589  12.008  10.336  0.1323  0.2107  0.1535
32680ION     NA48864   7.197  14.590   2.061 -0.0263  0.1808  0.0058
32681ION     NA48865   4.014   0.397   9.714  0.3268  0.4868 -0.5162
32682ION     NA48866   9.950   9.581  11.895  0.1199  0.0529  0.0913
32683ION     NA48867  14.455  12.339   2.053  0.0505 -0.1463  0.1449
32684ION     NA48868   8.313  15.709  10.598  0.0830  0.0509  0.2238
32685ION     NA48869  14.515   7.379  11.049  0.0545 -0.3726  0.0528
32686ION     NA48870  15.158   7.593   6.083 -0.1805  0.3368  0.0078
32687ION     NA48871  10.715  12.127   3.178  0.0593  0.1314 -0.1331
32688ION     NA48872   0.445  17.193  16.080 -0.0838 -0.1995  0.2820
32689ION     NA48873   5.488   6.468  11.822 -0.2057 -0.0546 -0.2259
32690ION     NA48874   0.908   1.455   0.715 -0.1824 -0.0714  0.2146
32691ION     NA48875   6.311   2.723  10.438  0.0799  0.0371  0.2477
32692ION     NA48876   9.204  11.172  10.640 -0.1036  0.1506 -0.1284
32693ION     NA48877   1.884  12.756  10.330  0.1124  0.0379  0.0261
32694ION     NA48878   1.374   8.643  13.825 -0.1874  0.3242  0.1599
32695ION     NA48879  11.529  13.730  10.613 -0.0807  0.1661  0.3945
32696ION     NA48880  17.238  14.034   5.933 -0.0672  0.1971 -0.0353
32697ION     NA48881  17.682   5.227  10.328  0.3833  0.3700  0.0929
32698ION     NA48882  12.880  15.455  11.059 -0.0226  0.0963 -0.1199
32699ION     NA48883   7.328   4.247   5.969 -0.2065  0.0128 -0.0318
32700ION     NA48884   4.820  11.561  10.483  0.0243 -0.0178 -0.1179
32701ION     NA48885   5.845   7.202   5.320 -0.2935 -0.4187  0.2721
32702ION     NA48886   6.897   2.482  14.445  0.1209  0.2160  0.1551
32703ION     NA48887   3.582   1.643  15.139  0.0545 -0.0115 -0.1518
32704ION     NA48888   0.597   4.708   5.144  0.1069 -0.0075  0.1916
32705ION     NA48889   3.267  17.076   5.287 -0.1646  0.1522  0.0496
32706ION     NA48890   4.304   4.702   2.732  0.0254 -0.0183  0.2148
32707ION     NA48891  17.589  16.434   2.947 -0.2301 -0.0031 -0.0527
32708ION     NA48892   4.013  11.710  13.384 -0.4046 -0.1041  0.1575
32709ION     NA48893   1.765  13.026   1.639 -0.0505  0.1147 -0.2910
32710ION     NA48894  11.184   2.056  10.260  0.2384  0.0187 -0.0805
32711ION     NA48895   8.417  15.095  14.048  0.0118 -0.2989  0.1407
32712ION     NA48896  10.690  16.933  10.769 -0.1332  0.0415 -0.1273
32713ION     NA48897   4.379  16.336  10.281 -0.2703  0.0039  0.3340
32714ION     NA48898   5.573  10.304  10.497  0.0236 -0.1349 -0.1305
32715ION     NA48899  11.492  17.535   4.878  0.1221 -0.1352 -0.0124
32716ION     NA48900  16.870  16.193  10.742 -0.3073  0.0359 -0.0226
32717ION     NA48901   9.359  14.893  10.609  0.1531 -0.3410 -0.0827
32718ION     NA48902  13.635   0.564   3.829 -0.3586  0.1128 -0.1465
32719ION     NA48903  16.480  11.293   6.028  0.0898 -0.1461  0.2243
32720ION     NA48904   0.437  12.386   3.188 -0.1920  0.2472  0.0229
32721ION     NA48905  18.170  17.710   9.729 -0.0884 -0.0195 -0.1886
32722ION     NA48906  11.216   0.483  10.426  0.0269 -0.1149 -0.0020
32723ION     NA48907  10.017   3.366   1.002 -0.0189 -0.0545  0.1286
32724ION     NA48908   6.074  13.996   5.578  0.2225  0.0797 -0.0400
32725ION     NA48909  16.146   3.339   3.554 -0.1498 -0.4084  0.2131
32726ION     NA48910   9.470  13.946  10.414 -0.1270 -0.1825 -0.1595
32727ION     NA48911   0.962   4.673  10.099 -0.1333 -0.0616  0.1015
32728ION     NA48912   0.446   8.581   1.845 -0.1301 -0.1154  0.0190
32729ION     NA48913  16.660  18.158   5.536 -0.4192  0.2973 -0.2085
32730ION     NA48914  16.217  17.538  13.252 -0.0854  0.0332  0.0151
32731ION     NA48915   4.044   6.603   5.782  0.0269  0.3371  0.1554
32732ION     NA48916   2.664  17.000   9.904 -0.2634  0.0025 -0.4882
32733ION     NA48917  14.591   8.232  10.845  0.0235  0.1946  0.1255
32734ION     NA48918  13.548   1.172  10.545  0.2136 -0.1628 -0.1771
32735ION     NA48919  17.985   3.418  10.025  0.0211 -0.2858  0.1635
32736ION     NA48920   3.466  13.543  11.464  0.2963  0.1309 -0.1258
32737ION     NA48921   1.278   2.546   5.491 -0.0473  0.0673  0.0890
32738ION     NA48922   3.288   7.243  10.153 -0.2866 -0.1769  0.1198
32739ION     NA48923  14.264   3.477  10.322  0.0680 -0.0783  0.3820
32740ION     NA48924   5.648  11.934  10.232 -0.2556  0.1642  0.2243
32741ION     NA48925   2.149   0.367   5.274  0.1454  0.0470 -0.2548
32742ION     NA48926   1.673   8.945  10.596 -0.1506  0.3135 -0.1730
32743ION     NA48927   2.673  17.390   5.636  0.0477 -0.1603  0.1065
32744ION     NA48928  15.898  12.349  10.510  0.2949  0.0573  0.1313
32745ION     NA48929   4.022   7.468  10.389 -0.3952  0.1594 -0.0819
32746ION     NA48930  10.770   4.182  10.334 -0.1553  0.3070 -0.2467
32747ION     NA48931   3.177  13.885  10.220  0.0409 -0.1455  0.3692
32748ION     NA48932   0.318  10.274  10.530 -0.2416  0.0310  0.2755
32749ION     NA48933  18.181  14.301  10.125 -0.0591 -0.2614 -0.1402
32750ION     NA48934  16.584   6.944  10.673 -0.1029 -0.0890 -0.0999
32751ION     NA48935   0.294  14.867  10.255  0.1825  0.0014  0.0712
32752ION     NA48936   7.017   4.763   2.457 -0.1499  0.1198 -0.2295
32753ION     NA48937  15.323  15.295  10.198  0.0755 -0.4471 -0.3044
32754ION     NA48938  13.269   4.574  10.381  0.0965  0.0394 -0.1032
32755ION     NA48939  17.286  12.907  10.183  0.1281 -0.0304 -0.0722
32756ION     NA48940  12.322   3.539   5.612 -0.0629 -0.4431  0.0772
32757ION     NA48941  13.520  18.282   0.310  0.1773 -0.1846 -0.2280
32758ION     NA48942   9.230  15.709  10.763  0.4463 -0.1819  0.0868
32759ION     NA48943  15.740   8.535   5.132 -0.1582  0.2427  0.0639
32760ION     NA48944  17.485   9.872   1.815  0.0322 -0.0673 -0.0805
32761ION     NA48945   6.105   2.471   0.533 -0.1290  0.2766  0.0151
32762ION     NA48946   6.630  15.741   5.916  0.0806  0.4746 -0.0186
32763ION     NA48947   2.888  14.316   2.900  0.0978 -0.2301 -0.0859
32764ION     NA48948  13.184   8.635  10.479  0.0430 -0.2111  0.4199
32765ION     NA48949  12.514   7.361  10.769 -0.1740  0.2082 -0.2949
32766ION     NA48950   0.804   3.797   9.911 -0.0332  0.2549  0.1421
32767ION     NA48951   5.497  14.321  10.661 -0.2338  0.0627  0.1849
32768ION     NA48952   5.646  11.062  10.479  0.2508  0.0122 -0.2352
32769ION     NA48953  12.622   1.302  10.401 -0.2001  0.1962 -0.0765
32770ION     NA48954   9.737  17.438  10.793 -0.0737 -0.1947 -0.1130
32771ION     NA48955   7.509  13.859  10.848  0.0585 -0.3056 -0.0885
32772ION     NA48956   5.625  16.478  14.194 -0.1312 -0.1965  0.0621
32773ION     NA48957  11.002   0.408   5.894 -0.2495 -0.2978  0.1195
32774ION     NA48958  14.454   4.526  10.453 -0.2162 -0.0923 -0.2657
32775ION     NA48959  12.278   9.706   6.003  0.0944 -0.0671  0.1471
32776ION     NA48960   5.109   3.630   1.540  0.1423  0.3997 -0.0776
32777ION     NA48961   3.506   7.265   4.784  0.0566  0.2334  0.1634
32778ION     NA48962  12.378   4.048   5.501  0.1468  0.0727 -0.1108
32779ION     NA48963  12.776  11.218  10.595 -0.0156  0.1306 -0.1780
32780ION     NA48964   1.596  18.168   1.330 -0.0272  0.1886  0.0802
32781ION     NA48965   5.490  17.348  10.187  0.2458  0.3408 -0.4058
32782ION     NA48966  16.800   8.579   0.147  0.4757 -0.0203  0.1639
32783ION     NA48967   3.624  10.084  10.415  0.0533 -0.0457  0.1636
32784ION     NA48968   1.270  18.145   9.773 -0.3243 -0.0009  0.1382
32785ION     NA48969   8.784   5.219  10.736 -0.1368  0.0665  0.1117
32786ION     NA48970   4.481   2.928  10.248 -0.0748 -0.2853  0.0439
32787ION     NA48971  17.613  10.625  12.106 -0.0746 -0.2780  0.0813
32788ION     NA48972  17.054   7.511   2.123 -0.1910 -0.1181 -0.2407
32789ION     NA48973   0.538   3.729   1.700 -0.0307  0.1848 -0.0368
32790ION     NA48974   1.391  11.221  10.356 -0.0204  0.0664  0.0847
32791ION     NA48975  15.573  15.183  12.403  0.0372  0.0797 -0.0569
32792ION     NA48976   0.985   6.096   9.993 -0.1246  0.0561 -0.0178
32793ION     NA48977  15.583  16.063  10.027  0.0401 -0.1428 -0.1125
32794ION     NA48978  16.936   9.005   2.353 -0.0301  0.1693  0.0998
32795ION     NA48979  15.560   4.955  10.720 -0.1034 -0.0801  0.1307
32796ION     NA48980  10.229  14.606  10.542 -0.1737 -0.0098 -0.1336
32797ION     NA48981   9.184  13.036  10.478  0.0681 -0.1898 -0.4988
32798ION     NA48982   1.048   0.703  13.414  0.0357 -0.1350  0.1117
32799ION     NA48983  13.179   5.108   0.535 -0.0770 -0.0685 -0.2787
32800ION     NA48984   3.159  10.438   3.150  0.0244  0.0267 -0.1922
32801ION     NA48985  15.657  11.203  15.949 -0.1644 -0.3115  0.2284
32802ION     NA48986  18.481   7.679  10.587 -0.0388  0.0532 -0.1430
32803ION     NA48987   0.117  10.815  14.353 -0.1161 -0.0350 -0.2239
32804ION     NA48988  10.899   7.217   5.257  0.1020  0.0907  0.3139
32805ION     NA48989  10.692   1.244  10.283  0.0996 -0.0441 -0.0979
32806ION     NA48990   7.495  12.753   5.349 -0.0404 -0.2070  0.0613
32807ION     NA48991   6.356  15.554  10.432 -0.2167  0.3353 -0.0183
32808ION     NA48992  17.483   1.685  13.864 -0.1109 -0.0100  0.0562
32809ION     NA48993   1.149  12.985  10.568 -0.0394 -0.1984 -0.0493
32810ION     NA48994  16.938   4.030  14.084  0.0754  0.2815 -0.0806
32811ION     NA48995  17.435   3.574   9.872 -0.2033 -0.0698 -0.0377
32812ION     NA48996  18.402   1.425   9.594 -0.0281 -0.1223  0.2582
32813ION     NA48997  13.612  14.500  10.452 -0.0416 -0.4866  0.1294
32814ION     NA48998  10.928   8.089  12.527  0.0143 -0.0871  0.1425
32815ION     NA48999   1.294   6.844  10.301  0.0308 -0.0047 -0.2842
32816ION     NA49000  17.825   4.336  10.010  0.0772 -0.0264  0.1254
32817ION     NA49001  11.602   7.174  10.685 -0.3136  0.0591  0.4617
32818ION     NA49002   3.246   2.643  10.138  0.0752  0.0494 -0.2087
32819ION     NA49003   5.097   5.130  10.206 -0.2997 -0.1148  0.1445
32820ION     NA49004   8.824   2.030   4.875  0.0695 -0.0114  0.4425
32821ION     NA49005  12.677   3.660  10.563 -0.2837 -0.1810  0.0168
32822ION     NA49006   7.419   1.885  10.362 -0.2003 -0.0703  0.0808
32823ION     NA49007  17.828  15.309  11.064  0.0560 -0.1149 -0.0596
32824ION     NA49008   9.993   7.537  10.474 -0.2902  0.1216  0.0077
32825ION     NA49009   9.110   7.537  10.432  0.0932  0.3182 -0.0140
32826ION     NA49010   8.849   9.105  10.448 -0.2410  0.4469  0.0060
32827ION     NA49011   3.212   1.061  10.168 -0.0826 -0.1530 -0.0437
32828ION     NA49012   3.975   8.414  10.451 -0.3609 -0.0791 -0.1514
32829ION     NA49013   5.629  15.514  11.639  0.1466  0.3332  0.1415
32830ION     NA49014  12.455   1.144   5.748  0.2488  0.1852 -0.4336
32831ION     NA49015   7.905   2.040   1.755  0.3002 -0.1164  0.1529
32832ION     NA49016  16.517  12.408   5.576  0.2574  0.0399  0.2483
32833ION     NA49017  13.716   7.830  10.478  0.3307 -0.1280 -0.3313
32834ION     NA49018   4.918  13.258  10.424 -0.2753 -0.2312 -0.0120
32835ION     NA49019  10.430   1.440  13.012  0.3942 -0.2326 -0.0530
32836ION     NA49020   3.800   9.317  10.577 -0.0572 -0.4123  0.0078
32837ION     NA49021   0.504  18.387   9.820  0.1172 -0.2110  0.2028
32838ION     NA49022   1.191  10.919   5.601 -0.2794  0.1649 -0.0948
32839ION     NA49023   8.818   0.816  11.235 -0.3506  0.1181  0.0584
32840ION     NA49024  17.739   6.257   1.891  0.1298 -0.1694 -0.0556
32841ION     NA49025  11.663  16.667  10.794 -0.2215  0.2371  0.1813
32842ION     NA49026   1.762   6.744  11.223  0.1582  0.2058  0.0449
32843ION     NA49027  14.420  12.335  12.229 -0.1064  0.2745  0.1282
32844ION     NA49028   5.233  13.969   5.529  0.0889 -0.1325  0.1374
32845ION     NA49029   1.085  10.001  10.569  0.0670  0.2177  0.0185
32846ION     NA49030  17.170   1.993   9.763 -0.1966 -0.0283 -0.3663
32847ION     NA49031   3.732   3.446  10.076 -0.3177  0.4252 -0.0815
32848ION     NA49032  13.647   6.241  10.521  0.0571 -0.1742  0.2571
32849ION     NA49033   9.760  11.683  10.410 -0.3025  0.0227 -0.1245
32850ION     NA49034   2.690  10.520  10.315 -0.1532 -0.0878 -0.1317
32851ION     NA49035   9.501   4.110   2.894 -0.0524  0.0720  0.2181
32852ION     NA49036   8.267   0.178   6.071 -0.2982  0.1080  0.4525
32853ION     NA49037   4.362  15.395   2.774  0.3370 -0.0574  0.0133
32854ION     NA49038   5.869  17.342   5.913 -0.2439 -0.1938  0.1363
32855ION     NA49039   3.429   4.108  10.519  0.0606 -0.0670  0.1996
32856ION     NA49040   6.065  11.228   4.732 -0.1358  0.1856 -0.2313
32857ION     NA49041  16.304  14.371   5.898 -0.1834  0.0201 -0.1326
32858ION     NA49042  17.193   0.590  10.244  0.0307 -0.0483 -0.1197
32859ION     NA49043  16.510  15.215   4.673 -0.2971  0.0100  0.1486
32860ION     NA49044  12.429   6.615   1.081  0.2767 -0.1343 -0.0538
32861ION     NA49045  15.007  14.393  10.209 -0.3956 -0.3659  0.4925
32862ION     NA49046   0.642  16.624  10.015  0.4389  0.2146  0.1191
32863ION     NA49047   1.676   7.478  15.903  0.0860 -0.5126  0.0570
32864ION     NA49048   9.500   8.494  10.360  0.2011 -0.0916  0.0458
32865ION     NA49049   7.822   3.084  12.101 -0.1175  0.0005 -0.3126
32866ION     NA49050  10.127  11.740   5.702 -0.1058  0.5493  0.3734
32867ION     NA49051   9.150   4.425  10.553 -0.0522 -0.2113 -0.2391
32868ION     NA49052  17.642   2.647  13.448 -0.1159  0.1160 -0.0651
32869ION     NA49053   2.482   3.926  10.135  0.1265  0.1885 -0.0198
32870ION     NA49054  14.415  10.618   2.713 -0.1404 -0.0940  0.0690
32871ION     NA49055  17.749  14.204  10.396 -0.0214 -0.3293 -0.0022
32872ION     NA49056   9.864   6.103  10.585  0.1016  0.2343  0.0331
32873ION     NA49057  16.506  14.981  12.980 -0.4424  0.0346 -0.1362
32874ION     NA49058   4.083   2.122  10.012  0.4195  0.2713 -0.0007
32875ION     NA49059  17.060   4.730  12.170 -0.2141 -0.2174  0.3204
32876ION     NA49060   4.621  18.180   5.813  0.0387 -0.0760  0.1919
32877ION     NA49061   6.778   4.081  11.423 -0.1972  0.1147 -0.2204
32878ION     NA49062   4.836  16.070  10.273  0.0727  0.0629  0.0087
32879ION     NA49063  12.765   6.312  10.639 -0.2285  0.1063  0.0151
32880ION     NA49064  16.517  14.085   5.095 -0.0271 -0.1066  0.0268
32881ION     NA49065   7.383  15.917  10.385  0.2089 -0.2580  0.3227
32882ION     NA49066  13.791   0.267  10.201 -0.1988 -0.0823  0.0728
32883ION     NA49067   3.101   2.311  13.275  0.1169  0.2050  0.0187
32884ION     NA49068  13.731  11.429  10.318 -0.1606 -0.0205 -0.0146
32885ION     NA49069  10.622   6.345  12.376 -0.2785 -0.3163  0.1455
32886ION     NA49070  16.757  15.165  10.297 -0.0634 -0.1649  0.0209
32887ION     NA49071  10.190  13.170  10.517  0.1792  0.3463  0.0266
32888ION     NA49072  10.105  14.304   1.727  0.1115  0.6308 -0.1104
32889ION     NA49073   0.609   2.708  11.673  0.2170 -0.3131 -0.0265
32890ION     NA49074   8.213   5.204  13.308 -0.2226  0.0013 -0.0452
32891ION     NA49075   2.894  12.897   2.164  0.1007 -0.0956  0.0166
32892ION     NA49076   9.732  12.358  10.413  0.2861 -0.1532 -0.0987
32893ION     NA49077  10.935  10.388   1.441  0.2274 -0.3363 -0.3044
32894ION     NA49078  13.801   4.308  11.404  0.3456  0.2596 -0.0036
32895ION     NA49079   4.050   9.648   5.886  0.1182  0.1631 -0.0435
32896ION     NA49080  16.582   5.016  10.396  0.2421 -0.0325 -0.0712
32897ION     NA49081  13.089   0.594  10.301 -0.0785  0.0107 -0.2293
32898ION     NA49082   3.232   8.411  10.398 -0.2292 -0.0605 -0.0038
32899ION     NA49083   1.782   6.069  10.173  0.0885 -0.0942 -0.1867
32900ION     NA49084  11.883   2.130  10.747  0.0229 -0.0647  0.0287
32901ION     NA49085  11.134   7.331  10.510 -0.0436  0.1009 -0.0502
32902ION     NA49086   6.718   7.125  10.747 -0.0164 -0.1607 -0.1297
32903ION     NA49087  18.176  17.182  15.145 -0.2831  0.2992 -0.1568
32904ION     NA49088   8.827   2.932  13.932 -0.0109 -0.0612 -0.0309
32905ION     NA49089  17.564   7.197  10.506  0.0566 -0.0557 -0.0210
32906ION     NA49090   6.522  16.228  10.108 -0.2253  0.2666  0.1723
32907ION     NA49091  13.333  13.120   1.497 -0.0335  0.1073 -0.1047
32908ION     NA49092   1.089   5.760  12.906 -0.2425  0.2167  0.1998
32909ION     NA49093   7.776  15.226   4.082  0.2277  0.1794 -0.1624
32910ION     NA49094   0.260   8.796   3.988  0.0188  0.1041 -0.0837
32911ION     NA49095   4.125  13.103  10.276  0.0789  0.2303  0.0374
32912ION     NA49096  13.732  12.170   3.404 -0.0648 -0.0300 -0.1037
32913ION     NA49097   1.426   0.844   5.545  0.0120 -0.0501 -0.0409
32914ION     NA49098  16.717   4.255  10.041  0.0576  0.0127  0.0910
32915ION     NA49099  14.100   7.003  10.592  0.2613  0.0169  0.2566
32916ION     NA49100   5.736  16.380  10.234 -0.3035  0.0238 -0.1901
32917ION     NA49101   7.578   7.229   5.789 -0.2478  0.4902 -0.2107
32918ION     NA49102   1.718   5.468  10.171 -0.0424  0.0022 -0.1299
32919ION     NA49103  18.431   3.612  10.028 -0.0611  0.1965  0.3850
32920ION     NA49104   4.142  17.442   5.663  0.1148  0.1206 -0.1122
32921ION     NA49105   7.663   8.213  10.362  0.0859  0.0572 -0.4048
32922ION     NA49106   8.680  14.025  10.467 -0.2776  0.2611  0.0680
32923ION     NA49107  10.842   5.029  10.510 -0.1574 -0.2411  0.1846
32924ION     NA49108   5.861   6.600  10.773 -0.0558 -0.2382 -0.0400
32925ION     NA49109  14.894  17.307   9.823 -0.0194 -0.3209  0.0171
32926ION     NA49110  14.112  13.806  10.288  0.2757 -0.1573  0.0086
32927ION     NA49111  15.821   5.075  11.544  0.2372 -0.1566 -0.0260
32928ION     NA49112   2.777  15.618  10.054  0.0162 -0.1347  0.1116
32929ION     NA49113   8.090  11.730  10.144 -0.0149  0.2319 -0.1095
32930ION     NA49114  10.927  15.938  10.508  0.0179 -0.0471 -0.2130
32931ION     NA49115   4.272  12.529  10.531 -0.2906 -0.1050  0.2278
32932ION     NA49116  11.681  12.775  10.706 -0.1333  0.0675  0.3476
32933ION     NA49117  13.970  15.218  10.092 -0.2976 -0.2950  0.0555
32934ION     NA49118   5.222   1.275  11.904 -0.1044  0.2982  0.0676
32935ION     NA49119   4.040   5.270   9.987  0.0665  0.0324 -0.1020
32936ION     NA49120   1.806  10.407  10.671 -0.4855 -0.1841  0.1288
32937ION     NA49121  16.167  18.109   9.921 -0.1297 -0.1442  0.0513
32938ION     NA49122   7.282  12.278  15.299 -0.0221 -0.0835 -0.0806
32939ION     NA49123  17.573   8.156  10.645  0.0871 -0.0396 -0.0387
32940ION     NA49124   5.781   8.475  10.716 -0.2859 -0.0552  0.3129
32941ION     NA49125  18.411  17.546  10.604  0.4905  0.1358  0.0684
32942ION     NA49126  15.116  14.295  10.754 -0.0507 -0.1607 -0.2412
32943ION     NA49127   6.562   1.755   5.522  0.1338 -0.0620  0.2442
32944ION     NA49128   6.851  16.000  13.751 -0.1885  0.0150 -0.1759
32945ION     NA49129   2.088  16.453   9.903  0.2272  0.2358 -0.0790
32946ION     NA49130   9.432   6.543   5.683  0.2197 -0.0480 -0.0486
32947ION     NA49131   5.624   8.227   3.219 -0.0950 -0.2323  0.2298
32948ION     NA49132   8.949   6.507  10.573 -0.2384 -0.0113 -0.2898
32949ION     NA49133   4.974   2.426   9.999 -0.1528  0.2058 -0.0356
32950ION     NA49134   7.591  13.073  10.615  0.0484  0.2124  0.1173
32951ION     NA49135   4.596   3.959  10.120 -0.0976 -0.0676 -0.1512
32952ION     NA49136   1.560  16.799   9.804 -0.0356 -0.0193 -0.2211
32953ION     NA49137  10.849   6.870   2.003  0.2270  0.1482  0.0054
32954ION     NA49138  13.075   5.549  10.433 -0.0258  0.0017  0.3945
32955ION     NA49139   4.311   9.469  10.654 -0.1698  0.1619  0.0793
32956ION     NA49140   1.285   1.792  10.236  0.1906 -0.1356  0.2076
32957ION     NA49141  15.683   2.751  10.074  0.4306 -0.3325  0.0729
32958ION     NA49142  17.105  15.091   5.346  0.0841 -0.1884  0.0516
32959ION     NA49143   4.108  11.738  10.505 -0.2159 -0.0093 -0.0031
32960ION     NA49144  15.380   7.844  10.676 -0.0301 -0.1015 -0.1859
32961ION     NA49145   8.731   2.302   5.904 -0.0294 -0.0531 -0.0061
32962ION     NA49146   9.667  16.567  10.569  0.0317  0.2516  0.1322
32963ION     NA49147   7.415  11.261  10.269 -0.0235 -0.1312  0.2405
32964ION     NA49148   1.225  13.442   2.363  0.3453  0.1585 -0.1616
32965ION     NA49149   2.095  15.041  10.192 -0.0961 -0.1443 -0.1912
32966ION     NA49150   7.231  17.766   0.691 -0.2635 -0.0052 -0.1524
32967ION     NA49151  15.068  10.282  10.369  0.0798  0.2071  0.2580
32968ION     NA49152   6.447   9.144  10.600 -0.2332 -0.2020 -0.0142
32969ION     NA49153   7.776  16.557   1.121 -0.1920 -0.1865 -0.2915
32970ION     NA49154   6.897  16.962   0.670  0.1530 -0.1756  0.1233
32971ION     NA49155   6.585   3.258  11.878 -0.4015  0.1540 -0.3198
32972ION     NA49156  11.473  14.808  15.603 -0.1302 -0.0275  0.0241
32973ION     NA49157  16.293  16.097  11.604 -0.0246  0.2495  0.3029
32974ION     NA49158   2.018   0.163   9.646  0.0544  0.2410  0.2683
32975ION     NA49159   6.108   4.597  10.235 -0.3247 -0.2201 -0.1081
32976ION     NA49160  15.609   6.428   5.716 -0.3843 -0.1671 -0.0227
32977ION     NA49161   0.927   5.409   5.693 -0.0315 -0.1403 -0.0490
32978ION     NA49162  16.806  14.305  11.861  0.1906 -0.1498  0.4134
32979ION     NA49163   5.680  12.815  10.446  0.0784 -0.1852  0.2270
32980ION     NA49164   7.049   4.742   1.523 -0.0442  0.1783  0.1096
32981ION     NA49165   3.280   4.969  10.235 -0.0066 -0.1228  0.0351
32982ION     NA49166   3.495   0.716  15.146 -0.0808 -0.0839 -0.0391
32983ION     NA49167   3.204   9.899   5.924  0.0751  0.1655 -0.2515
32984ION     NA49168  17.891   5.624   6.032 -0.2055 -0.1394  0.1009
32985ION     NA49169   2.116   4.728  10.171  0.0288  0.0115 -0.0573
32986ION     NA49170   2.994  11.316  10.672 -0.0998 -0.0551  0.1448
32987ION     NA49171   0.548  14.451  10.157  0.1077 -0.1483 -0.1800
32988ION     NA49172   9.180  18.090  10.950  0.2549 -0.1631  0.2177
32989ION     NA49173   5.520   1.426   9.911  0.4071 -0.0024 -0.2037
32990ION     NA49174   5.809   5.498  10.411 -0.0696 -0.2374 -0.1444
32991ION     NA49175   6.283  12.746   1.223  0.1594  0.1136  0.0853
32992ION     NA49176  15.208  18.019  10.152  0.1027 -0.0072  0.0530
32993ION     NA49177  16.460   2.404   9.752 -0.2860 -0.0664 -0.0220
32994ION     NA49178   9.245  15.557   6.262 -0.1647 -0.4967  0.2526
32995ION     NA49179   0.703   4.686  11.520  0.2185  0.0817 -0.0058
32996ION     NA49180   6.731  13.714  10.717 -0.0822  0.2109  0.2129
32997ION     NA49181   3.468  12.403  10.182  0.1398  0.2178  0.2731
32998ION     NA49182   8.034   9.613  11.764 -0.0315  0.1876  0.3307
32999ION     NA49183  11.375   4.776   6.068  0.0907 -0.1913  0.0102
33000ION     NA49184  18.060   2.067   9.890 -0.4514  0.0927 -0.0458
33001ION     NA49185   8.937   8.797   4.187  0.3351 -0.3608  0.2692
33002ION     NA49186  17.667   6.361  10.531  0.0048 -0.0963 -0.1519
33003ION     NA49187  16.387   1.508   9.685 -0.1838 -0.0194  0.1065
33004ION     NA49188   2.293   2.864  10.068  0.4527  0.0231 -0.3279
33005ION     NA49189   4.218   1.255  10.017 -0.0188  0.1203 -0.0548
33006ION     NA49190   2.066   4.636   5.654 -0.0480 -0.1885  0.0493
33007ION     NA49191   6.923   3.512  15.431  0.2291 -0.4467 -0.0239
33008ION     NA49192   0.318   4.460   1.414 -0.1841  0.0249  0.2066
33009ION     NA49193   0.224   7.105  10.463  0.1551  0.3356 -0.2402
33010ION     NA49194  10.765  10.700   0.472  0.2630 -0.5836  0.1097
33011ION     NA49195   7.313   1.522  15.189 -0.1812  0.2450 -0.3756
33012ION     NA49196  12.267  10.587  10.844 -0.1512 -0.3100  0.0025
33013ION     NA49197   0.751   7.566  10.420 -0.5339 -0.0039 -0.1077
33014ION     NA49198  13.955  16.473   5.777 -0.0478  0.1534  0.0885
33015ION     NA49199  17.567   7.242   3.154 -0.4588 -0.0926 -0.1595
33016ION     NA49200  13.236  13.321   5.761  0.3810  0.0887 -0.2040
33017ION     NA49201   9.213   5.473  10.583  0.0375  0.1200  0.1029
33018ION     NA49202   9.598   3.549  10.791 -0.0808  0.0704  0.0475
33019ION     NA49203   7.985  17.231  10.447 -0.1636  0.0348 -0.0770
33020ION     NA49204  16.704  17.010  10.074 -0.0005  0.2471 -0.2570
33021ION     NA49205  11.941  13.117   5.279  0.1823 -0.0652 -0.3030
33022ION     NA49206   4.913   7.946  10.569 -0.0777  0.1675  0.1761
33023ION     NA49207  17.316   7.615  10.572  0.1627 -0.2786  0.0102
33024ION     NA49208  16.847  12.091  10.491  0.2533  0.2077 -0.0432
33025ION     NA49209   7.891  10.798  14.829 -0.0321  0.1421 -0.0476
33026ION     NA49210   6.658  18.011  10.088 -0.0935  0.3022  0.0253
33027ION     NA49211   2.367   8.658  10.448 -0.1832 -0.2033  0.0321
33028ION     NA49212   0.261   5.038  14.178 -0.0885  0.2897  0.0920
33029ION     NA49213  10.175  10.960  10.594  0.1560  0.0247 -0.1242
33030ION     NA49214   3.930   6.198  14.979  0.0881 -0.1731  0.0643
33031ION     NA49215  11.306  10.109   2.459  0.4043  0.1697  0.0509
33032ION     NA49216   9.071   1.234  10.310 -0.0614  0.2405  0.1931
33033ION     NA49217   7.824   1.085  10.217  0.1378  0.2252 -0.3083
33034ION     NA49218   1.878   9.590  10.834 -0.0275 -0.0983  0.0723
33035ION     NA49219   2.289   1.788  10.250 -0.1998  0.1154  0.0620
33036ION     NA49220   6.843  14.191  11.264  0.4469 -0.0392 -0.0487
33037ION     NA49221  15.598   6.779  10.577 -0.0392 -0.2780 -0.1018
33038ION     NA49222   2.396  15.905   9.908  0.3090  0.1293 -0.0731
33039ION     NA49223  12.508   7.998   5.896  0.0067  0.1257 -0.0516
33040ION     NA49224  12.295  14.243  10.927 -0.0604  0.2350  0.2099
33041ION     NA49225   4.290   4.807  10.245  0.2301  0.1440 -0.0057
33042ION     NA49226  12.371  12.067  10.459  0.0000  0.2126 -0.1063
33043ION     NA49227  17.729   6.445   3.438 -0.0526 -0.1734  0.0323
33044ION     NA49228  14.750   1.870   5.472  0.0713 -0.1077 -0.0727
33045ION     NA49229   0.901   1.428   2.030  0.3738  0.0502  0.2054
33046ION     NA49230   3.254   7.939  13.758  0.4309  0.1638  0.0441
33047ION     NA49231  18.115   0.223   9.628  0.3620  0.3671 -0.0898
33048ION     NA49232  10.110  15.089  14.868  0.2500  0.0619  0.1280
33049ION     NA49233   8.346   4.409  15.438 -0.4651  0.0397  0.1647
33050ION     NA49234   3.001   5.096   0.375 -0.2206  0.0019  0.1721
33051ION     NA49235  14.271   4.720   5.739 -0.1674  0.2748 -0.0476
33052ION     NA49236   5.543  13.962  15.005 -0.0232  0.0779 -0.2589
33053ION     NA49237  11.200  11.072  10.632  0.3191  0.1954 -0.0735
33054ION     NA49238   1.477  15.133  15.019 -0.0218  0.0398 -0.3553
33055ION     NA49239   2.072   5.883  12.465 -0.0714 -0.0469 -0.1261
33056ION     NA49240   2.308   1.021   3.585 -0.0254  0.1487 -0.1912
33057ION     NA49241  16.928  11.072  10.602  0.1126 -0.2108 -0.2308
33058ION     NA49242   8.628   6.116   6.059 -0.1742 -0.0721 -0.1927
33059ION     NA49243  11.979  18.094   1.904  0.0104 -0.0626  0.1284
33060ION     NA49244   9.903   3.180  14.393  0.0181  0.0366 -0.3234
33061ION     NA49245  12.674  16.192  10.687  0.0697 -0.1139  0.0196
33062ION     NA49246   6.864  15.199   1.577 -0.1407 -0.2917 -0.2781
33063ION     NA49247   4.742   6.705   2.373 -0.2310 -0.1478 -0.1103
33064ION     NA49248  10.844  15.166   6.042 -0.4705 -0.2350  0.0353
33065ION     NA49249  15.496  14.058  10.242 -0.0887 -0.1291 -0.0252
33066ION     NA49250   7.866   3.921   4.013  0.1563  0.0801 -0.3875
33067ION     NA49251  18.283  15.814   3.147  0.2736  0.4542  0.1284
33068ION     NA49252  18.279   8.869  10.521 -0.0104  0.1413 -0.2785
33069ION     NA49253  10.201   3.118   2.403 -0.0097 -0.0360  0.3218
33070ION     NA49254  11.101  13.460  10.522  0.0788  0.4231  0.0817
33071ION     NA49255   2.183  11.260  10.372  0.0396 -0.0088  0.0295
33072ION     NA49256  14.469  10.812  14.182 -0.0008  0.0592 -0.0210
33073ION     NA49257   2.092   6.252  10.504 -0.0338 -0.0014  0.0727
33074ION     NA49258   6.085   7.220  14.818  0.1180  0.2991  0.1950
33075ION     NA49259   0.361   2.411   9.754 -0.3278 -0.1530  0.2714
33076ION     NA49260   0.299  11.443   5.704  0.0339 -0.2288  0.0961
33077ION     NA49261   0.010  15.675   4.992  0.4344  0.1645 -0.1646
33078ION     NA49262  18.121   1.782   4.523  0.2844  0.1181  0.0375
33079ION     NA49263  16.086  13.346  10.345 -0.2394  0.1295 -0.0822
33080ION     NA49264  12.133   0.405  10.582 -0.0002 -0.2315  0.0625
33081ION     NA49265  15.229  11.641  10.272  0.1515  0.0326  0.4156
33082ION     NA49266   0.216  16.268  10.099  0.5516 -0.1731 -0.0368
33083ION     NA49267  17.657   4.798   5.704  0.1454  0.3877  0.1106
33084ION     NA49268   9.778   0.134   5.630 -0.0425 -0.1610 -0.0606
33085ION     NA49269   5.985   8.166   1.289  0.1180 -0.3436  0.0974
33086ION     NA49270   9.472   2.258  10.327 -0.3127  0.1074  0.3850
33087ION     NA49271   7.940  13.168   5.797  0.0579  0.0078  0.2539
33088ION     NA49272   8.180   6.337   6.059  0.2212  0.0440  0.1246
33089ION     NA49273   3.533  14.269  10.291  0.1318 -0.2319  0.0800
33090ION     NA49274   6.862  12.967   4.624  0.1530  0.1527 -0.1864
33091ION     NA49275   3.571   0.123  12.847  0.0652 -0.0237 -0.0327
33092ION     NA49276   9.657  11.739   4.762  0.3009  0.0005 -0.1783
33093ION     NA49277  17.921  16.184  10.488 -0.0719  0.1238 -0.1445
33094ION     NA49278   4.528   7.331  12.654 -0.0880 -0.0475 -0.3736
33095ION     NA49279   0.815  17.522   9.821  0.1300  0.2717  0.2592
33096ION     NA49280   9.789   1.658  10.065 -0.2166 -0.1353 -0.2964
33097ION     NA49281   7.206  16.872  10.435 -0.1562 -0.0173 -0.2455
33098ION     NA49282  14.016  16.613  10.013 -0.3480  0.3025 -0.1242
33099ION     NA49283   3.966   6.603  10.400 -0.2761 -0.0968 -0.1674
33100ION     NA49284  10.874   9.592  10.482  0.0126  0.2981  0.4222
33101ION     NA49285   3.892  17.187  10.505 -0.0371 -0.0588 -0.1022
33102ION     NA49286   2.726  12.543  10.481  0.0436 -0.1830  0.2024
33103ION     NA49287  10.591   1.682   5.904  0.1855  0.0460  0.1447
33104ION     NA49288  10.410   6.663  10.589 -0.0783  0.3962 -0.3351
33105ION     NA49289   3.076   9.273   1.874 -0.3328  0.0059 -0.2299
33106ION     NA49290  15.478  12.555  10.296  0.1851  0.2935 -0.3170
33107ION     NA49291  13.611  10.640  10.437 -0.0729  0.0136 -0.3220
33108ION     NA49292   7.778  15.573   6.006 -0.0785  0.2310 -0.2510
33109ION     NA49293   1.646   8.075  10.382 -0.3583  0.0767 -0.0460
33110ION     NA49294  13.989  15.146   5.465  0.0110  0.1579 -0.4034
33111ION     NA49295  11.621  13.531  14.160 -0.0363 -0.1846  0.1184
33112ION     NA49296  18.477   4.855  10.911  0.2123 -0.0702  0.2920
33113ION     NA49297   4.144   0.901   1.241 -0.1814  0.2825 -0.1544
33114ION     NA49298  14.691  15.942  10.145 -0.0772  0.0664 -0.0450
33115ION     NA49299  14.129  13.254  10.356  0.1540 -0.0548 -0.1120
33116ION     NA49300  14.908   6.949  13.996  0.0602  0.0046  0.2777
33117ION     NA49301  13.909   3.861  15.297 -0.6317  0.4830  0.0647
33118ION     NA49302  14.318   0.509   1.752 -0.3896 -0.0514 -0.0826
33119ION     NA49303   1.989   9.719  12.350 -0.0177 -0.0265 -0.2049
33120ION     NA49304   0.298  16.314  10.584  0.4280 -0.1455 -0.2062
33121ION     NA49305  12.222  13.585  10.415  0.1074 -0.2220 -0.0780
33122ION     NA49306   2.828   7.161   9.991 -0.0641 -0.0320  0.1914
33123ION     NA49307  14.031   3.328   5.925 -0.1177 -0.0834  0.0319
33124ION     NA49308  15.018   2.378   1.088 -0.0409 -0.3663 -0.3441
33125ION     NA49309  11.319   0.675   3.625  0.1987 -0.2665  0.2950
33126ION     NA49310   6.987  17.673  10.349 -0.0085 -0.2504  0.0279
33127ION     NA49311   6.662   8.773  15.234  0.2210  0.1822 -0.1962
33128ION     NA49312   4.674  15.975  15.056 -0.0969 -0.3058 -0.1450
33129ION     NA49313   1.007   6.554   4.089 -0.2425 -0.0821 -0.0912
33130ION     NA49314   5.537  18.483   3.828 -0.1689 -0.1184  0.1190
33131ION     NA49315   4.862   7.343  10.859 -0.0444  0.0100 -0.0758
33132ION     NA49316   0.040  11.116  10.601  0.2136 -0.2380 -0.0427
33133ION     NA49317  11.717   5.310  10.390  0.0095  0.1694 -0.1386
33134ION     NA49318   2.197  11.844  10.429  0.1276 -0.0991 -0.0057
33135ION     NA49319   1.909  13.090  11.617 -0.3435  0.0118  0.0403
33136ION     NA49320  13.031   2.771  10.341  0.2216 -0.1624  0.2455
33137ION     NA49321   3.115   6.285  10.053 -0.1545  0.0665  0.1853
33138ION     NA49322   8.507  17.684  13.160 -0.0721  0.2676 -0.1800
33139ION     NA49323  18.475  13.489  10.526  0.3427 -0.2145  0.1798
33140ION     NA49324   3.548   1.322   5.448  0.2172  0.0776  0.0303
33141ION     NA49325  14.096   5.531  14.091 -0.2720  0.2802 -0.1961
33142ION     NA49326   8.156   6.302  14.277  0.1541  0.1036 -0.0094
33143ION     NA49327  10.061  15.368   1.919  0.1144  0.0868  0.0306
33144ION     NA49328  10.618  17.643  10.697  0.4859  0.6531 -0.3555
33145ION     NA49329  14.587   4.396   4.724  0.1493 -0.1377 -0.1537
33146ION     NA49330   6.398  14.564  10.559  0.1361  0.1141  0.1205
33147ION     NA49331  15.243   8.668  10.392  0.0500 -0.1997 -0.1028
33148ION     NA49332  14.102  15.374  12.304 -0.2138  0.0507 -0.1804
33149ION     NA49333   7.479   7.389  11.532 -0.0436  0.0242  0.0605
33150ION     NA49334  16.911   4.644  10.308  0.3110 -0.0882  0.0256
33151ION     NA49335  10.144  10.053  10.517  0.1645  0.0594 -0.2710
33152ION     NA49336   4.021   2.780  10.066  0.1155  0.1871 -0.0755
33153ION     NA49337  13.613  15.945  10.618  0.2233 -0.1117 -0.0901
33154ION     NA49338  13.426   8.703   0.969  0.0519 -0.0100  0.1004
33155ION     NA49339   9.346  16.147   5.423 -0.3576  0.2003  0.2730
33156ION     NA49340   9.034  14.899   3.530  0.1181 -0.1222 -0.2496
33157ION     NA49341   3.043  12.536  12.102  0.2864 -0.3668 -0.0585
33158ION     NA49342   4.036  14.121   3.159  0.0978 -0.2210 -0.1859
33159ION     NA49343   7.466   6.472  10.700  0.5142  0.1166 -0.2723
33160ION     NA49344  15.158   8.366   2.308  0.1771 -0.0529  0.1761
33161ION     NA49345  18.423   4.847  10.076 -0.0084  0.2181  0.2079
33162ION     NA49346   0.181  11.031  15.323 -0.3620  0.2622  0.0404
33163ION     NA49347  16.717   8.810   5.579  0.1189 -0.0146 -0.0177
33164ION     NA49348  14.616   5.957  12.525 -0.0993  0.0191  0.1904
  18.52201  18.52201  16.14911
